LAMMPS (23 Jun 2022 - Update 1)
  using 1 OpenMP thread(s) per MPI task
variable num index 0 1 2 3 4 5 6 7 8 9 10 11 12 13 14 15 16 17 18 19 20 21 22 23 24 25 26 27 28 29 30 31 32 33 34 35 36 37 38 39 40 41 42 43 44 45 46 47 48 49 50 51 52 53 54 55 56 57 58 59 60 61 62 63 64 65 66 67 68 69 70 71 72 73 74 75 76 77 78 79 80 81 82 83 84 85 86 87 88 89 90 91 92 93 94 95 96 97 98 99

label startloop

include granular.in
### Simulation of contact between two chain

##################### Simulation setup ####################

units micro                              # units
dimension	3                            # dimension
boundary	p p p                        # boundary condition p: periodic
atom_style	sphere                       # atom style
#processors * * 1

####################### Parameter ##################################

variable ind equal ${num}
variable ind equal 0

#variable lat0 equal 1                    #
variable lat1 equal 3+(200*0.01)+(v_ind*0.01)  # .491+(v_ind*0.001)       # Lattice distance of bottom chain
variable lat2 equal 3                    # Lattice distance of top chain
variable d1 equal 3                      # Diamter of particle at bottom chain
variable d2 equal 3                      # Diamter of particle at top chain
#variable d3 equal 1                      # Diamter of supporting particle

variable n2e1 equal 500*v_lat2             # Half length of top chain. 1500 is number of particles
variable n1e1 equal 1.5*v_n2e1*(v_lat1/v_lat2)             # Half length of bottom chain, which is 1.5 time larger than top chain
variable n1e2 equal -v_n1e1
variable n2e2 equal -v_n2e1
#variable lenspr equal -(v_n2e1+100)           # length of the spring connecting top chain and supporting particle
#variable lenspr1 equal -v_lenspr-0.1         # Position of supporting particle upper bound
#variable lenspr2 equal -v_lenspr+0.1         # Position of supporting particle lower bound

variable den equal 2.2 #grams/cm^3      # micrometer^3=10^-12 cm^3 Density of materials

variable V1 equal (1/6)*PI*(v_d1^3)     # Volume of particle 1
variable V2 equal (1/6)*PI*(v_d2^3)     # Volume of particle 2
#variable V3 equal (1/6)*PI*(v_d3^3)     # Volume of particle 3

variable mass1 equal v_den*v_V1  # Mass of particle 1 (picograms)
variable mass2 equal v_den*v_V2  # Mass of particle 2
#variable mass3 equal v_den*v_V3  # Mass of particle 3

# E GPa to picogram/(micrometer-microsecond^2)= 10^3 Pa= 10^-6 GPa
# Force unit(picogram-micrometer/microsecond^2)=10^-9 N= 1nN
# Spring stiffness (force/distance) 10^-3 N/m

variable K0 equal (1500/50)*(10^5)             # Spring stiffness conneting top chain and sup particle
variable E equal 100*(10^6)                    # Young's Modulus using for Hertz/material model
variable PR equal 0.3                          # Poisson's ratio using for Hertz/material model
variable Fn equal -1000                        # Force apply to each particles in top chain
variable dt equal 0.00001                      # Time step units microsecond
variable lgv equal 0.5                         #damping for langevin thermostat for slider


################### Creating the model #################################
lattice sc ${lat1}                                                               # Bottom chain type1
lattice sc 5                                                               
Lattice spacing in x,y,z = 5 5 5

region box block ${n1e2} ${n1e1} -100 100 -100 100 units box
region box block -3750 ${n1e1} -100 100 -100 100 units box
region box block -3750 3750 -100 100 -100 100 units box
region substrate block ${n1e2} ${n1e1} -0.5 0.5 0 0.5 units box
region substrate block -3750 ${n1e1} -0.5 0.5 0 0.5 units box
region substrate block -3750 3750 -0.5 0.5 0 0.5 units box

create_box 2 box
Created orthogonal box = (-3750 -100 -100) to (3750 100 100)
  4 by 1 by 1 MPI processor grid
create_atoms 1 region substrate
Created 1500 atoms
  using lattice units in orthogonal box = (-3750 -100 -100) to (3750 100 100)
  create_atoms CPU = 0.004 seconds

lattice sc ${lat2}                                                             # Top chain type2
lattice sc 3                                                             
Lattice spacing in x,y,z = 3 3 3

region slider1 block ${n2e2} ${n2e1} -0.1 0.1 5.9 6.1 units box
region slider1 block -1500 ${n2e1} -0.1 0.1 5.9 6.1 units box
region slider1 block -1500 1500 -0.1 0.1 5.9 6.1 units box

create_atoms 2 region slider1
Created 1001 atoms
  using lattice units in orthogonal box = (-3750 -100 -100) to (3750 100 100)
  create_atoms CPU = 0.001 seconds

#lattice sc ${lat0}                                                             # Supporting particle type3

#region support block ${lenspr1} ${lenspr2} -0.1 0.1 7.9 8.1 units box

#create_atoms 3 region support

set type 1 diameter ${d1}                    # Set mass and diameter for each particles type
set type 1 diameter 3                    
Setting atom values ...
  1500 settings made for diameter
set type 1 mass ${mass1}
set type 1 mass 31.101767270539
Setting atom values ...
  1500 settings made for mass
set type 2 diameter ${d2}
set type 2 diameter 3
Setting atom values ...
  1001 settings made for diameter
set type 2 mass ${mass2}
set type 2 mass 31.101767270539
Setting atom values ...
  1001 settings made for mass
#set type 3 diameter ${d3}
#set type 3 mass ${mass3}

group substrate region substrate           # Define gorup
1500 atoms in group substrate
group slider1 region slider1
1001 atoms in group slider1
#group support region support
#group substrate_slider union substrate slider1

########################## Potential ###################################
pair_style granular
pair_coeff 1 1 hertz/material 0.00000001 0.001 ${PR} tangential mindlin NULL 0.1 0.01 damping viscoelastic              ########### set E between each particle in same type is small to neglect their interaction
pair_coeff 1 1 hertz/material 0.00000001 0.001 0.3 tangential mindlin NULL 0.1 0.01 damping viscoelastic              
pair_coeff 2 2 hertz/material 0.00000001 0.001 ${PR} tangential mindlin NULL 0.1 0.01 damping viscoelastic
pair_coeff 2 2 hertz/material 0.00000001 0.001 0.3 tangential mindlin NULL 0.1 0.01 damping viscoelastic
#pair_coeff 3 3 hertz/material ${E} 0.001 ${PR} tangential mindlin NULL 0.1 0.01 damping viscoelastic
pair_coeff 1 2 hertz/material ${E} 0.001 ${PR} tangential mindlin NULL 0.1 0.01 damping viscoelastic
pair_coeff 1 2 hertz/material 100000000 0.001 ${PR} tangential mindlin NULL 0.1 0.01 damping viscoelastic
pair_coeff 1 2 hertz/material 100000000 0.001 0.3 tangential mindlin NULL 0.1 0.01 damping viscoelastic
#pair_coeff 1 3 hertz/material 0.00000001 0.001 ${PR} tangential mindlin NULL 0.1 0.01 damping viscoelastic
#pair_coeff 2 3 hertz/material 0.00000001 0.001 ${PR} tangential mindlin NULL 0.1 0.01 damping viscoelastic
comm_modify     vel yes
neigh_modify    delay 0 every 1 check yes

### Compute properties ###

compute 1 slider1 com                      # Compute the center of mass of top chain
#compute 2 support com                      # Compute the center of mass of supporting particle

variable p0 equal "step"

variable slider_z equal "c_1[3]"          # output the position of top chain in z-direction

#variable distance equal "c_2[1]-c_1[1]"   # Distance between COM of top chain and supporting particle

thermo 100000
thermo_style custom step lx ly lz press pxx pyy pzz ke pe temp c_1[1] c_1[2] c_1[3] #c_2[1] c_2[2] c_2[3] v_distance

############### Fix ##################


############## Equilibrium the system with apply force ########################

fix force_slider1 slider1 setforce NULL 0 NULL                                # Fix top chain not to move in y-direction

fix f_sub substrate freeze                                                    # Freeze the bottom chain

fix rigid_top slider1 rigid/nve group 1 slider1 langevin 0 0 ${lgv} 6987532   # NVE+langevin
fix rigid_top slider1 rigid/nve group 1 slider1 langevin 0 0 0.5 6987532   
  1 rigid bodies with 1001 atoms

fix add slider1 addforce 0 0 ${Fn} every 1                                    # Add force to top layer
fix add slider1 addforce 0 0 -1000 every 1                                    

timestep ${dt}
timestep 1e-05

# fix  nve_1 slider1 nve

dump 		D1 all custom 100000 Equi_${num}_*.dump id type diameter mass xu yu zu fx fy fz
dump 		D1 all custom 100000 Equi_0_*.dump id type diameter mass xu yu zu fx fy fz

run 3000000
Generated 0 of 1 mixed pair_coeff terms from geometric mixing rule
Neighbor list info ...
  update every 1 steps, delay 0 steps, check yes
  max neighbors/atom: 2000, page size: 100000
  master list distance cutoff = 3.1
  ghost atom cutoff = 3.1
  binsize = 1.55, bins = 4839 130 130
  1 neighbor lists, perpetual/occasional/extra = 1 0 0
  (1) pair granular, perpetual
      attributes: half, newton on, size, history
      pair build: half/size/bin/newton
      stencil: half/bin/3d
      bin: standard
Per MPI rank memory allocation (min/avg/max) = 97.33 | 97.34 | 97.34 Mbytes
   Step           Lx             Ly             Lz           Press           Pxx            Pyy            Pzz           KinEng         PotEng          Temp          c_1[1]         c_1[2]         c_1[3]    
         0   7500           200            200            0              0              0              0              0              0              0              1.1965779e-13  0              6            
    100000   7500           200            200            0.0027215089   4.4365029e-41  0              0.0081645266   587952.32      0              5.6780226e+10  1.1965779e-13  0              3.3278784    
    200000   7500           200            200            0.00098141897 -2.1540983e-35  0              0.0029442569   147251.73      0              1.4220518e+10  1.1965779e-13  0              3.0746671    
    300000   7500           200            200            0.00012239225 -2.1540857e-35  0              0.00036717674  4439.1914      0              4.2870533e+08  1.1965779e-13  0              3.0475209    
    400000   7500           200            200           -0.00012531407  4.308267e-35   0             -0.00037594221  7192.1672      0              6.9456803e+08  1.1965779e-13  0              3.0031456    
    500000   7500           200            200            0.00019056885 -4.0928179e-34  0              0.00057170655  1337.2387      0              1.2914095e+08  1.1965779e-13  0              2.9996754    
    600000   7500           200            200            0.0056501026   2.1541307e-35  0              0.016950308    44.039704      0              4253039.4      1.1965779e-13  0              2.9973975    
    700000   7500           200            200            0.0028248348   4.3082462e-35  0              0.0084745043   25.886816      0              2499963.4      1.1965779e-13  0              2.9983621    
    800000   7500           200            200            0.0030359911  -7.5393954e-35  0              0.0091079733   0.51604228     0              49835.67       1.1965779e-13  0              2.9982775    
    900000   7500           200            200            0.0033247433  -1.0770491e-35  0              0.00997423     0.73524851     0              71005.038      1.1965779e-13  0              2.9981698    
   1000000   7500           200            200            0.0033723201  -1.6155826e-35  0              0.01011696     0.020866377    0              2015.1254      1.1965779e-13  0              2.9981528    
   1100000   7500           200            200            0.00334666     1.0770605e-35  0              0.01003998     0.0054677606   0              528.03718      1.1965779e-13  0              2.9981624    
   1200000   7500           200            200            0.0033330145   2.6926482e-35  0              0.0099990435   0.0016440089   0              158.76661      1.1965779e-13  0              2.9981673    
   1300000   7500           200            200            0.0033325498   3.7699836e-41  0              0.0099976495   2.8493572e-06  0              0.27517053     1.1965779e-13  0              2.9981675    
   1400000   7500           200            200            0.0033342489   4.821642e-41   0              0.010002747    2.4632202e-05  0              2.3788018      1.1965779e-13  0              2.9981669    
   1500000   7500           200            200            0.0033347983  -2.1541109e-35  0              0.010004395    2.7182605e-06  0              0.26251014     1.1965779e-13  0              2.9981667    
   1600000   7500           200            200            0.0033347274  -1.0770528e-35  0              0.010004182    3.77651e-08    0              0.0036470831   1.1965779e-13  0              2.9981667    
   1700000   7500           200            200            0.0033346333   5.3853435e-36  0              0.0100039      7.6808314e-08  0              0.0074175972   1.1965779e-13  0              2.9981667    
   1800000   7500           200            200            0.0033346159   1.0770634e-35  0              0.010003848    2.8406674e-09  0              0.00027433132  1.1965779e-13  0              2.9981667    
   1900000   7500           200            200            0.0033346235   1.6155924e-35  0              0.010003871    4.8214621e-10  0              4.656223e-05   1.1965779e-13  0              2.9981667    
   2000000   7500           200            200            0.0033346281  -1.0770528e-35  0              0.010003884    1.8091823e-10  0              1.7471787e-05  1.1965779e-13  0              2.9981667    
   2100000   7500           200            200            0.0033346283  -1.6155818e-35  0              0.010003885    8.1708496e-13  0              7.8908217e-08  1.1965779e-13  0              2.9981667    
   2200000   7500           200            200            0.0033346278   2.1541215e-35  0              0.010003883    2.3956521e-12  0              2.3135494e-07  1.1965779e-13  0              2.9981667    
   2300000   7500           200            200            0.0033346276   4.8467667e-35  0              0.010003883    3.185485e-13   0              3.0763134e-08  1.1965779e-13  0              2.9981667    
   2400000   7500           200            200            0.0033346276   1.6155924e-35  0              0.010003883    2.0731697e-15  0              2.0021189e-10  1.1965779e-13  0              2.9981667    
   2500000   7500           200            200            0.0033346277   5.3853436e-36  0              0.010003883    7.9668617e-15  0              7.6938248e-10  1.1965779e-13  0              2.9981667    
   2600000   7500           200            200            0.0033346277   1.0770634e-35  0              0.010003883    3.489679e-16   0              3.3700822e-11  1.1965779e-13  0              2.9981667    
   2700000   7500           200            200            0.0033346277  -1.0770528e-35  0              0.010003883    9.1452477e-17  0              8.8318257e-12  1.1965779e-13  0              2.9981667    
   2800000   7500           200            200            0.0033346277  -5.9238142e-35  0              0.010003883    3.0111104e-18  0              2.9079149e-13  1.1965779e-13  0              2.9981667    
   2900000   7500           200            200            0.0033346277  -2.6925922e-36  0              0.010003883    3.894169e-18   0              3.7607097e-13  1.1965779e-13  0              2.9981667    
   3000000   7500           200            200            0.0033346277   5.294427e-41   0              0.010003883    3.1598008e-18  0              3.0515095e-13  1.1965779e-13  0              2.9981667    
Loop time of 317.686 on 4 procs for 3000000 steps with 2501 atoms

Performance: 8158988.757 ns/day, 0.000 hours/ns, 9443.274 timesteps/s
99.9% CPU use with 4 MPI tasks x 1 OpenMP threads

MPI task timing breakdown:
Section |  min time  |  avg time  |  max time  |%varavg| %total
---------------------------------------------------------------
Pair    | 11.898     | 44.927     | 77.97      | 492.7 | 14.14
Neigh   | 4.7681     | 4.8576     | 4.9543     |   3.8 |  1.53
Comm    | 19.962     | 42.593     | 91.952     | 440.7 | 13.41
Output  | 0.27018    | 0.27053    | 0.27093    |   0.1 |  0.09
Modify  | 113.7      | 166.76     | 186.91     | 237.7 | 52.49
Other   |            | 58.28      |            |       | 18.35

Nlocal:         625.25 ave         876 max         375 min
Histogram: 2 0 0 0 0 0 0 0 0 2
Nghost:           1.75 ave           3 max           1 min
Histogram: 2 0 0 0 0 1 0 0 0 1
Neighs:         300.25 ave         601 max           0 min
Histogram: 2 0 0 0 0 0 0 0 0 2

Total # of neighbors = 1201
Ave neighs/atom = 0.48020792
Neighbor list builds = 168
Dangerous builds = 0

undump D1

############ Add spring between top chain to supp particle and then equilibrium  ###########

#fix sp1 support spring couple slider1 ${K0} ${lenspr} NULL NULL 0                                 # Add spring

#dump 		D2 all custom 100000 add_${num}*.dump id type diameter mass xu yu zu

#fix add1 all print 10 "${p0} ${distance} ${slider_z}" file add_distance_${num}.txt screen no      # out put step, distance(spring length), z-position of top chain

#run 1000000

#undump D2

#unfix add1

########## Pulling the supporting particle with constant velocity #############

#fix m1 support move linear 0.1 0 0 units box                                                      # apply constant velocity to supporting particles along x-direction V=0.1m/s

#fix move1 all print 100 "${p0} ${distance} ${slider_z}" file move_distance_${num}.txt screen no

#dump 		1 all custom 50000 move_${num}_*.dump id type diameter mass xu yu zu

#run 1000000

clear
  using 1 OpenMP thread(s) per MPI task

next num

jump SELF startloop

include granular.in
### Simulation of contact between two chain

##################### Simulation setup ####################

units micro                              # units
dimension	3                            # dimension
boundary	p p p                        # boundary condition p: periodic
atom_style	sphere                       # atom style
#processors * * 1

####################### Parameter ##################################

variable ind equal ${num}
variable ind equal 1

#variable lat0 equal 1                    #
variable lat1 equal 3+(200*0.01)+(v_ind*0.01)  # .491+(v_ind*0.001)       # Lattice distance of bottom chain
variable lat2 equal 3                    # Lattice distance of top chain
variable d1 equal 3                      # Diamter of particle at bottom chain
variable d2 equal 3                      # Diamter of particle at top chain
#variable d3 equal 1                      # Diamter of supporting particle

variable n2e1 equal 500*v_lat2             # Half length of top chain. 1500 is number of particles
variable n1e1 equal 1.5*v_n2e1*(v_lat1/v_lat2)             # Half length of bottom chain, which is 1.5 time larger than top chain
variable n1e2 equal -v_n1e1
variable n2e2 equal -v_n2e1
#variable lenspr equal -(v_n2e1+100)           # length of the spring connecting top chain and supporting particle
#variable lenspr1 equal -v_lenspr-0.1         # Position of supporting particle upper bound
#variable lenspr2 equal -v_lenspr+0.1         # Position of supporting particle lower bound

variable den equal 2.2 #grams/cm^3      # micrometer^3=10^-12 cm^3 Density of materials

variable V1 equal (1/6)*PI*(v_d1^3)     # Volume of particle 1
variable V2 equal (1/6)*PI*(v_d2^3)     # Volume of particle 2
#variable V3 equal (1/6)*PI*(v_d3^3)     # Volume of particle 3

variable mass1 equal v_den*v_V1  # Mass of particle 1 (picograms)
variable mass2 equal v_den*v_V2  # Mass of particle 2
#variable mass3 equal v_den*v_V3  # Mass of particle 3

# E GPa to picogram/(micrometer-microsecond^2)= 10^3 Pa= 10^-6 GPa
# Force unit(picogram-micrometer/microsecond^2)=10^-9 N= 1nN
# Spring stiffness (force/distance) 10^-3 N/m

variable K0 equal (1500/50)*(10^5)             # Spring stiffness conneting top chain and sup particle
variable E equal 100*(10^6)                    # Young's Modulus using for Hertz/material model
variable PR equal 0.3                          # Poisson's ratio using for Hertz/material model
variable Fn equal -1000                        # Force apply to each particles in top chain
variable dt equal 0.00001                      # Time step units microsecond
variable lgv equal 0.5                         #damping for langevin thermostat for slider


################### Creating the model #################################
lattice sc ${lat1}                                                               # Bottom chain type1
lattice sc 5.01                                                               
Lattice spacing in x,y,z = 5.01 5.01 5.01

region box block ${n1e2} ${n1e1} -100 100 -100 100 units box
region box block -3757.5 ${n1e1} -100 100 -100 100 units box
region box block -3757.5 3757.5 -100 100 -100 100 units box
region substrate block ${n1e2} ${n1e1} -0.5 0.5 0 0.5 units box
region substrate block -3757.5 ${n1e1} -0.5 0.5 0 0.5 units box
region substrate block -3757.5 3757.5 -0.5 0.5 0 0.5 units box

create_box 2 box
Created orthogonal box = (-3757.5 -100 -100) to (3757.5 100 100)
  4 by 1 by 1 MPI processor grid
create_atoms 1 region substrate
Created 1500 atoms
  using lattice units in orthogonal box = (-3757.5 -100 -100) to (3757.5 100 100)
  create_atoms CPU = 0.001 seconds

lattice sc ${lat2}                                                             # Top chain type2
lattice sc 3                                                             
Lattice spacing in x,y,z = 3 3 3

region slider1 block ${n2e2} ${n2e1} -0.1 0.1 5.9 6.1 units box
region slider1 block -1500 ${n2e1} -0.1 0.1 5.9 6.1 units box
region slider1 block -1500 1500 -0.1 0.1 5.9 6.1 units box

create_atoms 2 region slider1
Created 1001 atoms
  using lattice units in orthogonal box = (-3757.5 -100 -100) to (3757.5 100 100)
  create_atoms CPU = 0.001 seconds

#lattice sc ${lat0}                                                             # Supporting particle type3

#region support block ${lenspr1} ${lenspr2} -0.1 0.1 7.9 8.1 units box

#create_atoms 3 region support

set type 1 diameter ${d1}                    # Set mass and diameter for each particles type
set type 1 diameter 3                    
Setting atom values ...
  1500 settings made for diameter
set type 1 mass ${mass1}
set type 1 mass 31.101767270539
Setting atom values ...
  1500 settings made for mass
set type 2 diameter ${d2}
set type 2 diameter 3
Setting atom values ...
  1001 settings made for diameter
set type 2 mass ${mass2}
set type 2 mass 31.101767270539
Setting atom values ...
  1001 settings made for mass
#set type 3 diameter ${d3}
#set type 3 mass ${mass3}

group substrate region substrate           # Define gorup
1500 atoms in group substrate
group slider1 region slider1
1001 atoms in group slider1
#group support region support
#group substrate_slider union substrate slider1

########################## Potential ###################################
pair_style granular
pair_coeff 1 1 hertz/material 0.00000001 0.001 ${PR} tangential mindlin NULL 0.1 0.01 damping viscoelastic              ########### set E between each particle in same type is small to neglect their interaction
pair_coeff 1 1 hertz/material 0.00000001 0.001 0.3 tangential mindlin NULL 0.1 0.01 damping viscoelastic              
pair_coeff 2 2 hertz/material 0.00000001 0.001 ${PR} tangential mindlin NULL 0.1 0.01 damping viscoelastic
pair_coeff 2 2 hertz/material 0.00000001 0.001 0.3 tangential mindlin NULL 0.1 0.01 damping viscoelastic
#pair_coeff 3 3 hertz/material ${E} 0.001 ${PR} tangential mindlin NULL 0.1 0.01 damping viscoelastic
pair_coeff 1 2 hertz/material ${E} 0.001 ${PR} tangential mindlin NULL 0.1 0.01 damping viscoelastic
pair_coeff 1 2 hertz/material 100000000 0.001 ${PR} tangential mindlin NULL 0.1 0.01 damping viscoelastic
pair_coeff 1 2 hertz/material 100000000 0.001 0.3 tangential mindlin NULL 0.1 0.01 damping viscoelastic
#pair_coeff 1 3 hertz/material 0.00000001 0.001 ${PR} tangential mindlin NULL 0.1 0.01 damping viscoelastic
#pair_coeff 2 3 hertz/material 0.00000001 0.001 ${PR} tangential mindlin NULL 0.1 0.01 damping viscoelastic
comm_modify     vel yes
neigh_modify    delay 0 every 1 check yes

### Compute properties ###

compute 1 slider1 com                      # Compute the center of mass of top chain
#compute 2 support com                      # Compute the center of mass of supporting particle

variable p0 equal "step"

variable slider_z equal "c_1[3]"          # output the position of top chain in z-direction

#variable distance equal "c_2[1]-c_1[1]"   # Distance between COM of top chain and supporting particle

thermo 100000
thermo_style custom step lx ly lz press pxx pyy pzz ke pe temp c_1[1] c_1[2] c_1[3] #c_2[1] c_2[2] c_2[3] v_distance

############### Fix ##################


############## Equilibrium the system with apply force ########################

fix force_slider1 slider1 setforce NULL 0 NULL                                # Fix top chain not to move in y-direction

fix f_sub substrate freeze                                                    # Freeze the bottom chain

fix rigid_top slider1 rigid/nve group 1 slider1 langevin 0 0 ${lgv} 6987532   # NVE+langevin
fix rigid_top slider1 rigid/nve group 1 slider1 langevin 0 0 0.5 6987532   
  1 rigid bodies with 1001 atoms

fix add slider1 addforce 0 0 ${Fn} every 1                                    # Add force to top layer
fix add slider1 addforce 0 0 -1000 every 1                                    

timestep ${dt}
timestep 1e-05

# fix  nve_1 slider1 nve

dump 		D1 all custom 100000 Equi_${num}_*.dump id type diameter mass xu yu zu fx fy fz
dump 		D1 all custom 100000 Equi_1_*.dump id type diameter mass xu yu zu fx fy fz

run 3000000
Generated 0 of 1 mixed pair_coeff terms from geometric mixing rule
Neighbor list info ...
  update every 1 steps, delay 0 steps, check yes
  max neighbors/atom: 2000, page size: 100000
  master list distance cutoff = 3.1
  ghost atom cutoff = 3.1
  binsize = 1.55, bins = 4849 130 130
  1 neighbor lists, perpetual/occasional/extra = 1 0 0
  (1) pair granular, perpetual
      attributes: half, newton on, size, history
      pair build: half/size/bin/newton
      stencil: half/bin/3d
      bin: standard
Per MPI rank memory allocation (min/avg/max) = 97.54 | 97.55 | 97.55 Mbytes
   Step           Lx             Ly             Lz           Press           Pxx            Pyy            Pzz           KinEng         PotEng          Temp          c_1[1]         c_1[2]         c_1[3]    
         0   7515           200            200            0              0              0              0              0              0              0              1.1965779e-13  0              6            
    100000   7515           200            200            0.00269445     1.5703668e-40  0              0.00808335     581450.71      0              5.6152348e+10  1.1965779e-13  0              3.3293532    
    200000   7515           200            200            0.00093142593  8.5993919e-35  0              0.0027942778   136317.23      0              1.3164542e+10  1.1965779e-13  0              3.0792059    
    300000   7515           200            200            2.6269256e-05  8.9597393e-40  0              7.8807767e-05  234.68933      0              22664616       1.1965779e-13  0              3.0450564    
    400000   7515           200            200            7.6759267e-05 -2.1497742e-35  0              0.0002302778   1906.3284      0              1.8409955e+08  1.1965779e-13  0              3.004508     
    500000   7515           200            200           -0.00089056261 -0.021903159    0              0.019231471    586.37892      0              56628279       1.1965779e-13  0              2.9926318    
    600000   7515           200            200           -0.00067990901 -0.0085148335   0              0.0064751064   17.718742      0              1711149.3      1.1965779e-13  0              2.9957217    
    700000   7515           200            200            6.6841268e-05 -0.011174328    0              0.011374852    1.9806526      0              191277.25      1.1965779e-13  0              2.9943452    
    800000   7515           200            200           -0.00037651534 -0.01067588     0              0.0095463338   1.1495642      0              111016.68      1.1965779e-13  0              2.9948186    
    900000   7515           200            200           -0.00024229978 -0.010778191    0              0.010051291    0.40530154     0              39141.121      1.1965779e-13  0              2.9946839    
   1000000   7515           200            200           -0.00026170671 -0.010765252    0              0.0099801318   0.064609994    0              6239.5708      1.1965779e-13  0              2.9947018    
   1100000   7515           200            200           -0.000267846   -0.010760338    0              0.0099567996   0.0054735699   0              528.5982       1.1965779e-13  0              2.9947086    
   1200000   7515           200            200           -0.00026135906 -0.010765208    0              0.0099811304   0.00014999449  0              14.485394      1.1965779e-13  0              2.9947019    
   1300000   7515           200            200           -0.00026460845 -0.010762815    0              0.0099689892   5.2024649e-06  0              0.50241682     1.1965779e-13  0              2.9947052    
   1400000   7515           200            200           -0.00026344112 -0.010763664    0              0.009973341    9.5224571e-06  0              0.91961075     1.1965779e-13  0              2.994704     
   1500000   7515           200            200           -0.000263737   -0.010763453    0              0.0099722422   2.665074e-06   0              0.25737377     1.1965779e-13  0              2.9947043    
   1600000   7515           200            200           -0.00026370844 -0.010763471    0              0.0099723461   3.72367e-07    0              0.035960539    1.1965779e-13  0              2.9947043    
   1700000   7515           200            200           -0.00026368649 -0.010763488    0              0.009972429    2.6726273e-08  0              0.0025810321   1.1965779e-13  0              2.9947043    
   1800000   7515           200            200           -0.00026370414 -0.010763475    0              0.0099723628   4.1957347e-10  0              4.0519403e-05  1.1965779e-13  0              2.9947043    
   1900000   7515           200            200           -0.00026369601 -0.010763481    0              0.0099723932   8.4107234e-11  0              8.1224747e-06  1.1965779e-13  0              2.9947043    
   2000000   7515           200            200           -0.00026369874 -0.010763479    0              0.009972383    7.2729168e-11  0              7.0236625e-06  1.1965779e-13  0              2.9947043    
   2100000   7515           200            200           -0.00026369812 -0.01076348     0              0.0099723853   1.7021259e-11  0              1.6437913e-06  1.1965779e-13  0              2.9947043    
   2200000   7515           200            200           -0.00026369814 -0.01076348     0              0.0099723853   2.0832855e-12  0              2.011888e-07   1.1965779e-13  0              2.9947043    
   2300000   7515           200            200           -0.00026369821 -0.01076348     0              0.009972385    1.2297196e-13  0              1.1875752e-08  1.1965779e-13  0              2.9947043    
   2400000   7515           200            200           -0.00026369817 -0.01076348     0              0.0099723852   6.793494e-16   0              6.5606703e-11  1.1965779e-13  0              2.9947043    
   2500000   7515           200            200           -0.00026369819 -0.01076348     0              0.0099723851   9.1804639e-16  0              8.8658349e-11  1.1965779e-13  0              2.9947043    
   2600000   7515           200            200           -0.00026369818 -0.01076348     0              0.0099723851   5.2308432e-16  0              5.051574e-11   1.1965779e-13  0              2.9947043    
   2700000   7515           200            200           -0.00026369818 -0.01076348     0              0.0099723851   9.9737293e-17  0              9.6319139e-12  1.1965779e-13  0              2.9947043    
   2800000   7515           200            200           -0.00026369818 -0.01076348     0              0.0099723851   1.3672891e-17  0              1.3204299e-12  1.1965779e-13  0              2.9947043    
   2900000   7515           200            200           -0.00026369818 -0.01076348     0              0.0099723851   1.9987102e-18  0              1.9302113e-13  1.1965779e-13  0              2.9947043    
   3000000   7515           200            200           -0.00026369817 -0.01076348     0              0.0099723851   6.8005735e-19  0              6.5675071e-14  1.1965779e-13  0              2.9947043    
Loop time of 308.064 on 4 procs for 3000000 steps with 2501 atoms

Performance: 8413830.371 ns/day, 0.000 hours/ns, 9738.230 timesteps/s
100.0% CPU use with 4 MPI tasks x 1 OpenMP threads

MPI task timing breakdown:
Section |  min time  |  avg time  |  max time  |%varavg| %total
---------------------------------------------------------------
Pair    | 11.649     | 40.362     | 72.335     | 452.3 | 13.10
Neigh   | 4.6284     | 4.7156     | 4.8044     |   3.6 |  1.53
Comm    | 19.92      | 43.965     | 89.001     | 401.6 | 14.27
Output  | 0.273      | 0.27333    | 0.27371    |   0.1 |  0.09
Modify  | 108.85     | 161.16     | 179.92     | 238.0 | 52.31
Other   |            | 57.59      |            |       | 18.70

Nlocal:         625.25 ave         876 max         375 min
Histogram: 2 0 0 0 0 0 0 0 0 2
Nghost:           1.75 ave           3 max           1 min
Histogram: 2 0 0 0 0 1 0 0 0 1
Neighs:         329.25 ave         659 max           0 min
Histogram: 2 0 0 0 0 0 0 0 0 2

Total # of neighbors = 1317
Ave neighs/atom = 0.52658936
Neighbor list builds = 164
Dangerous builds = 0

undump D1

############ Add spring between top chain to supp particle and then equilibrium  ###########

#fix sp1 support spring couple slider1 ${K0} ${lenspr} NULL NULL 0                                 # Add spring

#dump 		D2 all custom 100000 add_${num}*.dump id type diameter mass xu yu zu

#fix add1 all print 10 "${p0} ${distance} ${slider_z}" file add_distance_${num}.txt screen no      # out put step, distance(spring length), z-position of top chain

#run 1000000

#undump D2

#unfix add1

########## Pulling the supporting particle with constant velocity #############

#fix m1 support move linear 0.1 0 0 units box                                                      # apply constant velocity to supporting particles along x-direction V=0.1m/s

#fix move1 all print 100 "${p0} ${distance} ${slider_z}" file move_distance_${num}.txt screen no

#dump 		1 all custom 50000 move_${num}_*.dump id type diameter mass xu yu zu

#run 1000000

clear
  using 1 OpenMP thread(s) per MPI task

next num

jump SELF startloop

include granular.in
### Simulation of contact between two chain

##################### Simulation setup ####################

units micro                              # units
dimension	3                            # dimension
boundary	p p p                        # boundary condition p: periodic
atom_style	sphere                       # atom style
#processors * * 1

####################### Parameter ##################################

variable ind equal ${num}
variable ind equal 2

#variable lat0 equal 1                    #
variable lat1 equal 3+(200*0.01)+(v_ind*0.01)  # .491+(v_ind*0.001)       # Lattice distance of bottom chain
variable lat2 equal 3                    # Lattice distance of top chain
variable d1 equal 3                      # Diamter of particle at bottom chain
variable d2 equal 3                      # Diamter of particle at top chain
#variable d3 equal 1                      # Diamter of supporting particle

variable n2e1 equal 500*v_lat2             # Half length of top chain. 1500 is number of particles
variable n1e1 equal 1.5*v_n2e1*(v_lat1/v_lat2)             # Half length of bottom chain, which is 1.5 time larger than top chain
variable n1e2 equal -v_n1e1
variable n2e2 equal -v_n2e1
#variable lenspr equal -(v_n2e1+100)           # length of the spring connecting top chain and supporting particle
#variable lenspr1 equal -v_lenspr-0.1         # Position of supporting particle upper bound
#variable lenspr2 equal -v_lenspr+0.1         # Position of supporting particle lower bound

variable den equal 2.2 #grams/cm^3      # micrometer^3=10^-12 cm^3 Density of materials

variable V1 equal (1/6)*PI*(v_d1^3)     # Volume of particle 1
variable V2 equal (1/6)*PI*(v_d2^3)     # Volume of particle 2
#variable V3 equal (1/6)*PI*(v_d3^3)     # Volume of particle 3

variable mass1 equal v_den*v_V1  # Mass of particle 1 (picograms)
variable mass2 equal v_den*v_V2  # Mass of particle 2
#variable mass3 equal v_den*v_V3  # Mass of particle 3

# E GPa to picogram/(micrometer-microsecond^2)= 10^3 Pa= 10^-6 GPa
# Force unit(picogram-micrometer/microsecond^2)=10^-9 N= 1nN
# Spring stiffness (force/distance) 10^-3 N/m

variable K0 equal (1500/50)*(10^5)             # Spring stiffness conneting top chain and sup particle
variable E equal 100*(10^6)                    # Young's Modulus using for Hertz/material model
variable PR equal 0.3                          # Poisson's ratio using for Hertz/material model
variable Fn equal -1000                        # Force apply to each particles in top chain
variable dt equal 0.00001                      # Time step units microsecond
variable lgv equal 0.5                         #damping for langevin thermostat for slider


################### Creating the model #################################
lattice sc ${lat1}                                                               # Bottom chain type1
lattice sc 5.02                                                               
Lattice spacing in x,y,z = 5.02 5.02 5.02

region box block ${n1e2} ${n1e1} -100 100 -100 100 units box
region box block -3765 ${n1e1} -100 100 -100 100 units box
region box block -3765 3765 -100 100 -100 100 units box
region substrate block ${n1e2} ${n1e1} -0.5 0.5 0 0.5 units box
region substrate block -3765 ${n1e1} -0.5 0.5 0 0.5 units box
region substrate block -3765 3765 -0.5 0.5 0 0.5 units box

create_box 2 box
Created orthogonal box = (-3765 -100 -100) to (3765 100 100)
  4 by 1 by 1 MPI processor grid
create_atoms 1 region substrate
Created 1500 atoms
  using lattice units in orthogonal box = (-3765 -100 -100) to (3765 100 100)
  create_atoms CPU = 0.001 seconds

lattice sc ${lat2}                                                             # Top chain type2
lattice sc 3                                                             
Lattice spacing in x,y,z = 3 3 3

region slider1 block ${n2e2} ${n2e1} -0.1 0.1 5.9 6.1 units box
region slider1 block -1500 ${n2e1} -0.1 0.1 5.9 6.1 units box
region slider1 block -1500 1500 -0.1 0.1 5.9 6.1 units box

create_atoms 2 region slider1
Created 1001 atoms
  using lattice units in orthogonal box = (-3765 -100 -100) to (3765 100 100)
  create_atoms CPU = 0.001 seconds

#lattice sc ${lat0}                                                             # Supporting particle type3

#region support block ${lenspr1} ${lenspr2} -0.1 0.1 7.9 8.1 units box

#create_atoms 3 region support

set type 1 diameter ${d1}                    # Set mass and diameter for each particles type
set type 1 diameter 3                    
Setting atom values ...
  1500 settings made for diameter
set type 1 mass ${mass1}
set type 1 mass 31.101767270539
Setting atom values ...
  1500 settings made for mass
set type 2 diameter ${d2}
set type 2 diameter 3
Setting atom values ...
  1001 settings made for diameter
set type 2 mass ${mass2}
set type 2 mass 31.101767270539
Setting atom values ...
  1001 settings made for mass
#set type 3 diameter ${d3}
#set type 3 mass ${mass3}

group substrate region substrate           # Define gorup
1500 atoms in group substrate
group slider1 region slider1
1001 atoms in group slider1
#group support region support
#group substrate_slider union substrate slider1

########################## Potential ###################################
pair_style granular
pair_coeff 1 1 hertz/material 0.00000001 0.001 ${PR} tangential mindlin NULL 0.1 0.01 damping viscoelastic              ########### set E between each particle in same type is small to neglect their interaction
pair_coeff 1 1 hertz/material 0.00000001 0.001 0.3 tangential mindlin NULL 0.1 0.01 damping viscoelastic              
pair_coeff 2 2 hertz/material 0.00000001 0.001 ${PR} tangential mindlin NULL 0.1 0.01 damping viscoelastic
pair_coeff 2 2 hertz/material 0.00000001 0.001 0.3 tangential mindlin NULL 0.1 0.01 damping viscoelastic
#pair_coeff 3 3 hertz/material ${E} 0.001 ${PR} tangential mindlin NULL 0.1 0.01 damping viscoelastic
pair_coeff 1 2 hertz/material ${E} 0.001 ${PR} tangential mindlin NULL 0.1 0.01 damping viscoelastic
pair_coeff 1 2 hertz/material 100000000 0.001 ${PR} tangential mindlin NULL 0.1 0.01 damping viscoelastic
pair_coeff 1 2 hertz/material 100000000 0.001 0.3 tangential mindlin NULL 0.1 0.01 damping viscoelastic
#pair_coeff 1 3 hertz/material 0.00000001 0.001 ${PR} tangential mindlin NULL 0.1 0.01 damping viscoelastic
#pair_coeff 2 3 hertz/material 0.00000001 0.001 ${PR} tangential mindlin NULL 0.1 0.01 damping viscoelastic
comm_modify     vel yes
neigh_modify    delay 0 every 1 check yes

### Compute properties ###

compute 1 slider1 com                      # Compute the center of mass of top chain
#compute 2 support com                      # Compute the center of mass of supporting particle

variable p0 equal "step"

variable slider_z equal "c_1[3]"          # output the position of top chain in z-direction

#variable distance equal "c_2[1]-c_1[1]"   # Distance between COM of top chain and supporting particle

thermo 100000
thermo_style custom step lx ly lz press pxx pyy pzz ke pe temp c_1[1] c_1[2] c_1[3] #c_2[1] c_2[2] c_2[3] v_distance

############### Fix ##################


############## Equilibrium the system with apply force ########################

fix force_slider1 slider1 setforce NULL 0 NULL                                # Fix top chain not to move in y-direction

fix f_sub substrate freeze                                                    # Freeze the bottom chain

fix rigid_top slider1 rigid/nve group 1 slider1 langevin 0 0 ${lgv} 6987532   # NVE+langevin
fix rigid_top slider1 rigid/nve group 1 slider1 langevin 0 0 0.5 6987532   
  1 rigid bodies with 1001 atoms

fix add slider1 addforce 0 0 ${Fn} every 1                                    # Add force to top layer
fix add slider1 addforce 0 0 -1000 every 1                                    

timestep ${dt}
timestep 1e-05

# fix  nve_1 slider1 nve

dump 		D1 all custom 100000 Equi_${num}_*.dump id type diameter mass xu yu zu fx fy fz
dump 		D1 all custom 100000 Equi_2_*.dump id type diameter mass xu yu zu fx fy fz

run 3000000
Generated 0 of 1 mixed pair_coeff terms from geometric mixing rule
Neighbor list info ...
  update every 1 steps, delay 0 steps, check yes
  max neighbors/atom: 2000, page size: 100000
  master list distance cutoff = 3.1
  ghost atom cutoff = 3.1
  binsize = 1.55, bins = 4859 130 130
  1 neighbor lists, perpetual/occasional/extra = 1 0 0
  (1) pair granular, perpetual
      attributes: half, newton on, size, history
      pair build: half/size/bin/newton
      stencil: half/bin/3d
      bin: standard
Per MPI rank memory allocation (min/avg/max) = 97.68 | 97.68 | 97.69 Mbytes
   Step           Lx             Ly             Lz           Press           Pxx            Pyy            Pzz           KinEng         PotEng          Temp          c_1[1]         c_1[2]         c_1[3]    
         0   7530           200            200            0              0              0              0              0              0              0              1.1965779e-13  0              6            
    100000   7530           200            200            0.0026890832   1.9988683e-41  0              0.0080672496   581450.96      0              5.6152372e+10  1.1965779e-13  0              3.3293526    
    200000   7530           200            200            0.00092957571  3.091394e-40   0              0.0027887271   136318.46      0              1.3164661e+10  1.1965779e-13  0              3.0792042    
    300000   7530           200            200            2.6226328e-05  6.665035e-41   0              7.8678985e-05  234.85404      0              22680522       1.1965779e-13  0              3.0450561    
    400000   7530           200            200            7.661384e-05  -2.681914e-35   0              0.00022984152  1906.6814      0              1.8413365e+08  1.1965779e-13  0              3.0045075    
    500000   7530           200            200            0.0023200375  -0.012243884    0              0.019203997    589.27023      0              56907501       1.1965779e-13  0              2.9926343    
    600000   7530           200            200            0.00054611536 -0.0048447975   0              0.0064831435   20.498525      0              1979600.8      1.1965779e-13  0              2.9957129    
    700000   7530           200            200            0.0017756777  -0.0060824182   0              0.011409451    0.0087479242   0              844.8119       1.1965779e-13  0              2.9943326    
    800000   7530           200            200            0.0012375459  -0.0057315111   0              0.0094441488   0.081553425    0              7875.8461      1.1965779e-13  0              2.9948433    
    900000   7530           200            200            0.001444607   -0.0058054629   0              0.010139284    0.019389812    0              1872.5292      1.1965779e-13  0              2.9946557    
   1000000   7530           200            200            0.0013684136  -0.0057797492   0              0.0098849901   0.0040551909   0              391.62131      1.1965779e-13  0              2.9947238    
   1100000   7530           200            200            0.0013959163  -0.0057892344   0              0.0099769833   0.00078765023  0              76.065621      1.1965779e-13  0              2.9946991    
   1200000   7530           200            200            0.001385961   -0.0057858228   0              0.009943706    0.00014364284  0              13.871998      1.1965779e-13  0              2.994708     
   1300000   7530           200            200            0.0013895465  -0.0057870563   0              0.0099556959   2.508688e-05   0              2.4227113      1.1965779e-13  0              2.9947048    
   1400000   7530           200            200            0.0013882582  -0.005786613    0              0.0099513875   4.2320373e-06  0              0.40869987     1.1965779e-13  0              2.9947059    
   1500000   7530           200            200            0.0013887195  -0.005786772    0              0.0099529305   6.9477367e-07  0              0.067096268    1.1965779e-13  0              2.9947055    
   1600000   7530           200            200            0.0013885549  -0.0057867152   0              0.0099523797   1.1152453e-07  0              0.010770241    1.1965779e-13  0              2.9947057    
   1700000   7530           200            200            0.0013886134  -0.0057867354   0              0.0099525756   1.7567967e-08  0              0.0016965885   1.1965779e-13  0              2.9947056    
   1800000   7530           200            200            0.0013885927  -0.0057867282   0              0.0099525062   2.7231667e-09  0              0.00026298395  1.1965779e-13  0              2.9947056    
   1900000   7530           200            200            0.0013886     -0.0057867308   0              0.0099525307   4.1622654e-10  0              4.019618e-05   1.1965779e-13  0              2.9947056    
   2000000   7530           200            200            0.0013885974  -0.0057867299   0              0.0099525221   6.2840559e-11  0              6.0686914e-06  1.1965779e-13  0              2.9947056    
   2100000   7530           200            200            0.0013885983  -0.0057867302   0              0.0099525251   9.383301e-12   0              9.0617205e-07  1.1965779e-13  0              2.9947056    
   2200000   7530           200            200            0.001388598   -0.0057867301   0              0.0099525241   1.3869965e-12  0              1.3394619e-07  1.1965779e-13  0              2.9947056    
   2300000   7530           200            200            0.0013885981  -0.0057867301   0              0.0099525244   2.0320497e-13  0              1.9624082e-08  1.1965779e-13  0              2.9947056    
   2400000   7530           200            200            0.0013885981  -0.0057867301   0              0.0099525243   2.95012e-14    0              2.8490147e-09  1.1965779e-13  0              2.9947056    
   2500000   7530           200            200            0.0013885981  -0.0057867301   0              0.0099525244   4.2009565e-15  0              4.0569831e-10  1.1965779e-13  0              2.9947056    
   2600000   7530           200            200            0.0013885981  -0.0057867301   0              0.0099525243   5.935198e-16   0              5.7317894e-11  1.1965779e-13  0              2.9947056    
   2700000   7530           200            200            0.0013885981  -0.0057867301   0              0.0099525244   8.644659e-17   0              8.3483929e-12  1.1965779e-13  0              2.9947056    
   2800000   7530           200            200            0.0013885981  -0.0057867301   0              0.0099525244   1.3801887e-17  0              1.3328875e-12  1.1965779e-13  0              2.9947056    
   2900000   7530           200            200            0.0013885981  -0.0057867301   0              0.0099525244   5.3116431e-18  0              5.1296047e-13  1.1965779e-13  0              2.9947056    
   3000000   7530           200            200            0.0013885981  -0.0057867301   0              0.0099525244   4.092829e-19   0              3.9525613e-14  1.1965779e-13  0              2.9947056    
Loop time of 304.507 on 4 procs for 3000000 steps with 2501 atoms

Performance: 8512114.519 ns/day, 0.000 hours/ns, 9851.984 timesteps/s
100.0% CPU use with 4 MPI tasks x 1 OpenMP threads

MPI task timing breakdown:
Section |  min time  |  avg time  |  max time  |%varavg| %total
---------------------------------------------------------------
Pair    | 11.545     | 39.274     | 68.728     | 442.1 | 12.90
Neigh   | 4.6655     | 4.7499     | 4.8375     |   3.5 |  1.56
Comm    | 18.985     | 25.428     | 30.8       |  99.3 |  8.35
Output  | 0.27487    | 0.2752     | 0.27558    |   0.1 |  0.09
Modify  | 173.61     | 177.31     | 181.54     |  23.9 | 58.23
Other   |            | 57.47      |            |       | 18.87

Nlocal:         625.25 ave         877 max         374 min
Histogram: 2 0 0 0 0 0 0 0 0 2
Nghost:           1.75 ave           3 max           1 min
Histogram: 2 0 0 0 0 1 0 0 0 1
Neighs:         328.75 ave         658 max           0 min
Histogram: 2 0 0 0 0 0 0 0 0 2

Total # of neighbors = 1315
Ave neighs/atom = 0.52578968
Neighbor list builds = 164
Dangerous builds = 0

undump D1

############ Add spring between top chain to supp particle and then equilibrium  ###########

#fix sp1 support spring couple slider1 ${K0} ${lenspr} NULL NULL 0                                 # Add spring

#dump 		D2 all custom 100000 add_${num}*.dump id type diameter mass xu yu zu

#fix add1 all print 10 "${p0} ${distance} ${slider_z}" file add_distance_${num}.txt screen no      # out put step, distance(spring length), z-position of top chain

#run 1000000

#undump D2

#unfix add1

########## Pulling the supporting particle with constant velocity #############

#fix m1 support move linear 0.1 0 0 units box                                                      # apply constant velocity to supporting particles along x-direction V=0.1m/s

#fix move1 all print 100 "${p0} ${distance} ${slider_z}" file move_distance_${num}.txt screen no

#dump 		1 all custom 50000 move_${num}_*.dump id type diameter mass xu yu zu

#run 1000000

clear
  using 1 OpenMP thread(s) per MPI task

next num

jump SELF startloop

include granular.in
### Simulation of contact between two chain

##################### Simulation setup ####################

units micro                              # units
dimension	3                            # dimension
boundary	p p p                        # boundary condition p: periodic
atom_style	sphere                       # atom style
#processors * * 1

####################### Parameter ##################################

variable ind equal ${num}
variable ind equal 3

#variable lat0 equal 1                    #
variable lat1 equal 3+(200*0.01)+(v_ind*0.01)  # .491+(v_ind*0.001)       # Lattice distance of bottom chain
variable lat2 equal 3                    # Lattice distance of top chain
variable d1 equal 3                      # Diamter of particle at bottom chain
variable d2 equal 3                      # Diamter of particle at top chain
#variable d3 equal 1                      # Diamter of supporting particle

variable n2e1 equal 500*v_lat2             # Half length of top chain. 1500 is number of particles
variable n1e1 equal 1.5*v_n2e1*(v_lat1/v_lat2)             # Half length of bottom chain, which is 1.5 time larger than top chain
variable n1e2 equal -v_n1e1
variable n2e2 equal -v_n2e1
#variable lenspr equal -(v_n2e1+100)           # length of the spring connecting top chain and supporting particle
#variable lenspr1 equal -v_lenspr-0.1         # Position of supporting particle upper bound
#variable lenspr2 equal -v_lenspr+0.1         # Position of supporting particle lower bound

variable den equal 2.2 #grams/cm^3      # micrometer^3=10^-12 cm^3 Density of materials

variable V1 equal (1/6)*PI*(v_d1^3)     # Volume of particle 1
variable V2 equal (1/6)*PI*(v_d2^3)     # Volume of particle 2
#variable V3 equal (1/6)*PI*(v_d3^3)     # Volume of particle 3

variable mass1 equal v_den*v_V1  # Mass of particle 1 (picograms)
variable mass2 equal v_den*v_V2  # Mass of particle 2
#variable mass3 equal v_den*v_V3  # Mass of particle 3

# E GPa to picogram/(micrometer-microsecond^2)= 10^3 Pa= 10^-6 GPa
# Force unit(picogram-micrometer/microsecond^2)=10^-9 N= 1nN
# Spring stiffness (force/distance) 10^-3 N/m

variable K0 equal (1500/50)*(10^5)             # Spring stiffness conneting top chain and sup particle
variable E equal 100*(10^6)                    # Young's Modulus using for Hertz/material model
variable PR equal 0.3                          # Poisson's ratio using for Hertz/material model
variable Fn equal -1000                        # Force apply to each particles in top chain
variable dt equal 0.00001                      # Time step units microsecond
variable lgv equal 0.5                         #damping for langevin thermostat for slider


################### Creating the model #################################
lattice sc ${lat1}                                                               # Bottom chain type1
lattice sc 5.03                                                               
Lattice spacing in x,y,z = 5.03 5.03 5.03

region box block ${n1e2} ${n1e1} -100 100 -100 100 units box
region box block -3772.5 ${n1e1} -100 100 -100 100 units box
region box block -3772.5 3772.5 -100 100 -100 100 units box
region substrate block ${n1e2} ${n1e1} -0.5 0.5 0 0.5 units box
region substrate block -3772.5 ${n1e1} -0.5 0.5 0 0.5 units box
region substrate block -3772.5 3772.5 -0.5 0.5 0 0.5 units box

create_box 2 box
Created orthogonal box = (-3772.5 -100 -100) to (3772.5 100 100)
  4 by 1 by 1 MPI processor grid
create_atoms 1 region substrate
Created 1500 atoms
  using lattice units in orthogonal box = (-3772.5 -100 -100) to (3772.5 100 100)
  create_atoms CPU = 0.001 seconds

lattice sc ${lat2}                                                             # Top chain type2
lattice sc 3                                                             
Lattice spacing in x,y,z = 3 3 3

region slider1 block ${n2e2} ${n2e1} -0.1 0.1 5.9 6.1 units box
region slider1 block -1500 ${n2e1} -0.1 0.1 5.9 6.1 units box
region slider1 block -1500 1500 -0.1 0.1 5.9 6.1 units box

create_atoms 2 region slider1
Created 1001 atoms
  using lattice units in orthogonal box = (-3772.5 -100 -100) to (3772.5 100 100)
  create_atoms CPU = 0.001 seconds

#lattice sc ${lat0}                                                             # Supporting particle type3

#region support block ${lenspr1} ${lenspr2} -0.1 0.1 7.9 8.1 units box

#create_atoms 3 region support

set type 1 diameter ${d1}                    # Set mass and diameter for each particles type
set type 1 diameter 3                    
Setting atom values ...
  1500 settings made for diameter
set type 1 mass ${mass1}
set type 1 mass 31.101767270539
Setting atom values ...
  1500 settings made for mass
set type 2 diameter ${d2}
set type 2 diameter 3
Setting atom values ...
  1001 settings made for diameter
set type 2 mass ${mass2}
set type 2 mass 31.101767270539
Setting atom values ...
  1001 settings made for mass
#set type 3 diameter ${d3}
#set type 3 mass ${mass3}

group substrate region substrate           # Define gorup
1500 atoms in group substrate
group slider1 region slider1
1001 atoms in group slider1
#group support region support
#group substrate_slider union substrate slider1

########################## Potential ###################################
pair_style granular
pair_coeff 1 1 hertz/material 0.00000001 0.001 ${PR} tangential mindlin NULL 0.1 0.01 damping viscoelastic              ########### set E between each particle in same type is small to neglect their interaction
pair_coeff 1 1 hertz/material 0.00000001 0.001 0.3 tangential mindlin NULL 0.1 0.01 damping viscoelastic              
pair_coeff 2 2 hertz/material 0.00000001 0.001 ${PR} tangential mindlin NULL 0.1 0.01 damping viscoelastic
pair_coeff 2 2 hertz/material 0.00000001 0.001 0.3 tangential mindlin NULL 0.1 0.01 damping viscoelastic
#pair_coeff 3 3 hertz/material ${E} 0.001 ${PR} tangential mindlin NULL 0.1 0.01 damping viscoelastic
pair_coeff 1 2 hertz/material ${E} 0.001 ${PR} tangential mindlin NULL 0.1 0.01 damping viscoelastic
pair_coeff 1 2 hertz/material 100000000 0.001 ${PR} tangential mindlin NULL 0.1 0.01 damping viscoelastic
pair_coeff 1 2 hertz/material 100000000 0.001 0.3 tangential mindlin NULL 0.1 0.01 damping viscoelastic
#pair_coeff 1 3 hertz/material 0.00000001 0.001 ${PR} tangential mindlin NULL 0.1 0.01 damping viscoelastic
#pair_coeff 2 3 hertz/material 0.00000001 0.001 ${PR} tangential mindlin NULL 0.1 0.01 damping viscoelastic
comm_modify     vel yes
neigh_modify    delay 0 every 1 check yes

### Compute properties ###

compute 1 slider1 com                      # Compute the center of mass of top chain
#compute 2 support com                      # Compute the center of mass of supporting particle

variable p0 equal "step"

variable slider_z equal "c_1[3]"          # output the position of top chain in z-direction

#variable distance equal "c_2[1]-c_1[1]"   # Distance between COM of top chain and supporting particle

thermo 100000
thermo_style custom step lx ly lz press pxx pyy pzz ke pe temp c_1[1] c_1[2] c_1[3] #c_2[1] c_2[2] c_2[3] v_distance

############### Fix ##################


############## Equilibrium the system with apply force ########################

fix force_slider1 slider1 setforce NULL 0 NULL                                # Fix top chain not to move in y-direction

fix f_sub substrate freeze                                                    # Freeze the bottom chain

fix rigid_top slider1 rigid/nve group 1 slider1 langevin 0 0 ${lgv} 6987532   # NVE+langevin
fix rigid_top slider1 rigid/nve group 1 slider1 langevin 0 0 0.5 6987532   
  1 rigid bodies with 1001 atoms

fix add slider1 addforce 0 0 ${Fn} every 1                                    # Add force to top layer
fix add slider1 addforce 0 0 -1000 every 1                                    

timestep ${dt}
timestep 1e-05

# fix  nve_1 slider1 nve

dump 		D1 all custom 100000 Equi_${num}_*.dump id type diameter mass xu yu zu fx fy fz
dump 		D1 all custom 100000 Equi_3_*.dump id type diameter mass xu yu zu fx fy fz

run 3000000
Generated 0 of 1 mixed pair_coeff terms from geometric mixing rule
Neighbor list info ...
  update every 1 steps, delay 0 steps, check yes
  max neighbors/atom: 2000, page size: 100000
  master list distance cutoff = 3.1
  ghost atom cutoff = 3.1
  binsize = 1.55, bins = 4868 130 130
  1 neighbor lists, perpetual/occasional/extra = 1 0 0
  (1) pair granular, perpetual
      attributes: half, newton on, size, history
      pair build: half/size/bin/newton
      stencil: half/bin/3d
      bin: standard
Per MPI rank memory allocation (min/avg/max) = 97.82 | 97.82 | 97.83 Mbytes
   Step           Lx             Ly             Lz           Press           Pxx            Pyy            Pzz           KinEng         PotEng          Temp          c_1[1]         c_1[2]         c_1[3]    
         0   7545           200            200            0              0              0              0              0              0              0              1.1965779e-13  0              6            
    100000   7545           200            200            0.0026837368   5.3531889e-36  0              0.0080512103   581450.84      0              5.615236e+10   1.1965779e-13  0              3.3293528    
    200000   7545           200            200            0.00092772707  1.3382947e-36  0              0.0027831812   136318.33      0              1.3164648e+10  1.1965779e-13  0              3.0792044    
    300000   7545           200            200            2.6174482e-05  1.0706383e-35  0              7.8523446e-05  234.85919      0              22681020       1.1965779e-13  0              3.0450561    
    400000   7545           200            200            7.646661e-05  -3.2118902e-35  0              0.00022939983  1906.9218      0              1.8415686e+08  1.1965779e-13  0              3.0045073    
    500000   7545           200            200            0.0042866889  -0.0062964974   0              0.019156564    589.76226      0              56955018       1.1965779e-13  0              2.992635     
    600000   7545           200            200            0.0011552777  -0.0030110876   0              0.0064769208   20.840722      0              2012647.7      1.1965779e-13  0              2.995712     
    700000   7545           200            200            0.002892229   -0.002709868    0              0.011386555    0.060649814    0              5857.1249      1.1965779e-13  0              2.9943333    
    800000   7545           200            200            0.0022550984  -0.0027298364   0              0.0094951315   1.0001094      0              96583.41       1.1965779e-13  0              2.9948246    
    900000   7545           200            200            0.0024302084  -0.0027382951   0              0.01002892     0.36160681     0              34921.397      1.1965779e-13  0              2.9946796    
   1000000   7545           200            200            0.0023973042  -0.0027373823   0              0.009929295    0.065733589    0              6348.0796      1.1965779e-13  0              2.9947071    
   1100000   7545           200            200            0.0023948574  -0.0027373354   0              0.0099219077   0.0073844339   0              713.13577      1.1965779e-13  0              2.9947087    
   1200000   7545           200            200            0.0024009193  -0.0027374828   0              0.0099402407   0.0004565153   0              44.08698       1.1965779e-13  0              2.9947039    
   1300000   7545           200            200            0.0023973077  -0.0027373929   0              0.0099293161   5.3562385e-06  0              0.51726717     1.1965779e-13  0              2.9947068    
   1400000   7545           200            200            0.0023988413  -0.0027374313   0              0.0099339552   1.8899913e-06  0              0.18252184     1.1965779e-13  0              2.9947056    
   1500000   7545           200            200            0.0023983301  -0.0027374184   0              0.0099324088   1.4567747e-06  0              0.14068488     1.1965779e-13  0              2.994706     
   1600000   7545           200            200            0.002398456   -0.0027374216   0              0.0099327897   3.6026356e-07  0              0.034791676    1.1965779e-13  0              2.9947059    
   1700000   7545           200            200            0.002398443   -0.0027374212   0              0.0099327503   5.1940833e-08  0              0.0050160739   1.1965779e-13  0              2.9947059    
   1800000   7545           200            200            0.0023984345  -0.002737421    0              0.0099327246   4.5421692e-09  0              0.00043865019  1.1965779e-13  0              2.9947059    
   1900000   7545           200            200            0.0023984418  -0.0027374212   0              0.0099327466   1.724412e-10   0              1.6653136e-05  1.1965779e-13  0              2.9947059    
   2000000   7545           200            200            0.0023984382  -0.0027374211   0              0.0099327357   2.9367779e-13  0              2.8361298e-08  1.1965779e-13  0              2.9947059    
   2100000   7545           200            200            0.0023984396  -0.0027374212   0              0.0099327399   4.5096821e-12  0              4.3551281e-07  1.1965779e-13  0              2.9947059    
   2200000   7545           200            200            0.0023984392  -0.0027374212   0              0.0099327387   1.7137217e-12  0              1.6549897e-07  1.1965779e-13  0              2.9947059    
   2300000   7545           200            200            0.0023984392  -0.0027374212   0              0.0099327389   3.2007165e-13  0              3.0910229e-08  1.1965779e-13  0              2.9947059    
   2400000   7545           200            200            0.0023984392  -0.0027374212   0              0.0099327389   3.6596667e-14  0              3.5342441e-09  1.1965779e-13  0              2.9947059    
   2500000   7545           200            200            0.0023984392  -0.0027374212   0              0.0099327389   2.2584278e-15  0              2.181028e-10   1.1965779e-13  0              2.9947059    
   2600000   7545           200            200            0.0023984392  -0.0027374212   0              0.0099327389   3.9687007e-17  0              3.832687e-12   1.1965779e-13  0              2.9947059    
   2700000   7545           200            200            0.0023984392  -0.0027374212   0              0.0099327389   9.4890133e-18  0              9.1638098e-13  1.1965779e-13  0              2.9947059    
   2800000   7545           200            200            0.0023984392  -0.0027374212   0              0.0099327389   9.9184805e-18  0              9.5785585e-13  1.1965779e-13  0              2.9947059    
   2900000   7545           200            200            0.0023984392  -0.0027374212   0              0.0099327389   7.7071598e-18  0              7.4430233e-13  1.1965779e-13  0              2.9947059    
   3000000   7545           200            200            0.0023984392  -0.0027374212   0              0.0099327389   1.5171219e-18  0              1.4651277e-13  1.1965779e-13  0              2.9947059    
Loop time of 301.694 on 4 procs for 3000000 steps with 2501 atoms

Performance: 8591481.231 ns/day, 0.000 hours/ns, 9943.844 timesteps/s
100.0% CPU use with 4 MPI tasks x 1 OpenMP threads

MPI task timing breakdown:
Section |  min time  |  avg time  |  max time  |%varavg| %total
---------------------------------------------------------------
Pair    | 11.244     | 38.391     | 65.716     | 437.6 | 12.73
Neigh   | 4.7023     | 4.785      | 4.8702     |   3.4 |  1.59
Comm    | 19.605     | 40.983     | 82.055     | 377.9 | 13.58
Output  | 0.27183    | 0.27216    | 0.27253    |   0.1 |  0.09
Modify  | 111.14     | 160.34     | 178.7      | 224.9 | 53.15
Other   |            | 56.92      |            |       | 18.87

Nlocal:         625.25 ave         876 max         375 min
Histogram: 2 0 0 0 0 0 0 0 0 2
Nghost:           1.75 ave           3 max           1 min
Histogram: 2 0 0 0 0 1 0 0 0 1
Neighs:         328.25 ave         657 max           0 min
Histogram: 2 0 0 0 0 0 0 0 0 2

Total # of neighbors = 1313
Ave neighs/atom = 0.52499
Neighbor list builds = 164
Dangerous builds = 0

undump D1

############ Add spring between top chain to supp particle and then equilibrium  ###########

#fix sp1 support spring couple slider1 ${K0} ${lenspr} NULL NULL 0                                 # Add spring

#dump 		D2 all custom 100000 add_${num}*.dump id type diameter mass xu yu zu

#fix add1 all print 10 "${p0} ${distance} ${slider_z}" file add_distance_${num}.txt screen no      # out put step, distance(spring length), z-position of top chain

#run 1000000

#undump D2

#unfix add1

########## Pulling the supporting particle with constant velocity #############

#fix m1 support move linear 0.1 0 0 units box                                                      # apply constant velocity to supporting particles along x-direction V=0.1m/s

#fix move1 all print 100 "${p0} ${distance} ${slider_z}" file move_distance_${num}.txt screen no

#dump 		1 all custom 50000 move_${num}_*.dump id type diameter mass xu yu zu

#run 1000000

clear
  using 1 OpenMP thread(s) per MPI task

next num

jump SELF startloop

include granular.in
### Simulation of contact between two chain

##################### Simulation setup ####################

units micro                              # units
dimension	3                            # dimension
boundary	p p p                        # boundary condition p: periodic
atom_style	sphere                       # atom style
#processors * * 1

####################### Parameter ##################################

variable ind equal ${num}
variable ind equal 4

#variable lat0 equal 1                    #
variable lat1 equal 3+(200*0.01)+(v_ind*0.01)  # .491+(v_ind*0.001)       # Lattice distance of bottom chain
variable lat2 equal 3                    # Lattice distance of top chain
variable d1 equal 3                      # Diamter of particle at bottom chain
variable d2 equal 3                      # Diamter of particle at top chain
#variable d3 equal 1                      # Diamter of supporting particle

variable n2e1 equal 500*v_lat2             # Half length of top chain. 1500 is number of particles
variable n1e1 equal 1.5*v_n2e1*(v_lat1/v_lat2)             # Half length of bottom chain, which is 1.5 time larger than top chain
variable n1e2 equal -v_n1e1
variable n2e2 equal -v_n2e1
#variable lenspr equal -(v_n2e1+100)           # length of the spring connecting top chain and supporting particle
#variable lenspr1 equal -v_lenspr-0.1         # Position of supporting particle upper bound
#variable lenspr2 equal -v_lenspr+0.1         # Position of supporting particle lower bound

variable den equal 2.2 #grams/cm^3      # micrometer^3=10^-12 cm^3 Density of materials

variable V1 equal (1/6)*PI*(v_d1^3)     # Volume of particle 1
variable V2 equal (1/6)*PI*(v_d2^3)     # Volume of particle 2
#variable V3 equal (1/6)*PI*(v_d3^3)     # Volume of particle 3

variable mass1 equal v_den*v_V1  # Mass of particle 1 (picograms)
variable mass2 equal v_den*v_V2  # Mass of particle 2
#variable mass3 equal v_den*v_V3  # Mass of particle 3

# E GPa to picogram/(micrometer-microsecond^2)= 10^3 Pa= 10^-6 GPa
# Force unit(picogram-micrometer/microsecond^2)=10^-9 N= 1nN
# Spring stiffness (force/distance) 10^-3 N/m

variable K0 equal (1500/50)*(10^5)             # Spring stiffness conneting top chain and sup particle
variable E equal 100*(10^6)                    # Young's Modulus using for Hertz/material model
variable PR equal 0.3                          # Poisson's ratio using for Hertz/material model
variable Fn equal -1000                        # Force apply to each particles in top chain
variable dt equal 0.00001                      # Time step units microsecond
variable lgv equal 0.5                         #damping for langevin thermostat for slider


################### Creating the model #################################
lattice sc ${lat1}                                                               # Bottom chain type1
lattice sc 5.04                                                               
Lattice spacing in x,y,z = 5.04 5.04 5.04

region box block ${n1e2} ${n1e1} -100 100 -100 100 units box
region box block -3780 ${n1e1} -100 100 -100 100 units box
region box block -3780 3780 -100 100 -100 100 units box
region substrate block ${n1e2} ${n1e1} -0.5 0.5 0 0.5 units box
region substrate block -3780 ${n1e1} -0.5 0.5 0 0.5 units box
region substrate block -3780 3780 -0.5 0.5 0 0.5 units box

create_box 2 box
Created orthogonal box = (-3780 -100 -100) to (3780 100 100)
  4 by 1 by 1 MPI processor grid
create_atoms 1 region substrate
Created 1500 atoms
  using lattice units in orthogonal box = (-3780 -100 -100) to (3780 100 100)
  create_atoms CPU = 0.001 seconds

lattice sc ${lat2}                                                             # Top chain type2
lattice sc 3                                                             
Lattice spacing in x,y,z = 3 3 3

region slider1 block ${n2e2} ${n2e1} -0.1 0.1 5.9 6.1 units box
region slider1 block -1500 ${n2e1} -0.1 0.1 5.9 6.1 units box
region slider1 block -1500 1500 -0.1 0.1 5.9 6.1 units box

create_atoms 2 region slider1
Created 1001 atoms
  using lattice units in orthogonal box = (-3780 -100 -100) to (3780 100 100)
  create_atoms CPU = 0.001 seconds

#lattice sc ${lat0}                                                             # Supporting particle type3

#region support block ${lenspr1} ${lenspr2} -0.1 0.1 7.9 8.1 units box

#create_atoms 3 region support

set type 1 diameter ${d1}                    # Set mass and diameter for each particles type
set type 1 diameter 3                    
Setting atom values ...
  1500 settings made for diameter
set type 1 mass ${mass1}
set type 1 mass 31.101767270539
Setting atom values ...
  1500 settings made for mass
set type 2 diameter ${d2}
set type 2 diameter 3
Setting atom values ...
  1001 settings made for diameter
set type 2 mass ${mass2}
set type 2 mass 31.101767270539
Setting atom values ...
  1001 settings made for mass
#set type 3 diameter ${d3}
#set type 3 mass ${mass3}

group substrate region substrate           # Define gorup
1500 atoms in group substrate
group slider1 region slider1
1001 atoms in group slider1
#group support region support
#group substrate_slider union substrate slider1

########################## Potential ###################################
pair_style granular
pair_coeff 1 1 hertz/material 0.00000001 0.001 ${PR} tangential mindlin NULL 0.1 0.01 damping viscoelastic              ########### set E between each particle in same type is small to neglect their interaction
pair_coeff 1 1 hertz/material 0.00000001 0.001 0.3 tangential mindlin NULL 0.1 0.01 damping viscoelastic              
pair_coeff 2 2 hertz/material 0.00000001 0.001 ${PR} tangential mindlin NULL 0.1 0.01 damping viscoelastic
pair_coeff 2 2 hertz/material 0.00000001 0.001 0.3 tangential mindlin NULL 0.1 0.01 damping viscoelastic
#pair_coeff 3 3 hertz/material ${E} 0.001 ${PR} tangential mindlin NULL 0.1 0.01 damping viscoelastic
pair_coeff 1 2 hertz/material ${E} 0.001 ${PR} tangential mindlin NULL 0.1 0.01 damping viscoelastic
pair_coeff 1 2 hertz/material 100000000 0.001 ${PR} tangential mindlin NULL 0.1 0.01 damping viscoelastic
pair_coeff 1 2 hertz/material 100000000 0.001 0.3 tangential mindlin NULL 0.1 0.01 damping viscoelastic
#pair_coeff 1 3 hertz/material 0.00000001 0.001 ${PR} tangential mindlin NULL 0.1 0.01 damping viscoelastic
#pair_coeff 2 3 hertz/material 0.00000001 0.001 ${PR} tangential mindlin NULL 0.1 0.01 damping viscoelastic
comm_modify     vel yes
neigh_modify    delay 0 every 1 check yes

### Compute properties ###

compute 1 slider1 com                      # Compute the center of mass of top chain
#compute 2 support com                      # Compute the center of mass of supporting particle

variable p0 equal "step"

variable slider_z equal "c_1[3]"          # output the position of top chain in z-direction

#variable distance equal "c_2[1]-c_1[1]"   # Distance between COM of top chain and supporting particle

thermo 100000
thermo_style custom step lx ly lz press pxx pyy pzz ke pe temp c_1[1] c_1[2] c_1[3] #c_2[1] c_2[2] c_2[3] v_distance

############### Fix ##################


############## Equilibrium the system with apply force ########################

fix force_slider1 slider1 setforce NULL 0 NULL                                # Fix top chain not to move in y-direction

fix f_sub substrate freeze                                                    # Freeze the bottom chain

fix rigid_top slider1 rigid/nve group 1 slider1 langevin 0 0 ${lgv} 6987532   # NVE+langevin
fix rigid_top slider1 rigid/nve group 1 slider1 langevin 0 0 0.5 6987532   
  1 rigid bodies with 1001 atoms

fix add slider1 addforce 0 0 ${Fn} every 1                                    # Add force to top layer
fix add slider1 addforce 0 0 -1000 every 1                                    

timestep ${dt}
timestep 1e-05

# fix  nve_1 slider1 nve

dump 		D1 all custom 100000 Equi_${num}_*.dump id type diameter mass xu yu zu fx fy fz
dump 		D1 all custom 100000 Equi_4_*.dump id type diameter mass xu yu zu fx fy fz

run 3000000
Generated 0 of 1 mixed pair_coeff terms from geometric mixing rule
Neighbor list info ...
  update every 1 steps, delay 0 steps, check yes
  max neighbors/atom: 2000, page size: 100000
  master list distance cutoff = 3.1
  ghost atom cutoff = 3.1
  binsize = 1.55, bins = 4878 130 130
  1 neighbor lists, perpetual/occasional/extra = 1 0 0
  (1) pair granular, perpetual
      attributes: half, newton on, size, history
      pair build: half/size/bin/newton
      stencil: half/bin/3d
      bin: standard
Per MPI rank memory allocation (min/avg/max) = 97.97 | 98 | 98.03 Mbytes
   Step           Lx             Ly             Lz           Press           Pxx            Pyy            Pzz           KinEng         PotEng          Temp          c_1[1]         c_1[2]         c_1[3]    
         0   7560           200            200            0              0              0              0              0              0              0              1.1965779e-13  0              6            
    100000   7560           200            200            0.0026784673  -2.1370102e-35  0              0.008035402    581472.07      0              5.6154411e+10  1.1965779e-13  0              3.3293126    
    200000   7560           200            200            0.0009260955  -2.1370011e-35  0              0.0027782865   136367.79      0              1.3169425e+10  1.1965779e-13  0              3.0791386    
    300000   7560           200            200            2.6732474e-05  4.4051875e-40  0              8.0197421e-05  245.70532      0              23728461       1.1965779e-13  0              3.0450468    
[...]
   3000000   8970           200            200            0.0022862783  -0.0014938812   0              0.008352716    6.7606924e-18  0              6.5289928e-13  1.1965779e-13  0              2.9939606    
Loop time of 296.07 on 4 procs for 3000000 steps with 2501 atoms

Performance: 8754691.845 ns/day, 0.000 hours/ns, 10132.745 timesteps/s
100.0% CPU use with 4 MPI tasks x 1 OpenMP threads

MPI task timing breakdown:
Section |  min time  |  avg time  |  max time  |%varavg| %total
---------------------------------------------------------------
Pair    | 11.137     | 35.663     | 60.885     | 406.9 | 12.05
Neigh   | 5.571      | 5.6822     | 5.7969     |   4.3 |  1.92
Comm    | 20.74      | 41.443     | 79.333     | 348.4 | 14.00
Output  | 0.27385    | 0.27415    | 0.27449    |   0.1 |  0.09
Modify  | 108.84     | 156.99     | 176.54     | 223.5 | 53.03
Other   |            | 56.02      |            |       | 18.92

Nlocal:         625.25 ave         876 max         375 min
Histogram: 2 0 0 0 0 0 0 0 0 2
Nghost:           1.75 ave           3 max           1 min
Histogram: 2 0 0 0 0 1 0 0 0 1
Neighs:         309.25 ave         619 max           0 min
Histogram: 2 0 0 0 0 0 0 0 0 2

Total # of neighbors = 1237
Ave neighs/atom = 0.49460216
Neighbor list builds = 166
Dangerous builds = 0

undump D1

############ Add spring between top chain to supp particle and then equilibrium  ###########

#fix sp1 support spring couple slider1 ${K0} ${lenspr} NULL NULL 0                                 # Add spring

#dump 		D2 all custom 100000 add_${num}*.dump id type diameter mass xu yu zu

#fix add1 all print 10 "${p0} ${distance} ${slider_z}" file add_distance_${num}.txt screen no      # out put step, distance(spring length), z-position of top chain

#run 1000000

#undump D2

#unfix add1

########## Pulling the supporting particle with constant velocity #############

#fix m1 support move linear 0.1 0 0 units box                                                      # apply constant velocity to supporting particles along x-direction V=0.1m/s

#fix move1 all print 100 "${p0} ${distance} ${slider_z}" file move_distance_${num}.txt screen no

#dump 		1 all custom 50000 move_${num}_*.dump id type diameter mass xu yu zu

#run 1000000

clear
  using 1 OpenMP thread(s) per MPI task

next num

jump SELF startloop

include granular.in
### Simulation of contact between two chain

##################### Simulation setup ####################

units micro                              # units
dimension	3                            # dimension
boundary	p p p                        # boundary condition p: periodic
atom_style	sphere                       # atom style
#processors * * 1

####################### Parameter ##################################

variable ind equal ${num}
variable ind equal 99

#variable lat0 equal 1                    #
variable lat1 equal 3+(200*0.01)+(v_ind*0.01)  # .491+(v_ind*0.001)       # Lattice distance of bottom chain
variable lat2 equal 3                    # Lattice distance of top chain
variable d1 equal 3                      # Diamter of particle at bottom chain
variable d2 equal 3                      # Diamter of particle at top chain
#variable d3 equal 1                      # Diamter of supporting particle

variable n2e1 equal 500*v_lat2             # Half length of top chain. 1500 is number of particles
variable n1e1 equal 1.5*v_n2e1*(v_lat1/v_lat2)             # Half length of bottom chain, which is 1.5 time larger than top chain
variable n1e2 equal -v_n1e1
variable n2e2 equal -v_n2e1
#variable lenspr equal -(v_n2e1+100)           # length of the spring connecting top chain and supporting particle
#variable lenspr1 equal -v_lenspr-0.1         # Position of supporting particle upper bound
#variable lenspr2 equal -v_lenspr+0.1         # Position of supporting particle lower bound

variable den equal 2.2 #grams/cm^3      # micrometer^3=10^-12 cm^3 Density of materials

variable V1 equal (1/6)*PI*(v_d1^3)     # Volume of particle 1
variable V2 equal (1/6)*PI*(v_d2^3)     # Volume of particle 2
#variable V3 equal (1/6)*PI*(v_d3^3)     # Volume of particle 3

variable mass1 equal v_den*v_V1  # Mass of particle 1 (picograms)
variable mass2 equal v_den*v_V2  # Mass of particle 2
#variable mass3 equal v_den*v_V3  # Mass of particle 3

# E GPa to picogram/(micrometer-microsecond^2)= 10^3 Pa= 10^-6 GPa
# Force unit(picogram-micrometer/microsecond^2)=10^-9 N= 1nN
# Spring stiffness (force/distance) 10^-3 N/m

variable K0 equal (1500/50)*(10^5)             # Spring stiffness conneting top chain and sup particle
variable E equal 100*(10^6)                    # Young's Modulus using for Hertz/material model
variable PR equal 0.3                          # Poisson's ratio using for Hertz/material model
variable Fn equal -1000                        # Force apply to each particles in top chain
variable dt equal 0.00001                      # Time step units microsecond
variable lgv equal 0.5                         #damping for langevin thermostat for slider


################### Creating the model #################################
lattice sc ${lat1}                                                               # Bottom chain type1
lattice sc 5.99                                                               
Lattice spacing in x,y,z = 5.99 5.99 5.99

region box block ${n1e2} ${n1e1} -100 100 -100 100 units box
region box block -4492.5 ${n1e1} -100 100 -100 100 units box
region box block -4492.5 4492.5 -100 100 -100 100 units box
region substrate block ${n1e2} ${n1e1} -0.5 0.5 0 0.5 units box
region substrate block -4492.5 ${n1e1} -0.5 0.5 0 0.5 units box
region substrate block -4492.5 4492.5 -0.5 0.5 0 0.5 units box

create_box 2 box
Created orthogonal box = (-4492.5 -100 -100) to (4492.5 100 100)
  4 by 1 by 1 MPI processor grid
create_atoms 1 region substrate
Created 1500 atoms
  using lattice units in orthogonal box = (-4492.5 -100 -100) to (4492.5 100 100)
  create_atoms CPU = 0.001 seconds

lattice sc ${lat2}                                                             # Top chain type2
lattice sc 3                                                             
Lattice spacing in x,y,z = 3 3 3

region slider1 block ${n2e2} ${n2e1} -0.1 0.1 5.9 6.1 units box
region slider1 block -1500 ${n2e1} -0.1 0.1 5.9 6.1 units box
region slider1 block -1500 1500 -0.1 0.1 5.9 6.1 units box

create_atoms 2 region slider1
Created 1001 atoms
  using lattice units in orthogonal box = (-4492.5 -100 -100) to (4492.5 100 100)
  create_atoms CPU = 0.001 seconds

#lattice sc ${lat0}                                                             # Supporting particle type3

#region support block ${lenspr1} ${lenspr2} -0.1 0.1 7.9 8.1 units box

#create_atoms 3 region support

set type 1 diameter ${d1}                    # Set mass and diameter for each particles type
set type 1 diameter 3                    
Setting atom values ...
  1500 settings made for diameter
set type 1 mass ${mass1}
set type 1 mass 31.101767270539
Setting atom values ...
  1500 settings made for mass
set type 2 diameter ${d2}
set type 2 diameter 3
Setting atom values ...
  1001 settings made for diameter
set type 2 mass ${mass2}
set type 2 mass 31.101767270539
Setting atom values ...
  1001 settings made for mass
#set type 3 diameter ${d3}
#set type 3 mass ${mass3}

group substrate region substrate           # Define gorup
1500 atoms in group substrate
group slider1 region slider1
1001 atoms in group slider1
#group support region support
#group substrate_slider union substrate slider1

########################## Potential ###################################
pair_style granular
pair_coeff 1 1 hertz/material 0.00000001 0.001 ${PR} tangential mindlin NULL 0.1 0.01 damping viscoelastic              ########### set E between each particle in same type is small to neglect their interaction
pair_coeff 1 1 hertz/material 0.00000001 0.001 0.3 tangential mindlin NULL 0.1 0.01 damping viscoelastic              
pair_coeff 2 2 hertz/material 0.00000001 0.001 ${PR} tangential mindlin NULL 0.1 0.01 damping viscoelastic
pair_coeff 2 2 hertz/material 0.00000001 0.001 0.3 tangential mindlin NULL 0.1 0.01 damping viscoelastic
#pair_coeff 3 3 hertz/material ${E} 0.001 ${PR} tangential mindlin NULL 0.1 0.01 damping viscoelastic
pair_coeff 1 2 hertz/material ${E} 0.001 ${PR} tangential mindlin NULL 0.1 0.01 damping viscoelastic
pair_coeff 1 2 hertz/material 100000000 0.001 ${PR} tangential mindlin NULL 0.1 0.01 damping viscoelastic
pair_coeff 1 2 hertz/material 100000000 0.001 0.3 tangential mindlin NULL 0.1 0.01 damping viscoelastic
#pair_coeff 1 3 hertz/material 0.00000001 0.001 ${PR} tangential mindlin NULL 0.1 0.01 damping viscoelastic
#pair_coeff 2 3 hertz/material 0.00000001 0.001 ${PR} tangential mindlin NULL 0.1 0.01 damping viscoelastic
comm_modify     vel yes
neigh_modify    delay 0 every 1 check yes

### Compute properties ###

compute 1 slider1 com                      # Compute the center of mass of top chain
#compute 2 support com                      # Compute the center of mass of supporting particle

variable p0 equal "step"

variable slider_z equal "c_1[3]"          # output the position of top chain in z-direction

#variable distance equal "c_2[1]-c_1[1]"   # Distance between COM of top chain and supporting particle

thermo 100000
thermo_style custom step lx ly lz press pxx pyy pzz ke pe temp c_1[1] c_1[2] c_1[3] #c_2[1] c_2[2] c_2[3] v_distance

############### Fix ##################


############## Equilibrium the system with apply force ########################

fix force_slider1 slider1 setforce NULL 0 NULL                                # Fix top chain not to move in y-direction

fix f_sub substrate freeze                                                    # Freeze the bottom chain

fix rigid_top slider1 rigid/nve group 1 slider1 langevin 0 0 ${lgv} 6987532   # NVE+langevin
fix rigid_top slider1 rigid/nve group 1 slider1 langevin 0 0 0.5 6987532   
  1 rigid bodies with 1001 atoms

fix add slider1 addforce 0 0 ${Fn} every 1                                    # Add force to top layer
fix add slider1 addforce 0 0 -1000 every 1                                    

timestep ${dt}
timestep 1e-05

# fix  nve_1 slider1 nve

dump 		D1 all custom 100000 Equi_${num}_*.dump id type diameter mass xu yu zu fx fy fz
dump 		D1 all custom 100000 Equi_99_*.dump id type diameter mass xu yu zu fx fy fz

run 3000000
Generated 0 of 1 mixed pair_coeff terms from geometric mixing rule
Neighbor list info ...
  update every 1 steps, delay 0 steps, check yes
  max neighbors/atom: 2000, page size: 100000
  master list distance cutoff = 3.1
  ghost atom cutoff = 3.1
  binsize = 1.55, bins = 5797 130 130
  1 neighbor lists, perpetual/occasional/extra = 1 0 0
  (1) pair granular, perpetual
      attributes: half, newton on, size, history
      pair build: half/size/bin/newton
      stencil: half/bin/3d
      bin: standard
Per MPI rank memory allocation (min/avg/max) = 114 | 114 | 114 Mbytes
   Step           Lx             Ly             Lz           Press           Pxx            Pyy            Pzz           KinEng         PotEng          Temp          c_1[1]         c_1[2]         c_1[3]    
         0   8985           200            200            0              0              0              0              0              0              0              1.1965779e-13  0              6            
    100000   8985           200            200            0.0022271155  -8.99041e-36    0              0.0066813466   571286.59      0              5.517077e+10   1.1965779e-13  0              3.336968     
    200000   8985           200            200            0.00071549985  8.9904707e-36  0              0.0021464996   119253.44      0              1.1516644e+10  1.1965779e-13  0              3.0926604    
    300000   8985           200            200           -7.0115063e-05  5.4770673e-41  0             -0.00021034519  2874.7407      0              2.7762189e+08  1.1965779e-13  0              3.0377871    
    400000   8985           200            200            0.001035938   -0.017469329    0              0.020577143    5886.9306      0              5.6851762e+08  1.1965779e-13  0              2.9882803    
    500000   8985           200            200            0.0023414077  -0.0057044938   0              0.012728717    845.64466      0              81666308       1.1965779e-13  0              2.9908988    
    600000   8985           200            200            0.0011218615  -0.0028595012   0              0.0062250858   38.597493      0              3727469.6      1.1965779e-13  0              2.9936206    
    700000   8985           200            200            0.0013284494  -0.003588291    0              0.0075736391   7.0931661      0              685007.21      1.1965779e-13  0              2.9929426    
    800000   8985           200            200            0.0015380596  -0.0037412915   0              0.0083554702   3.05539        0              295067.69      1.1965779e-13  0              2.9925886    
    900000   8985           200            200            0.0015668758  -0.0037465305   0              0.0084471578   0.076473046    0              7385.2194      1.1965779e-13  0              2.9925507    
   1000000   8985           200            200            0.001545488   -0.0037369395   0              0.0083734035   0.017116965    0              1653.034       1.1965779e-13  0              2.9925841    
   1100000   8985           200            200            0.001534134   -0.0037321463   0              0.0083345483   0.0075358163   0              727.7552       1.1965779e-13  0              2.9926012    
   1200000   8985           200            200            0.0015326499  -0.0037316918   0              0.0083296417   0.00024626454  0              23.782466      1.1965779e-13  0              2.9926033    
   1300000   8985           200            200            0.0015336329  -0.0037320899   0              0.0083329886   3.2305991e-05  0              3.1198814      1.1965779e-13  0              2.9926018    
   1400000   8985           200            200            0.001534208   -0.0037323146   0              0.0083349386   1.8526102e-05  0              1.7891183      1.1965779e-13  0              2.9926009    
   1500000   8985           200            200            0.0015342964  -0.0037323474   0              0.0083352364   7.8771322e-07  0              0.076071704    1.1965779e-13  0              2.9926008    
   1600000   8985           200            200            0.0015342527  -0.0037323296   0              0.0083350877   5.7518602e-08  0              0.0055547349   1.1965779e-13  0              2.9926008    
   1700000   8985           200            200            0.001534224   -0.0037323184   0              0.0083349903   4.4955304e-08  0              0.0043414615   1.1965779e-13  0              2.9926009    
   1800000   8985           200            200            0.0015342188  -0.0037323165   0              0.0083349729   2.4150242e-09  0              0.00023322575  1.1965779e-13  0              2.9926009    
   1900000   8985           200            200            0.0015342207  -0.0037323172   0              0.0083349794   9.4663033e-11  0              9.1418782e-06  1.1965779e-13  0              2.9926009    
   2000000   8985           200            200            0.0015342221  -0.0037323178   0              0.0083349842   1.0763894e-10  0              1.0394999e-05  1.1965779e-13  0              2.9926009    
   2100000   8985           200            200            0.0015342224  -0.0037323179   0              0.0083349852   7.1598646e-12  0              6.9144848e-07  1.1965779e-13  0              2.9926009    
   2200000   8985           200            200            0.0015342223  -0.0037323179   0              0.0083349849   1.3794508e-13  0              1.3321748e-08  1.1965779e-13  0              2.9926009    
   2300000   8985           200            200            0.0015342223  -0.0037323179   0              0.0083349847   2.5407289e-13  0              2.4536541e-08  1.1965779e-13  0              2.9926009    
   2400000   8985           200            200            0.0015342223  -0.0037323178   0              0.0083349846   2.0608913e-14  0              1.9902613e-09  1.1965779e-13  0              2.9926009    
   2500000   8985           200            200            0.0015342223  -0.0037323179   0              0.0083349846   2.1050789e-16  0              2.0329346e-11  1.1965779e-13  0              2.9926009    
   2600000   8985           200            200            0.0015342223  -0.0037323179   0              0.0083349847   5.7479079e-16  0              5.5509181e-11  1.1965779e-13  0              2.9926009    
   2700000   8985           200            200            0.0015342223  -0.0037323179   0              0.0083349847   7.9562752e-17  0              7.6836011e-12  1.1965779e-13  0              2.9926009    
   2800000   8985           200            200            0.0015342223  -0.0037323179   0              0.0083349847   4.4218026e-19  0              4.2702604e-14  1.1965779e-13  0              2.9926009    
   2900000   8985           200            200            0.0015342223  -0.0037323179   0              0.0083349847   7.3959749e-18  0              7.1425032e-13  1.1965779e-13  0              2.9926009    
   3000000   8985           200            200            0.0015342223  -0.0037323178   0              0.0083349847   2.236073e-19   0              2.1594392e-14  1.1965779e-13  0              2.9926009    
Loop time of 296.794 on 4 procs for 3000000 steps with 2501 atoms

Performance: 8733317.362 ns/day, 0.000 hours/ns, 10108.006 timesteps/s
100.0% CPU use with 4 MPI tasks x 1 OpenMP threads

MPI task timing breakdown:
Section |  min time  |  avg time  |  max time  |%varavg| %total
---------------------------------------------------------------
Pair    | 11.098     | 34.562     | 58.65      | 398.5 | 11.64
Neigh   | 5.5421     | 5.643      | 5.7474     |   3.9 |  1.90
Comm    | 20.876     | 40.899     | 77.166     | 336.1 | 13.78
Output  | 0.27419    | 0.27452    | 0.27491    |   0.1 |  0.09
Modify  | 110.16     | 158.51     | 178.93     | 225.1 | 53.41
Other   |            | 56.91      |            |       | 19.17

Nlocal:         625.25 ave         876 max         375 min
Histogram: 2 0 0 0 0 0 0 0 0 2
Nghost:           1.75 ave           3 max           1 min
Histogram: 2 0 0 0 0 1 0 0 0 1
Neighs:         303.75 ave         608 max           0 min
Histogram: 2 0 0 0 0 0 0 0 0 2

Total # of neighbors = 1215
Ave neighs/atom = 0.48580568
Neighbor list builds = 164
Dangerous builds = 0

undump D1

############ Add spring between top chain to supp particle and then equilibrium  ###########

#fix sp1 support spring couple slider1 ${K0} ${lenspr} NULL NULL 0                                 # Add spring

#dump 		D2 all custom 100000 add_${num}*.dump id type diameter mass xu yu zu

#fix add1 all print 10 "${p0} ${distance} ${slider_z}" file add_distance_${num}.txt screen no      # out put step, distance(spring length), z-position of top chain

#run 1000000

#undump D2

#unfix add1

########## Pulling the supporting particle with constant velocity #############

#fix m1 support move linear 0.1 0 0 units box                                                      # apply constant velocity to supporting particles along x-direction V=0.1m/s

#fix move1 all print 100 "${p0} ${distance} ${slider_z}" file move_distance_${num}.txt screen no

#dump 		1 all custom 50000 move_${num}_*.dump id type diameter mass xu yu zu

#run 1000000

clear
  using 1 OpenMP thread(s) per MPI task

next num

jump SELF startloop
Total wall time: 8:18:35
