ITEM: TIMESTEP
1700000
ITEM: NUMBER OF ATOMS
51
ITEM: BOX BOUNDS pp pp pp
-6.7200000000000003e+01 6.7200000000000003e+01
-1.0000000000000000e+02 1.0000000000000000e+02
-1.0000000000000000e+02 1.0000000000000000e+02
ITEM: ATOMS id type diameter mass xu yu zu fx fy fz
1 1 3 31.1018 -67.2 0 0 0 0 0
2 1 3 31.1018 -62.72 0 0 0 0 0
3 1 3 31.1018 -58.24 0 0 0 0 0
4 1 3 31.1018 -53.76 0 0 0 0 0
5 1 3 31.1018 -49.28 0 0 0 0 0
6 1 3 31.1018 -44.8 0 0 0 0 0
7 1 3 31.1018 -40.32 0 0 0 0 0
8 1 3 31.1018 -35.84 0 0 0 0 0
9 1 3 31.1018 -31.36 0 0 0 0 0
10 1 3 31.1018 -26.88 0 0 0 0 0
11 1 3 31.1018 -22.4 0 0 0 0 0
12 1 3 31.1018 -17.92 0 0 0 0 0
13 1 3 31.1018 -13.44 0 0 0 0 0
14 1 3 31.1018 -8.96 0 0 0 0 0
15 1 3 31.1018 -4.48 0 0 0 0 0
16 1 3 31.1018 0 0 0 0 0 0
17 1 3 31.1018 4.48 0 0 0 0 0
18 1 3 31.1018 8.96 0 0 0 0 0
19 1 3 31.1018 13.44 0 0 0 0 0
20 1 3 31.1018 17.92 0 0 0 0 0
21 1 3 31.1018 22.4 0 0 0 0 0
22 1 3 31.1018 26.88 0 0 0 0 0
23 1 3 31.1018 31.36 0 0 0 0 0
24 1 3 31.1018 35.84 0 0 0 0 0
25 1 3 31.1018 40.32 0 0 0 0 0
26 1 3 31.1018 44.8 0 0 0 0 0
27 1 3 31.1018 49.28 0 0 0 0 0
28 1 3 31.1018 53.76 0 0 0 0 0
29 1 3 31.1018 58.24 0 0 0 0 0
30 1 3 31.1018 62.72 0 0 0 0 0
31 2 3 31.1018 -30 0 2.99786 0 0 -1000
32 2 3 31.1018 -27 0 2.99786 0 0 -1000
33 2 3 31.1018 -24 0 2.99786 0 0 -1000
34 2 3 31.1018 -21 0 2.99786 0 0 -1000
35 2 3 31.1018 -18 0 2.99786 -52.1866 0 1224.45
36 2 3 31.1018 -15 0 2.99786 0 0 -1000
37 2 3 31.1018 -12 0 2.99786 0 0 -1000
38 2 3 31.1018 -9 0 2.99786 -35.0933 0 4137.97
39 2 3 31.1018 -6 0 2.99786 0 0 -1000
40 2 3 31.1018 -3 0 2.99786 0 0 -1000
41 2 3 31.1018 -3.76076e-19 0 2.99786 2.53794e-13 0 5274.96
42 2 3 31.1018 3 0 2.99786 0 0 -1000
43 2 3 31.1018 6 0 2.99786 0 0 -1000
44 2 3 31.1018 9 0 2.99786 35.0933 0 4137.97
45 2 3 31.1018 12 0 2.99786 0 0 -1000
46 2 3 31.1018 15 0 2.99786 0 0 -1000
47 2 3 31.1018 18 0 2.99786 52.1866 0 1224.45
48 2 3 31.1018 21 0 2.99786 0 0 -1000
49 2 3 31.1018 24 0 2.99786 0 0 -1000
50 2 3 31.1018 27 0 2.99786 0 0 -1000
51 2 3 31.1018 30 0 2.99786 0 0 -1000
