LAMMPS (23 Jun 2022 - Update 1)
  using 1 OpenMP thread(s) per MPI task
Lattice spacing in x,y,z = 3.51 3.51 3.51
Created orthogonal box = (-52.65 -100 -100) to (52.65 100 100)
  1 by 2 by 2 MPI processor grid
Created 30 atoms
  using lattice units in orthogonal box = (-52.65 -100 -100) to (52.65 100 100)
  create_atoms CPU = 0.001 seconds
Lattice spacing in x,y,z = 3 3 3
Created 21 atoms
  using lattice units in orthogonal box = (-52.65 -100 -100) to (52.65 100 100)
  create_atoms CPU = 0.006 seconds
Setting atom values ...
  30 settings made for diameter
Setting atom values ...
  30 settings made for mass
Setting atom values ...
  21 settings made for diameter
Setting atom values ...
  21 settings made for mass
30 atoms in group substrate
21 atoms in group slider1
  1 rigid bodies with 21 atoms
Generated 0 of 1 mixed pair_coeff terms from geometric mixing rule
Neighbor list info ...
  update every 1 steps, delay 0 steps, check yes
  max neighbors/atom: 2000, page size: 100000
  master list distance cutoff = 3.1
  ghost atom cutoff = 3.1
  binsize = 1.55, bins = 68 130 130
  1 neighbor lists, perpetual/occasional/extra = 1 0 0
  (1) pair granular, perpetual
      attributes: half, newton on, size, history
      pair build: half/size/bin/newton
      stencil: half/bin/3d
      bin: standard
Setting up Verlet run ...
  Unit style    : micro
  Current step  : 0
  Time step     : 1e-05
Per MPI rank memory allocation (min/avg/max) = 14.06 | 17.52 | 18.68 Mbytes
   Step           Lx             Ly             Lz           Press           Pxx            Pyy            Pzz           KinEng         PotEng          Temp          c_1[1]         c_1[2]         c_1[3]    
         0   105.3          200            200            0              0              0              0              0              0              0              2.6109412e-16  0              6            
    100000   105.3          200            200            0.0040468057   4.3896191e-39  0              0.012140417    12245.854      0              5.9130846e+10  2.6109412e-16  0              3.330914     
    200000   105.3          200            200            0.0014123762   9.1451653e-41  0              0.0042371285   2912.6014      0              1.406391e+10   2.6109412e-16  0              3.0818387    
    300000   105.3          200            200            9.7030533e-05  1.3717463e-40  0              0.0002910916   28.230676      0              1.3631583e+08  2.6109412e-16  0              3.0486106    
    400000   105.3          200            200            0.027461632    0.0035372139   0              0.078847682    43.216179      0              2.0867546e+08  2.6109412e-16  0              2.992644     
    500000   105.3          200            200            0.00028903281  3.123478e-05   0              0.00083586366  19.106212      0              92257062       2.6109412e-16  0              2.999262     
    600000   105.3          200            200            0.0036285782   0.00079893476  0              0.0100868      3.8292036      0              18489854       2.6109412e-16  0              2.997853     
    700000   105.3          200            200            0.0043954842   0.00092048086  0              0.012265972    0.23002467     0              1110706.8      2.6109412e-16  0              2.9975956    
    800000   105.3          200            200            0.0049537316   0.00094144414  0              0.013919751    0.027456591    0              132578.05      2.6109412e-16  0              2.9974155    
    900000   105.3          200            200            0.0051715362   0.00094829528  0              0.014566313    0.0037773767   0              18239.6        2.6109412e-16  0              2.9973472    
   1000000   105.3          200            200            0.0052520711   0.00095066048  0              0.014805553    0.00052800645  0              2549.5542      2.6109412e-16  0              2.9973222    
   1100000   105.3          200            200            0.005281589    0.00095150565  0              0.014893261    7.3812309e-05  0              356.41323      2.6109412e-16  0              2.9973131    
   1200000   105.3          200            200            0.0052923877   0.00095181201  0              0.014925351    1.0307174e-05  0              49.769655      2.6109412e-16  0              2.9973097    
   1300000   105.3          200            200            0.0052963359   0.00095192366  0              0.014937084    1.437985e-06   0              6.9435148      2.6109412e-16  0              2.9973085    
   1400000   105.3          200            200            0.005297779    0.00095196443  0              0.014941373    2.004675e-07   0              0.96798581     2.6109412e-16  0              2.9973081    
   1500000   105.3          200            200            0.0052983065   0.00095197933  0              0.01494294     2.7928242e-08  0              0.13485548     2.6109412e-16  0              2.9973079    
   1600000   105.3          200            200            0.0052984992   0.00095198477  0              0.014943513    3.8884152e-09  0              0.018775766    2.6109412e-16  0              2.9973078    
   1700000   105.3          200            200            0.0052985696   0.00095198676  0              0.014943722    5.4105739e-10  0              0.0026125725   2.6109412e-16  0              2.9973078    
   1800000   105.3          200            200            0.0052985953   0.00095198748  0              0.014943798    7.5241502e-11  0              0.00036331429  2.6109412e-16  0              2.9973078    
   1900000   105.3          200            200            0.0052986047   0.00095198775  0              0.014943826    1.0457361e-11  0              5.0494855e-05  2.6109412e-16  0              2.9973078    
   2000000   105.3          200            200            0.0052986081   0.00095198785  0              0.014943837    1.4525404e-12  0              7.0137976e-06  2.6109412e-16  0              2.9973078    
   2100000   105.3          200            200            0.0052986094   0.00095198788  0              0.01494384     2.0162924e-13  0              9.7359544e-07  2.6109412e-16  0              2.9973078    
   2200000   105.3          200            200            0.0052986098   0.00095198789  0              0.014943842    2.7981837e-14  0              1.3511427e-07  2.6109412e-16  0              2.9973078    
   2300000   105.3          200            200            0.00529861     0.0009519879   0              0.014943842    3.8846861e-15  0              1.8757759e-08  2.6109412e-16  0              2.9973078    
   2400000   105.3          200            200            0.0052986101   0.0009519879   0              0.014943842    5.3720913e-16  0              2.5939906e-09  2.6109412e-16  0              2.9973078    
   2500000   105.3          200            200            0.0052986101   0.0009519879   0              0.014943842    7.6011946e-17  0              3.6703448e-10  2.6109412e-16  0              2.9973078    
   2600000   105.3          200            200            0.0052986101   0.0009519879   0              0.014943842    9.977558e-18   0              4.8178057e-11  2.6109412e-16  0              2.9973078    
   2700000   105.3          200            200            0.0052986101   0.0009519879   0              0.014943842    6.5374202e-19  0              3.1566863e-12  2.6109412e-16  0              2.9973078    
   2800000   105.3          200            200            0.0052986101   0.0009519879   0              0.014943842    3.0246738e-19  0              1.4605068e-12  2.6109412e-16  0              2.9973078    
   2900000   105.3          200            200            0.0052986101   0.0009519879   0              0.014943842    1.5346703e-19  0              7.4103737e-13  2.6109412e-16  0              2.9973078    
   3000000   105.3          200            200            0.0052986101   0.0009519879   0              0.014943842    1.2434248e-20  0              6.0040531e-14  2.6109412e-16  0              2.9973078    
Loop time of 65.9466 on 4 procs for 3000000 steps with 51 atoms

Performance: 39304521.074 ns/day, 0.000 hours/ns, 45491.344 timesteps/s
100.0% CPU use with 4 MPI tasks x 1 OpenMP threads

MPI task timing breakdown:
Section |  min time  |  avg time  |  max time  |%varavg| %total
---------------------------------------------------------------
Pair    | 0.34846    | 1.8671     | 6.195      | 182.9 |  2.83
Neigh   | 0.056179   | 0.056732   | 0.058298   |   0.4 |  0.09
Comm    | 26.235     | 32.792     | 38.749     |  82.1 | 49.73
Output  | 0.056469   | 0.056593   | 0.056678   |   0.0 |  0.09
Modify  | 15.671     | 21.802     | 29.502     | 123.3 | 33.06
Other   |            | 9.372      |            |       | 14.21

Nlocal:          12.75 ave          51 max           0 min
Histogram: 3 0 0 0 0 0 0 0 0 1
Nghost:          39.25 ave          52 max           1 min
Histogram: 1 0 0 0 0 0 0 0 0 3
Neighs:           7.25 ave          29 max           0 min
Histogram: 3 0 0 0 0 0 0 0 0 1

Total # of neighbors = 29
Ave neighs/atom = 0.56862745
Neighbor list builds = 166
Dangerous builds = 0
  using 1 OpenMP thread(s) per MPI task
Lattice spacing in x,y,z = 3.52 3.52 3.52
Created orthogonal box = (-52.8 -100 -100) to (52.8 100 100)
  1 by 2 by 2 MPI processor grid
Created 30 atoms
  using lattice units in orthogonal box = (-52.8 -100 -100) to (52.8 100 100)
  create_atoms CPU = 0.000 seconds
Lattice spacing in x,y,z = 3 3 3
Created 21 atoms
  using lattice units in orthogonal box = (-52.8 -100 -100) to (52.8 100 100)
  create_atoms CPU = 0.003 seconds
Setting atom values ...
  30 settings made for diameter
Setting atom values ...
  30 settings made for mass
Setting atom values ...
  21 settings made for diameter
Setting atom values ...
  21 settings made for mass
30 atoms in group substrate
21 atoms in group slider1
  1 rigid bodies with 21 atoms
Generated 0 of 1 mixed pair_coeff terms from geometric mixing rule
Neighbor list info ...
  update every 1 steps, delay 0 steps, check yes
  max neighbors/atom: 2000, page size: 100000
  master list distance cutoff = 3.1
  ghost atom cutoff = 3.1
  binsize = 1.55, bins = 69 130 130
  1 neighbor lists, perpetual/occasional/extra = 1 0 0
  (1) pair granular, perpetual
      attributes: half, newton on, size, history
      pair build: half/size/bin/newton
      stencil: half/bin/3d
      bin: standard
Setting up Verlet run ...
  Unit style    : micro
  Current step  : 0
  Time step     : 1e-05
Per MPI rank memory allocation (min/avg/max) = 14.07 | 17.54 | 18.7 Mbytes
   Step           Lx             Ly             Lz           Press           Pxx            Pyy            Pzz           KinEng         PotEng          Temp          c_1[1]         c_1[2]         c_1[3]    
         0   105.6          200            200            0              0              0              0              0              0              0              2.6109412e-16  0              6            
    100000   105.6          200            200            0.0040385735   7.2953368e-40  0              0.012115721    12265.096      0              5.9223759e+10  2.6109412e-16  0              3.3286601    
    200000   105.6          200            200            0.0014154569   1.0942821e-39  0              0.0042463707   2937.3221      0              1.4183277e+10  2.6109412e-16  0              3.0791656    
    300000   105.6          200            200            0.000102597    4.3772709e-39  0              0.00030779099  31.596987      0              1.5257054e+08  2.6109412e-16  0              3.0472644    
    400000   105.6          200            200            0.027221453    0.0083931567   0              0.073271203    62.811126      0              3.0329245e+08  2.6109412e-16  0              2.9918097    
    500000   105.6          200            200            0.014948506    0.004164402    0              0.040681116    0.015320928    0              73979.278      2.6109412e-16  0              2.9939701    
    600000   105.6          200            200            0.0053103125   0.0015218161   0              0.014409122    5.423354       0              26187436       2.6109412e-16  0              2.9962785    
    700000   105.6          200            200            0.0043515676   0.0010480288   0              0.012006674    0.034754114    0              167815.18      2.6109412e-16  0              2.9965687    
    800000   105.6          200            200            0.0054318363   0.0012083674   0              0.015087141    0.094643343    0              456998.83      2.6109412e-16  0              2.9962187    
    900000   105.6          200            200            0.0054782815   0.0012120018   0              0.015222843    0.0048547451   0              23441.826      2.6109412e-16  0              2.9962018    
   1000000   105.6          200            200            0.005319652    0.0012007856   0              0.01475817     0.00031463019  0              1519.2366      2.6109412e-16  0              2.996253     
   1100000   105.6          200            200            0.0053678685   0.0012042346   0              0.014899371    0.00024026926  0              1160.1743      2.6109412e-16  0              2.9962376    
   1200000   105.6          200            200            0.0053727356   0.0012046057   0              0.014913601    8.6169746e-06  0              41.608286      2.6109412e-16  0              2.996236     
   1300000   105.6          200            200            0.0053645323   0.0012040171   0              0.01488958     1.1800204e-06  0              5.6978963      2.6109412e-16  0              2.9962386    
   1400000   105.6          200            200            0.0053667008   0.00120417     0              0.014895933    5.9504713e-07  0              2.8732696      2.6109412e-16  0              2.9962379    
   1500000   105.6          200            200            0.0053670638   0.0012041971   0              0.014896994    1.4098953e-08  0              0.0680788      2.6109412e-16  0              2.9962378    
   1600000   105.6          200            200            0.0053666453   0.0012041671   0              0.014895769    4.0294456e-09  0              0.019456751    2.6109412e-16  0              2.9962379    
   1700000   105.6          200            200            0.0053667404   0.0012041737   0              0.014896047    1.4390707e-09  0              0.0069487572   2.6109412e-16  0              2.9962379    
   1800000   105.6          200            200            0.0053667642   0.0012041755   0              0.014896117    2.0058931e-11  0              9.6857399e-05  2.6109412e-16  0              2.9962379    
   1900000   105.6          200            200            0.0053667432   0.001204174    0              0.014896055    1.289059e-11   0              6.2244048e-05  2.6109412e-16  0              2.9962379    
   2000000   105.6          200            200            0.0053667472   0.0012041743   0              0.014896067    3.3962219e-12  0              1.639914e-05   2.6109412e-16  0              2.9962379    
   2100000   105.6          200            200            0.0053667486   0.0012041744   0              0.014896072    2.2205063e-14  0              1.072203e-07   2.6109412e-16  0              2.9962379    
   2200000   105.6          200            200            0.0053667476   0.0012041743   0              0.014896068    3.9186595e-14  0              1.8921804e-07  2.6109412e-16  0              2.9962379    
   2300000   105.6          200            200            0.0053667478   0.0012041743   0              0.014896069    7.8029056e-15  0              3.7677439e-08  2.6109412e-16  0              2.9962379    
   2400000   105.6          200            200            0.0053667478   0.0012041743   0              0.014896069    1.2400513e-17  0              5.9877637e-11  2.6109412e-16  0              2.9962379    
   2500000   105.6          200            200            0.0053667478   0.0012041743   0              0.014896069    1.1447771e-16  0              5.527719e-10   2.6109412e-16  0              2.9962379    
   2600000   105.6          200            200            0.0053667478   0.0012041743   0              0.014896069    1.7329927e-17  0              8.3680014e-11  2.6109412e-16  0              2.9962379    
   2700000   105.6          200            200            0.0053667478   0.0012041743   0              0.014896069    2.7863788e-19  0              1.3454426e-12  2.6109412e-16  0              2.9962379    
   2800000   105.6          200            200            0.0053667478   0.0012041743   0              0.014896069    2.0345964e-19  0              9.824338e-13   2.6109412e-16  0              2.9962379    
   2900000   105.6          200            200            0.0053667478   0.0012041743   0              0.014896069    1.5944118e-19  0              7.6988442e-13  2.6109412e-16  0              2.9962379    
   3000000   105.6          200            200            0.0053667478   0.0012041743   0              0.014896069    8.0620704e-20  0              3.8928853e-13  2.6109412e-16  0              2.9962379    
Loop time of 65.0611 on 4 procs for 3000000 steps with 51 atoms

Performance: 39839457.070 ns/day, 0.000 hours/ns, 46110.483 timesteps/s
100.0% CPU use with 4 MPI tasks x 1 OpenMP threads

MPI task timing breakdown:
Section |  min time  |  avg time  |  max time  |%varavg| %total
---------------------------------------------------------------
Pair    | 0.35811    | 1.7649     | 5.7677     | 174.0 |  2.71
Neigh   | 0.055935   | 0.056497   | 0.058093   |   0.4 |  0.09
Comm    | 25.925     | 32.614     | 38.499     |  83.7 | 50.13
Output  | 0.056486   | 0.056583   | 0.056655   |   0.0 |  0.09
Modify  | 15.449     | 21.502     | 29.322     | 126.0 | 33.05
Other   |            | 9.067      |            |       | 13.94

Nlocal:          12.75 ave          51 max           0 min
Histogram: 3 0 0 0 0 0 0 0 0 1
Nghost:          39.25 ave          52 max           1 min
Histogram: 1 0 0 0 0 0 0 0 0 3
Neighs:           7.25 ave          29 max           0 min
Histogram: 3 0 0 0 0 0 0 0 0 1

Total # of neighbors = 29
Ave neighs/atom = 0.56862745
Neighbor list builds = 166
Dangerous builds = 0
  using 1 OpenMP thread(s) per MPI task
Lattice spacing in x,y,z = 3.53 3.53 3.53
Created orthogonal box = (-52.95 -100 -100) to (52.95 100 100)
  1 by 2 by 2 MPI processor grid
Created 30 atoms
  using lattice units in orthogonal box = (-52.95 -100 -100) to (52.95 100 100)
  create_atoms CPU = 0.000 seconds
Lattice spacing in x,y,z = 3 3 3
Created 21 atoms
  using lattice units in orthogonal box = (-52.95 -100 -100) to (52.95 100 100)
  create_atoms CPU = 0.003 seconds
Setting atom values ...
  30 settings made for diameter
Setting atom values ...
  30 settings made for mass
Setting atom values ...
  21 settings made for diameter
Setting atom values ...
  21 settings made for mass
30 atoms in group substrate
21 atoms in group slider1
  1 rigid bodies with 21 atoms
Generated 0 of 1 mixed pair_coeff terms from geometric mixing rule
Neighbor list info ...
  update every 1 steps, delay 0 steps, check yes
  max neighbors/atom: 2000, page size: 100000
  master list distance cutoff = 3.1
  ghost atom cutoff = 3.1
  binsize = 1.55, bins = 69 130 130
  1 neighbor lists, perpetual/occasional/extra = 1 0 0
  (1) pair granular, perpetual
      attributes: half, newton on, size, history
      pair build: half/size/bin/newton
      stencil: half/bin/3d
      bin: standard
Setting up Verlet run ...
  Unit style    : micro
  Current step  : 0
  Time step     : 1e-05
Per MPI rank memory allocation (min/avg/max) = 14.07 | 17.54 | 18.7 Mbytes
   Step           Lx             Ly             Lz           Press           Pxx            Pyy            Pzz           KinEng         PotEng          Temp          c_1[1]         c_1[2]         c_1[3]    
         0   105.9          200            200            0              0              0              0              0              0              0              2.6109412e-16  0              6            
    100000   105.9          200            200            0.0040297267  -4.3645407e-39  0              0.01208918     12281.143      0              5.9301246e+10  2.6109412e-16  0              3.3265929    
    200000   105.9          200            200            0.0014268333  -2.908532e-39   0              0.0042804998   2990.2656      0              1.4438922e+10  2.6109412e-16  0              3.0744617    
    300000   105.9          200            200            0.00010068941 -4.6454552e-38  0              0.00030206822  30.681294      0              1.4814899e+08  2.6109412e-16  0              3.0456565    
    400000   105.9          200            200            0.0038240756   8.4856267e-37  0              0.011472227    207.99319      0              1.0043247e+09  2.6109412e-16  0              2.99617      
    500000   105.9          200            200            0.0013755993   5.0388518e-37  0              0.004126798    8.0933014      0              39079656       2.6109412e-16  0              2.9980128    
    600000   105.9          200            200            0.0039995462  -2.0480248e-36  0              0.011998639    2.7371274      0              13216608       2.6109412e-16  0              2.9958302    
    700000   105.9          200            200            0.0045004964  -1.6091088e-36  0              0.013501489    0.2604372      0              1257558        2.6109412e-16  0              2.9955035    
    800000   105.9          200            200            0.0048103931   5.2395424e-38  0              0.014431179    0.046676967    0              225386.37      2.6109412e-16  0              2.9953029    
    900000   105.9          200            200            0.0049085168   1.1683873e-37  0              0.01472555     0.0076035815   0              36714.974      2.6109412e-16  0              2.9952406    
   1000000   105.9          200            200            0.0049384732  -8.6810904e-39  0              0.01481542     0.0011703111   0              5651.0134      2.6109412e-16  0              2.9952218    
   1100000   105.9          200            200            0.004947049   -1.5221632e-39  0              0.014841147    0.00017199893  0              830.52129      2.6109412e-16  0              2.9952165    
   1200000   105.9          200            200            0.0049492465   1.9958117e-38  0              0.014847739    2.4246021e-05  0              117.07536      2.6109412e-16  0              2.9952152    
   1300000   105.9          200            200            0.0049496875  -5.5645827e-40  0              0.014849062    3.2845072e-06  0              15.85971       2.6109412e-16  0              2.9952149    
   1400000   105.9          200            200            0.0049497115   8.0511209e-41  0              0.014849135    4.2762157e-07  0              2.0648315      2.6109412e-16  0              2.9952149    
   1500000   105.9          200            200            0.0049496693  -2.6677846e-39  0              0.014849008    5.342314e-08   0              0.25796122     2.6109412e-16  0              2.995215     
   1600000   105.9          200            200            0.0049496354   7.7991691e-39  0              0.014848906    6.3822411e-09  0              0.030817558    2.6109412e-16  0              2.995215     
   1700000   105.9          200            200            0.0049496163  -2.0473273e-39  0              0.014848849    7.2473399e-10  0              0.0034994811   2.6109412e-16  0              2.995215     
   1800000   105.9          200            200            0.0049496071   5.6411325e-39  0              0.014848821    7.7457004e-11  0              0.00037401215  2.6109412e-16  0              2.995215     
   1900000   105.9          200            200            0.0049496029   7.5928642e-39  0              0.014848809    7.6642897e-12  0              3.7008112e-05  2.6109412e-16  0              2.995215     
   2000000   105.9          200            200            0.0049496011  -1.2788128e-39  0              0.014848803    6.8209127e-13  0              3.2935746e-06  2.6109412e-16  0              2.995215     
   2100000   105.9          200            200            0.0049496004  -4.234007e-39   0              0.014848801    5.153491e-14   0              2.4884364e-07  2.6109412e-16  0              2.995215     
   2200000   105.9          200            200            0.0049496001   3.0986703e-39  0              0.0148488      2.8756892e-15  0              1.3885674e-08  2.6109412e-16  0              2.995215     
   2300000   105.9          200            200            0.0049495999  -1.0962092e-39  0              0.0148488      6.9207301e-17  0              3.3417729e-10  2.6109412e-16  0              2.995215     
   2400000   105.9          200            200            0.0049495999   2.1032579e-39  0              0.0148488      1.7465441e-18  0              8.4334364e-12  2.6109412e-16  0              2.995215     
   2500000   105.9          200            200            0.0049495999   1.2706005e-38  0              0.0148488      4.0946482e-18  0              1.9771591e-11  2.6109412e-16  0              2.995215     
   2600000   105.9          200            200            0.0049495999   1.7627381e-38  0              0.0148488      1.7566518e-18  0              8.4822428e-12  2.6109412e-16  0              2.995215     
   2700000   105.9          200            200            0.0049495999  -2.0361583e-39  0              0.0148488      3.5467228e-19  0              1.7125855e-12  2.6109412e-16  0              2.995215     
   2800000   105.9          200            200            0.0049495999  -4.0814228e-39  0              0.0148488      1.0512795e-19  0              5.0762524e-13  2.6109412e-16  0              2.995215     
   2900000   105.9          200            200            0.0049495999   2.7739283e-39  0              0.0148488      7.2099793e-21  0              3.481441e-14   2.6109412e-16  0              2.995215     
   3000000   105.9          200            200            0.0049495999   2.5385761e-39  0              0.0148488      3.9985499e-20  0              1.9307566e-13  2.6109412e-16  0              2.995215     
Loop time of 64.9252 on 4 procs for 3000000 steps with 51 atoms

Performance: 39922893.385 ns/day, 0.000 hours/ns, 46207.053 timesteps/s
100.0% CPU use with 4 MPI tasks x 1 OpenMP threads

MPI task timing breakdown:
Section |  min time  |  avg time  |  max time  |%varavg| %total
---------------------------------------------------------------
Pair    | 0.32503    | 1.6421     | 5.3509     | 167.2 |  2.53
Neigh   | 0.055239   | 0.055807   | 0.057375   |   0.4 |  0.09
Comm    | 25.936     | 32.686     | 38.466     |  84.2 | 50.34
Output  | 0.054486   | 0.054582   | 0.054655   |   0.0 |  0.08
Modify  | 15.446     | 21.428     | 29.179     | 125.4 | 33.00
Other   |            | 9.059      |            |       | 13.95

Nlocal:          12.75 ave          51 max           0 min
Histogram: 3 0 0 0 0 0 0 0 0 1
Nghost:          39.25 ave          52 max           1 min
Histogram: 1 0 0 0 0 0 0 0 0 3
Neighs:           7.25 ave          29 max           0 min
Histogram: 3 0 0 0 0 0 0 0 0 1

Total # of neighbors = 29
Ave neighs/atom = 0.56862745
Neighbor list builds = 164
Dangerous builds = 0
  using 1 OpenMP thread(s) per MPI task
Lattice spacing in x,y,z = 3.54 3.54 3.54
Created orthogonal box = (-53.1 -100 -100) to (53.1 100 100)
  1 by 2 by 2 MPI processor grid
Created 30 atoms
  using lattice units in orthogonal box = (-53.1 -100 -100) to (53.1 100 100)
  create_atoms CPU = 0.000 seconds
Lattice spacing in x,y,z = 3 3 3
Created 21 atoms
  using lattice units in orthogonal box = (-53.1 -100 -100) to (53.1 100 100)
  create_atoms CPU = 0.003 seconds
Setting atom values ...
  30 settings made for diameter
Setting atom values ...
  30 settings made for mass
Setting atom values ...
  21 settings made for diameter
Setting atom values ...
  21 settings made for mass
30 atoms in group substrate
21 atoms in group slider1
  1 rigid bodies with 21 atoms
Generated 0 of 1 mixed pair_coeff terms from geometric mixing rule
Neighbor list info ...
  update every 1 steps, delay 0 steps, check yes
  max neighbors/atom: 2000, page size: 100000
  master list distance cutoff = 3.1
  ghost atom cutoff = 3.1
  binsize = 1.55, bins = 69 130 130
  1 neighbor lists, perpetual/occasional/extra = 1 0 0
  (1) pair granular, perpetual
      attributes: half, newton on, size, history
      pair build: half/size/bin/newton
      stencil: half/bin/3d
      bin: standard
Setting up Verlet run ...
  Unit style    : micro
  Current step  : 0
  Time step     : 1e-05
Per MPI rank memory allocation (min/avg/max) = 14.07 | 17.54 | 18.7 Mbytes
   Step           Lx             Ly             Lz           Press           Pxx            Pyy            Pzz           KinEng         PotEng          Temp          c_1[1]         c_1[2]         c_1[3]    
         0   106.2          200            200            0              0              0              0              0              0              0              2.6109412e-16  0              6            
    100000   106.2          200            200            0.0040194231   1.4508494e-39  0              0.012058269    12288.803      0              5.9338233e+10  2.6109412e-16  0              3.3253614    
    200000   106.2          200            200            0.0014374891  -4.636822e-38   0              0.0043124674   3040.9655      0              1.4683734e+10  2.6109412e-16  0              3.0702393    
    300000   106.2          200            200            0.00010152433  3.7459082e-37  0              0.00030457299  31.366225      0              1.5145628e+08  2.6109412e-16  0              3.0440702    
    400000   106.2          200            200            5.7367471e-05  1.1940109e-35  0              0.00017210241  10.704911      0              51690183       2.6109412e-16  0              3.0059914    
    500000   106.2          200            200            0.0085666958  -7.420823e-36   0              0.025700088    13.120019      0              63351874       2.6109412e-16  0              2.993054     
    600000   106.2          200            200            0.0066518307  -4.375274e-36   0              0.019955492    0.22438654     0              1083482.3      2.6109412e-16  0              2.9941652    
    700000   106.2          200            200            0.005503338   -1.017366e-36   0              0.016510014    0.11256857     0              543553.34      2.6109412e-16  0              2.9948579    
    800000   106.2          200            200            0.0051250627  -2.377585e-36   0              0.015375188    0.024968857    0              120565.67      2.6109412e-16  0              2.9950949    
    900000   106.2          200            200            0.0049975966   5.4193892e-37  0              0.01499279     0.0047429725   0              22902.117      2.6109412e-16  0              2.9951757    
   1000000   106.2          200            200            0.0049551984   2.4816061e-37  0              0.014865595    0.0008280293   0              3998.2572      2.6109412e-16  0              2.9952027    
   1100000   106.2          200            200            0.0049414997  -5.1963337e-38  0              0.014824499    0.00013564282  0              654.97064      2.6109412e-16  0              2.9952113    
   1200000   106.2          200            200            0.0049372532   4.1180038e-39  0              0.01481176     2.1078984e-05  0              101.78287      2.6109412e-16  0              2.995214     
   1300000   106.2          200            200            0.0049360133  -8.8070141e-41  0              0.01480804     3.1283285e-06  0              15.105579      2.6109412e-16  0              2.9952148    
   1400000   106.2          200            200            0.0049356847   8.1889114e-39  0              0.014807054    4.4517676e-07  0              2.1495992      2.6109412e-16  0              2.995215     
   1500000   106.2          200            200            0.004935613    2.5996931e-39  0              0.014806839    6.0869842e-08  0              0.29391868     2.6109412e-16  0              2.995215     
   1600000   106.2          200            200            0.0049356054   9.1263098e-39  0              0.014806816    8.0001498e-09  0              0.03862986     2.6109412e-16  0              2.995215     
   1700000   106.2          200            200            0.0049356094   1.2497231e-39  0              0.014806828    1.0094956e-09  0              0.0048744931   2.6109412e-16  0              2.995215     
   1800000   106.2          200            200            0.0049356135  -1.9416455e-39  0              0.01480684     1.2193481e-10  0              0.00058877954  2.6109412e-16  0              2.995215     
   1900000   106.2          200            200            0.0049356158  -1.9359318e-38  0              0.014806847    1.4023758e-11  0              6.7715706e-05  2.6109412e-16  0              2.995215     
   2000000   106.2          200            200            0.004935617    1.2734044e-39  0              0.014806851    1.5223574e-12  0              7.3509188e-06  2.6109412e-16  0              2.995215     
   2100000   106.2          200            200            0.0049356176   7.7420861e-39  0              0.014806853    1.5371735e-13  0              7.4224609e-07  2.6109412e-16  0              2.995215     
   2200000   106.2          200            200            0.0049356178  -1.3764252e-39  0              0.014806853    1.4089149e-14  0              6.8031459e-08  2.6109412e-16  0              2.995215     
   2300000   106.2          200            200            0.0049356179  -1.7350986e-38  0              0.014806854    1.1163287e-15  0              5.3903517e-09  2.6109412e-16  0              2.995215     
   2400000   106.2          200            200            0.0049356179   3.3715931e-39  0              0.014806854    7.0965568e-17  0              3.4266733e-10  2.6109412e-16  0              2.995215     
   2500000   106.2          200            200            0.0049356179   7.1433782e-39  0              0.014806854    2.6625168e-18  0              1.2856341e-11  2.6109412e-16  0              2.995215     
   2600000   106.2          200            200            0.004935618    1.1407707e-38  0              0.014806854    2.0248062e-21  0              9.7770643e-15  2.6109412e-16  0              2.995215     
   2700000   106.2          200            200            0.004935618    2.1273982e-38  0              0.014806854    6.5629493e-20  0              3.1690133e-13  2.6109412e-16  0              2.995215     
   2800000   106.2          200            200            0.004935618    2.9536714e-38  0              0.014806854    6.6856111e-20  0              3.2282423e-13  2.6109412e-16  0              2.995215     
   2900000   106.2          200            200            0.004935618    3.5507692e-38  0              0.014806854    7.3497244e-21  0              3.5489189e-14  2.6109412e-16  0              2.995215     
   3000000   106.2          200            200            0.004935618    1.5112634e-39  0              0.014806854    1.5654377e-19  0              7.5589384e-13  2.6109412e-16  0              2.995215     
Loop time of 64.8604 on 4 procs for 3000000 steps with 51 atoms

Performance: 39962775.265 ns/day, 0.000 hours/ns, 46253.212 timesteps/s
100.0% CPU use with 4 MPI tasks x 1 OpenMP threads

MPI task timing breakdown:
Section |  min time  |  avg time  |  max time  |%varavg| %total
---------------------------------------------------------------
Pair    | 0.33298    | 1.6479     | 5.3398     | 166.1 |  2.54
Neigh   | 0.055216   | 0.055795   | 0.057393   |   0.4 |  0.09
Comm    | 25.956     | 32.735     | 38.555     |  84.7 | 50.47
Output  | 0.057573   | 0.057655   | 0.057717   |   0.0 |  0.09
Modify  | 15.314     | 21.378     | 29.187     | 126.5 | 32.96
Other   |            | 8.986      |            |       | 13.85

Nlocal:          12.75 ave          51 max           0 min
Histogram: 3 0 0 0 0 0 0 0 0 1
Nghost:          39.25 ave          52 max           1 min
Histogram: 1 0 0 0 0 0 0 0 0 3
Neighs:           7.25 ave          29 max           0 min
Histogram: 3 0 0 0 0 0 0 0 0 1

Total # of neighbors = 29
Ave neighs/atom = 0.56862745
Neighbor list builds = 164
Dangerous builds = 0
  using 1 OpenMP thread(s) per MPI task
Lattice spacing in x,y,z = 3.55 3.55 3.55
Created orthogonal box = (-53.25 -100 -100) to (53.25 100 100)
  1 by 2 by 2 MPI processor grid
Created 30 atoms
  using lattice units in orthogonal box = (-53.25 -100 -100) to (53.25 100 100)
  create_atoms CPU = 0.000 seconds
Lattice spacing in x,y,z = 3 3 3
Created 21 atoms
  using lattice units in orthogonal box = (-53.25 -100 -100) to (53.25 100 100)
  create_atoms CPU = 0.002 seconds
Setting atom values ...
  30 settings made for diameter
Setting atom values ...
  30 settings made for mass
Setting atom values ...
  21 settings made for diameter
Setting atom values ...
  21 settings made for mass
30 atoms in group substrate
21 atoms in group slider1
  1 rigid bodies with 21 atoms
Generated 0 of 1 mixed pair_coeff terms from geometric mixing rule
Neighbor list info ...
  update every 1 steps, delay 0 steps, check yes
  max neighbors/atom: 2000, page size: 100000
  master list distance cutoff = 3.1
  ghost atom cutoff = 3.1
  binsize = 1.55, bins = 69 130 130
  1 neighbor lists, perpetual/occasional/extra = 1 0 0
  (1) pair granular, perpetual
      attributes: half, newton on, size, history
      pair build: half/size/bin/newton
      stencil: half/bin/3d
      bin: standard
Setting up Verlet run ...
  Unit style    : micro
  Current step  : 0
  Time step     : 1e-05
Per MPI rank memory allocation (min/avg/max) = 14.07 | 17.54 | 18.7 Mbytes
   Step           Lx             Ly             Lz           Press           Pxx            Pyy            Pzz           KinEng         PotEng          Temp          c_1[1]         c_1[2]         c_1[3]    
         0   106.5          200            200            0              0              0              0              0              0              0              2.6109412e-16  0              6            
    100000   106.5          200            200            0.004007319    7.9570057e-39  0              0.012021957    12285.635      0              5.9322936e+10  2.6109412e-16  0              3.3253338    
    200000   106.5          200            200            0.001431977    5.083548e-41   0              0.004295931    3036.3405      0              1.4661402e+10  2.6109412e-16  0              3.0702055    
    300000   106.5          200            200            9.4270823e-05  9.2993802e-37  0              0.00028281247  27.376332      0              1.3219051e+08  2.6109412e-16  0              3.0440196    
    400000   106.5          200            200            5.5027613e-06  1.5435434e-36  0              1.6508284e-05  0.10785881     0              520811.57      2.6109412e-16  0              3.0063941    
    500000   106.5          200            200            0.0098996668   4.5028824e-36  0              0.029699       0.20968382     0              1012488.1      2.6109412e-16  0              2.9923667    
    600000   106.5          200            200            0.0060862545  -1.0145674e-35  0              0.018258764    2.25043        0              10866521       2.6109412e-16  0              2.9945019    
    700000   106.5          200            200            0.0052302906   2.6499358e-37  0              0.015690872    0.41666498     0              2011926.1      2.6109412e-16  0              2.9950238    
    800000   106.5          200            200            0.0050042999  -1.2110967e-36  0              0.0150129      0.064458552    0              311247.28      2.6109412e-16  0              2.9951644    
    900000   106.5          200            200            0.0049408015   3.17986e-38    0              0.014822405    0.0094698073   0              45726.31       2.6109412e-16  0              2.9952037    
   1000000   106.5          200            200            0.0049244501   9.6900623e-38  0              0.01477335     0.0013358205   0              6450.1993      2.6109412e-16  0              2.9952136    
   1100000   106.5          200            200            0.0049211198  -3.3831372e-40  0              0.014763359    0.00018117465  0              874.82752      2.6109412e-16  0              2.9952155    
   1200000   106.5          200            200            0.0049209102  -1.9051902e-38  0              0.014762731    2.3620114e-05  0              114.05308      2.6109412e-16  0              2.9952156    
   1300000   106.5          200            200            0.004921209    3.9074867e-39  0              0.014763627    2.9552454e-06  0              14.269823      2.6109412e-16  0              2.9952154    
   1400000   106.5          200            200            0.0049214552  -1.0316252e-38  0              0.014764366    3.5362719e-07  0              1.7075392      2.6109412e-16  0              2.9952152    
   1500000   106.5          200            200            0.0049215941  -1.0049703e-38  0              0.014764782    4.0231952e-08  0              0.1942657      2.6109412e-16  0              2.9952151    
   1600000   106.5          200            200            0.004921662   -3.4348263e-39  0              0.014764986    4.3097643e-09  0              0.020810309    2.6109412e-16  0              2.995215     
   1700000   106.5          200            200            0.0049216927   4.9355233e-40  0              0.014765078    4.2773894e-10  0              0.0020653983   2.6109412e-16  0              2.995215     
   1800000   106.5          200            200            0.0049217058  -1.545889e-38   0              0.014765118    3.8227652e-11  0              0.00018458765  2.6109412e-16  0              2.995215     
   1900000   106.5          200            200            0.0049217113  -1.9531235e-38  0              0.014765134    2.9084826e-12  0              1.4044022e-05  2.6109412e-16  0              2.995215     
   2000000   106.5          200            200            0.0049217134  -1.31213e-38    0              0.01476514     1.646102e-13   0              7.9484373e-07  2.6109412e-16  0              2.995215     
   2100000   106.5          200            200            0.0049217143   1.3907849e-38  0              0.014765143    4.1996826e-15  0              2.0278764e-08  2.6109412e-16  0              2.995215     
   2200000   106.5          200            200            0.0049217146  -1.2195612e-38  0              0.014765144    5.8139295e-17  0              2.8073385e-10  2.6109412e-16  0              2.995215     
   2300000   106.5          200            200            0.0049217147  -1.3282525e-38  0              0.014765144    2.0624407e-16  0              9.9587882e-10  2.6109412e-16  0              2.995215     
   2400000   106.5          200            200            0.0049217148  -2.4042443e-38  0              0.014765144    9.1453494e-17  0              4.4159619e-10  2.6109412e-16  0              2.995215     
   2500000   106.5          200            200            0.0049217148   7.6393708e-39  0              0.014765144    2.3643712e-17  0              1.1416702e-10  2.6109412e-16  0              2.995215     
   2600000   106.5          200            200            0.0049217148  -1.151852e-38   0              0.014765144    5.4243604e-18  0              2.6192295e-11  2.6109412e-16  0              2.995215     
   2700000   106.5          200            200            0.0049217148   2.4409743e-39  0              0.014765144    9.9132156e-19  0              4.7867371e-12  2.6109412e-16  0              2.995215     
   2800000   106.5          200            200            0.0049217148  -9.0370847e-39  0              0.014765144    2.4183288e-19  0              1.1677244e-12  2.6109412e-16  0              2.995215     
   2900000   106.5          200            200            0.0049217148   3.2798801e-39  0              0.014765144    9.5637977e-23  0              4.6180156e-16  2.6109412e-16  0              2.995215     
   3000000   106.5          200            200            0.0049217148   4.7186997e-39  0              0.014765144    1.4650383e-19  0              7.0741457e-13  2.6109412e-16  0              2.995215     
Loop time of 63.7759 on 4 procs for 3000000 steps with 51 atoms

Performance: 40642280.230 ns/day, 0.000 hours/ns, 47039.676 timesteps/s
100.0% CPU use with 4 MPI tasks x 1 OpenMP threads

MPI task timing breakdown:
Section |  min time  |  avg time  |  max time  |%varavg| %total
---------------------------------------------------------------
Pair    | 0.32611    | 1.5859     | 5.0952     | 161.0 |  2.49
Neigh   | 0.055199   | 0.055801   | 0.057342   |   0.4 |  0.09
Comm    | 25.602     | 32.415     | 38.175     |  85.4 | 50.83
Output  | 0.055991   | 0.056078   | 0.056143   |   0.0 |  0.09
Modify  | 14.99      | 20.997     | 28.742     | 126.5 | 32.92
Other   |            | 8.665      |            |       | 13.59

Nlocal:          12.75 ave          51 max           0 min
Histogram: 3 0 0 0 0 0 0 0 0 1
Nghost:          39.25 ave          52 max           1 min
Histogram: 1 0 0 0 0 0 0 0 0 3
Neighs:           6.75 ave          27 max           0 min
Histogram: 3 0 0 0 0 0 0 0 0 1

Total # of neighbors = 27
Ave neighs/atom = 0.52941176
Neighbor list builds = 164
Dangerous builds = 0
  using 1 OpenMP thread(s) per MPI task
Lattice spacing in x,y,z = 3.56 3.56 3.56
Created orthogonal box = (-53.4 -100 -100) to (53.4 100 100)
  1 by 2 by 2 MPI processor grid
Created 30 atoms
  using lattice units in orthogonal box = (-53.4 -100 -100) to (53.4 100 100)
  create_atoms CPU = 0.000 seconds
Lattice spacing in x,y,z = 3 3 3
Created 21 atoms
  using lattice units in orthogonal box = (-53.4 -100 -100) to (53.4 100 100)
  create_atoms CPU = 0.003 seconds
Setting atom values ...
  30 settings made for diameter
Setting atom values ...
  30 settings made for mass
Setting atom values ...
  21 settings made for diameter
Setting atom values ...
  21 settings made for mass
30 atoms in group substrate
21 atoms in group slider1
  1 rigid bodies with 21 atoms
Generated 0 of 1 mixed pair_coeff terms from geometric mixing rule
Neighbor list info ...
  update every 1 steps, delay 0 steps, check yes
  max neighbors/atom: 2000, page size: 100000
  master list distance cutoff = 3.1
  ghost atom cutoff = 3.1
  binsize = 1.55, bins = 69 130 130
  1 neighbor lists, perpetual/occasional/extra = 1 0 0
  (1) pair granular, perpetual
      attributes: half, newton on, size, history
      pair build: half/size/bin/newton
      stencil: half/bin/3d
      bin: standard
Setting up Verlet run ...
  Unit style    : micro
  Current step  : 0
  Time step     : 1e-05
Per MPI rank memory allocation (min/avg/max) = 14.07 | 17.54 | 18.7 Mbytes
   Step           Lx             Ly             Lz           Press           Pxx            Pyy            Pzz           KinEng         PotEng          Temp          c_1[1]         c_1[2]         c_1[3]    
         0   106.8          200            200            0              0              0              0              0              0              0              2.6109412e-16  0              6            
    100000   106.8          200            200            0.0039934719   6.4920029e-39  0              0.011980416    12271.547      0              5.9254911e+10  2.6109412e-16  0              3.3266146    
    200000   106.8          200            200            0.0014099194   2.3088401e-38  0              0.0042297582   2974.5759      0              1.4363162e+10  2.6109412e-16  0              3.0746226    
    300000   106.8          200            200            8.8559251e-05  3.7077122e-37  0              0.00026567775  24.402408      0              1.178305e+08   2.6109412e-16  0              3.0453467    
    400000   106.8          200            200            0.00022159091 -2.927787e-36   0              0.00066477272  139.5523       0              6.7384812e+08  2.6109412e-16  0              3.0003039    
    500000   106.8          200            200            0.0095088135  -0.00043204516  0              0.028958486    6.7970663      0              32820600       2.6109412e-16  0              2.9927316    
    600000   106.8          200            200            0.0058452482   4.2877199e-36  0              0.017535745    2.8453066      0              13738967       2.6109412e-16  0              2.9946407    
    700000   106.8          200            200            0.0051263811   2.9704042e-37  0              0.015379143    0.47765234     0              2306412.2      2.6109412e-16  0              2.9950814    
    800000   106.8          200            200            0.0049560801   5.3149268e-38  0              0.01486824     0.070153073    0              338744.08      2.6109412e-16  0              2.9951866    
    900000   106.8          200            200            0.0049140275  -3.8923194e-38  0              0.014742083    0.0098515453   0              47569.586      2.6109412e-16  0              2.9952121    
   1000000   106.8          200            200            0.0049058325   8.9203849e-39  0              0.014717497    0.0013306359   0              6425.1645      2.6109412e-16  0              2.9952168    
   1100000   106.8          200            200            0.0049055542   8.6520361e-39  0              0.014716663    0.00017277917  0              834.28878      2.6109412e-16  0              2.9952167    
   1200000   106.8          200            200            0.0049064656   9.9880329e-40  0              0.014719397    2.1525602e-05  0              103.93943      2.6109412e-16  0              2.995216     
   1300000   106.8          200            200            0.0049071681  -1.1237507e-38  0              0.014721504    2.5636283e-06  0              12.378844      2.6109412e-16  0              2.9952155    
   1400000   106.8          200            200            0.0049075568   4.1927973e-39  0              0.01472267     2.9006032e-07  0              1.4005975      2.6109412e-16  0              2.9952152    
   1500000   106.8          200            200            0.0049077448  -7.6092277e-39  0              0.014723234    3.0862109e-08  0              0.14902208     2.6109412e-16  0              2.9952151    
   1600000   106.8          200            200            0.0049078292  -4.144546e-39   0              0.014723488    3.0357588e-09  0              0.014658593    2.6109412e-16  0              2.9952151    
   1700000   106.8          200            200            0.0049078653  -2.710559e-39   0              0.014723596    2.6782462e-10  0              0.0012932292   2.6109412e-16  0              2.995215     
   1800000   106.8          200            200            0.0049078801  -3.3290501e-39  0              0.01472364     1.9945278e-11  0              9.6308609e-05  2.6109412e-16  0              2.995215     
   1900000   106.8          200            200            0.0049078861   1.0601126e-38  0              0.014723658    1.0791523e-12  0              5.2108404e-06  2.6109412e-16  0              2.995215     
   2000000   106.8          200            200            0.0049078884   1.573213e-39   0              0.014723665    2.3232516e-14  0              1.1218151e-07  2.6109412e-16  0              2.995215     
   2100000   106.8          200            200            0.0049078892  -8.2909289e-40  0              0.014723668    8.7049917e-16  0              4.203329e-09   2.6109412e-16  0              2.995215     
   2200000   106.8          200            200            0.0049078896  -1.0302264e-38  0              0.014723669    1.7747777e-15  0              8.5697664e-09  2.6109412e-16  0              2.995215     
   2300000   106.8          200            200            0.0049078897   9.2303015e-39  0              0.014723669    7.0904787e-16  0              3.4237384e-09  2.6109412e-16  0              2.995215     
   2400000   106.8          200            200            0.0049078897   2.959228e-39   0              0.014723669    1.896257e-16   0              9.1563464e-10  2.6109412e-16  0              2.995215     
   2500000   106.8          200            200            0.0049078898  -4.5784483e-39  0              0.014723669    4.1494122e-17  0              2.0036026e-10  2.6109412e-16  0              2.995215     
   2600000   106.8          200            200            0.0049078898  -4.7138927e-39  0              0.014723669    8.0571898e-18  0              3.8905286e-11  2.6109412e-16  0              2.995215     
   2700000   106.8          200            200            0.0049078898  -1.1859602e-38  0              0.014723669    1.2347809e-18  0              5.9623151e-12  2.6109412e-16  0              2.995215     
   2800000   106.8          200            200            0.0049078898  -3.3001776e-41  0              0.014723669    2.4526807e-19  0              1.1843117e-12  2.6109412e-16  0              2.995215     
   2900000   106.8          200            200            0.0049078898   1.9291019e-39  0              0.014723669    4.3193187e-22  0              2.0856444e-15  2.6109412e-16  0              2.995215     
   3000000   106.8          200            200            0.0049078898   1.1355719e-38  0              0.014723669    1.201059e-19   0              5.7994839e-13  2.6109412e-16  0              2.995215     
Loop time of 63.8698 on 4 procs for 3000000 steps with 51 atoms

Performance: 40582580.180 ns/day, 0.000 hours/ns, 46970.579 timesteps/s
100.0% CPU use with 4 MPI tasks x 1 OpenMP threads

MPI task timing breakdown:
Section |  min time  |  avg time  |  max time  |%varavg| %total
---------------------------------------------------------------
Pair    | 0.34895    | 1.5925     | 5.1138     | 161.2 |  2.49
Neigh   | 0.055207   | 0.05596    | 0.057334   |   0.4 |  0.09
Comm    | 25.558     | 32.318     | 37.959     |  84.6 | 50.60
Output  | 0.055892   | 0.055982   | 0.056054   |   0.0 |  0.09
Modify  | 15.125     | 21.09      | 28.822     | 126.0 | 33.02
Other   |            | 8.758      |            |       | 13.71

Nlocal:          12.75 ave          51 max           0 min
Histogram: 3 0 0 0 0 0 0 0 0 1
Nghost:          39.25 ave          52 max           1 min
Histogram: 1 0 0 0 0 0 0 0 0 3
Neighs:           7.25 ave          29 max           0 min
Histogram: 3 0 0 0 0 0 0 0 0 1

Total # of neighbors = 29
Ave neighs/atom = 0.56862745
Neighbor list builds = 164
Dangerous builds = 0
  using 1 OpenMP thread(s) per MPI task
Lattice spacing in x,y,z = 3.57 3.57 3.57
Created orthogonal box = (-53.55 -100 -100) to (53.55 100 100)
  1 by 2 by 2 MPI processor grid
Created 30 atoms
  using lattice units in orthogonal box = (-53.55 -100 -100) to (53.55 100 100)
  create_atoms CPU = 0.000 seconds
Lattice spacing in x,y,z = 3 3 3
Created 21 atoms
  using lattice units in orthogonal box = (-53.55 -100 -100) to (53.55 100 100)
  create_atoms CPU = 0.003 seconds
Setting atom values ...
  30 settings made for diameter
Setting atom values ...
  30 settings made for mass
Setting atom values ...
  21 settings made for diameter
Setting atom values ...
  21 settings made for mass
30 atoms in group substrate
21 atoms in group slider1
  1 rigid bodies with 21 atoms
Generated 0 of 1 mixed pair_coeff terms from geometric mixing rule
Neighbor list info ...
  update every 1 steps, delay 0 steps, check yes
  max neighbors/atom: 2000, page size: 100000
  master list distance cutoff = 3.1
  ghost atom cutoff = 3.1
  binsize = 1.55, bins = 70 130 130
  1 neighbor lists, perpetual/occasional/extra = 1 0 0
  (1) pair granular, perpetual
      attributes: half, newton on, size, history
      pair build: half/size/bin/newton
      stencil: half/bin/3d
      bin: standard
Setting up Verlet run ...
  Unit style    : micro
  Current step  : 0
  Time step     : 1e-05
Per MPI rank memory allocation (min/avg/max) = 14.09 | 17.56 | 18.72 Mbytes
   Step           Lx             Ly             Lz           Press           Pxx            Pyy            Pzz           KinEng         PotEng          Temp          c_1[1]         c_1[2]         c_1[3]    
         0   107.1          200            200            0              0              0              0              0              0              0              2.6109412e-16  0              6            
    100000   107.1          200            200            0.0039784685  -7.1929133e-39  0              0.011935406    12249.589      0              5.9148883e+10  2.6109412e-16  0              3.3289524    
    200000   107.1          200            200            0.0013906561   8.6321886e-39  0              0.0041719682   2921.5346      0              1.4107045e+10  2.6109412e-16  0              3.079186     
    300000   107.1          200            200            9.5482202e-05 -6.8968902e-38  0              0.00028644661  28.310952      0              1.3670345e+08  2.6109412e-16  0              3.0466202    
    400000   107.1          200            200            0.013068411   -0.0039131472   0              0.04311838     173.53392      0              8.3793317e+08  2.6109412e-16  0              2.9929964    
    500000   107.1          200            200            0.00067997008  1.4159646e-36  0              0.0020399102   2.0506218      0              9901719        2.6109412e-16  0              2.9986875    
    600000   107.1          200            200            0.0053177246  -0.00056273262  0              0.016515906    4.7848648      0              23104400       2.6109412e-16  0              2.995355     
    700000   107.1          200            200            0.0040671195  -0.00023727793  0              0.012438636    0.18778522     0              906747.64      2.6109412e-16  0              2.9958648    
    800000   107.1          200            200            0.0046130895  -0.00045842238  0              0.014297691    0.076181106    0              367851.3       2.6109412e-16  0              2.9956121    
    900000   107.1          200            200            0.0047437614  -0.00045566776  0              0.014686952    0.012078749    0              58323.958      2.6109412e-16  0              2.9955635    
   1000000   107.1          200            200            0.0047594637  -0.00045661446  0              0.014735006    0.0013923075   0              6722.9548      2.6109412e-16  0              2.9955579    
   1100000   107.1          200            200            0.0047540221  -0.00045622878  0              0.014718295    0.00011405011  0              550.70715      2.6109412e-16  0              2.9955602    
   1200000   107.1          200            200            0.0047482634  -0.0004558404   0              0.014700631    5.1549244e-06  0              24.891285      2.6109412e-16  0              2.9955625    
   1300000   107.1          200            200            0.0047450634  -0.00045562625  0              0.014690816    1.2364393e-08  0              0.059703231    2.6109412e-16  0              2.9955637    
   1400000   107.1          200            200            0.0047436505  -0.00045553213  0              0.014686484    5.3345464e-08  0              0.25758615     2.6109412e-16  0              2.9955643    
   1500000   107.1          200            200            0.0047431153  -0.00045549666  0              0.014684843    3.0037471e-08  0              0.1450402      2.6109412e-16  0              2.9955645    
   1600000   107.1          200            200            0.0047429397  -0.00045548509  0              0.014684304    7.6581059e-09  0              0.036978252    2.6109412e-16  0              2.9955645    
   1700000   107.1          200            200            0.0047428919  -0.00045548197  0              0.014684158    1.333352e-09   0              0.0064382798   2.6109412e-16  0              2.9955646    
   1800000   107.1          200            200            0.0047428828  -0.00045548139  0              0.01468413     1.7372576e-10  0              0.00083885953  2.6109412e-16  0              2.9955646    
   1900000   107.1          200            200            0.0047428831  -0.00045548142  0              0.014684131    1.6734617e-11  0              8.0805477e-05  2.6109412e-16  0              2.9955646    
   2000000   107.1          200            200            0.0047428845  -0.00045548152  0              0.014684135    1.0399511e-12  0              5.0215518e-06  2.6109412e-16  0              2.9955646    
   2100000   107.1          200            200            0.0047428854  -0.00045548158  0              0.014684138    2.1078029e-14  0              1.0177826e-07  2.6109412e-16  0              2.9955646    
   2200000   107.1          200            200            0.0047428859  -0.00045548161  0              0.014684139    1.4812047e-15  0              7.1522075e-09  2.6109412e-16  0              2.9955646    
   2300000   107.1          200            200            0.004742886   -0.00045548162  0              0.01468414     2.1253451e-15  0              1.0262531e-08  2.6109412e-16  0              2.9955646    
   2400000   107.1          200            200            0.0047428861  -0.00045548163  0              0.01468414     6.9734325e-16  0              3.367221e-09   2.6109412e-16  0              2.9955646    
   2500000   107.1          200            200            0.0047428861  -0.00045548163  0              0.01468414     1.3985864e-16  0              6.7532732e-10  2.6109412e-16  0              2.9955646    
   2600000   107.1          200            200            0.0047428861  -0.00045548163  0              0.01468414     2.0644027e-17  0              9.9682621e-11  2.6109412e-16  0              2.9955646    
   2700000   107.1          200            200            0.0047428861  -0.00045548163  0              0.01468414     1.635279e-18   0              7.8961769e-12  2.6109412e-16  0              2.9955646    
   2800000   107.1          200            200            0.0047428861  -0.00045548163  0              0.01468414     6.4193759e-21  0              3.0996869e-14  2.6109412e-16  0              2.9955646    
   2900000   107.1          200            200            0.0047428861  -0.00045548163  0              0.01468414     1.3650204e-19  0              6.591195e-13   2.6109412e-16  0              2.9955646    
   3000000   107.1          200            200            0.0047428861  -0.00045548163  0              0.01468414     1.405775e-19   0              6.7879845e-13  2.6109412e-16  0              2.9955646    
Loop time of 63.8978 on 4 procs for 3000000 steps with 51 atoms

Performance: 40564778.273 ns/day, 0.000 hours/ns, 46949.975 timesteps/s
100.0% CPU use with 4 MPI tasks x 1 OpenMP threads

MPI task timing breakdown:
Section |  min time  |  avg time  |  max time  |%varavg| %total
---------------------------------------------------------------
Pair    | 0.32585    | 1.6859     | 5.5453     | 171.7 |  2.64
Neigh   | 0.055918   | 0.0565     | 0.058081   |   0.4 |  0.09
Comm    | 25.636     | 32.384     | 38.201     |  84.4 | 50.68
Output  | 0.056412   | 0.056504   | 0.056571   |   0.0 |  0.09
Modify  | 14.99      | 21.012     | 28.826     | 127.3 | 32.88
Other   |            | 8.704      |            |       | 13.62

Nlocal:          12.75 ave          51 max           0 min
Histogram: 3 0 0 0 0 0 0 0 0 1
Nghost:          39.25 ave          52 max           1 min
Histogram: 1 0 0 0 0 0 0 0 0 3
Neighs:           7.25 ave          29 max           0 min
Histogram: 3 0 0 0 0 0 0 0 0 1

Total # of neighbors = 29
Ave neighs/atom = 0.56862745
Neighbor list builds = 164
Dangerous builds = 0
  using 1 OpenMP thread(s) per MPI task
Lattice spacing in x,y,z = 3.58 3.58 3.58
Created orthogonal box = (-53.7 -100 -100) to (53.7 100 100)
  1 by 2 by 2 MPI processor grid
Created 30 atoms
  using lattice units in orthogonal box = (-53.7 -100 -100) to (53.7 100 100)
  create_atoms CPU = 0.000 seconds
Lattice spacing in x,y,z = 3 3 3
Created 21 atoms
  using lattice units in orthogonal box = (-53.7 -100 -100) to (53.7 100 100)
  create_atoms CPU = 0.002 seconds
Setting atom values ...
  30 settings made for diameter
Setting atom values ...
  30 settings made for mass
Setting atom values ...
  21 settings made for diameter
Setting atom values ...
  21 settings made for mass
30 atoms in group substrate
21 atoms in group slider1
  1 rigid bodies with 21 atoms
Generated 0 of 1 mixed pair_coeff terms from geometric mixing rule
Neighbor list info ...
  update every 1 steps, delay 0 steps, check yes
  max neighbors/atom: 2000, page size: 100000
  master list distance cutoff = 3.1
  ghost atom cutoff = 3.1
  binsize = 1.55, bins = 70 130 130
  1 neighbor lists, perpetual/occasional/extra = 1 0 0
  (1) pair granular, perpetual
      attributes: half, newton on, size, history
      pair build: half/size/bin/newton
      stencil: half/bin/3d
      bin: standard
Setting up Verlet run ...
  Unit style    : micro
  Current step  : 0
  Time step     : 1e-05
Per MPI rank memory allocation (min/avg/max) = 14.09 | 17.56 | 18.72 Mbytes
   Step           Lx             Ly             Lz           Press           Pxx            Pyy            Pzz           KinEng         PotEng          Temp          c_1[1]         c_1[2]         c_1[3]    
         0   107.4          200            200            0              0              0              0              0              0              0              2.6109412e-16  0              6            
    100000   107.4          200            200            0.0039638507  -2.151765e-39   0              0.011891552    12228.346      0              5.9046306e+10  2.6109412e-16  0              3.3315072    
    200000   107.4          200            200            0.0013823338  -1.1655991e-39  0              0.0041470015   2905.2473      0              1.4028399e+10  2.6109412e-16  0              3.0814869    
    300000   107.4          200            200            9.5328699e-05  1.4347249e-39  0              0.0002859861   28.353888      0              1.3691078e+08  2.6109412e-16  0              3.0478814    
    400000   107.4          200            200            0.02294043    -0.0060863221   0              0.074907613    52.205217      0              2.5208031e+08  2.6109412e-16  0              2.992097     
    500000   107.4          200            200            0.0047273946  -0.00183296     0              0.016015144    39.762315      0              1.9199799e+08  2.6109412e-16  0              2.9964773    
    600000   107.4          200            200            0.0071765326  -0.0016003789   0              0.023129977    0.58971548     0              2847525        2.6109412e-16  0              2.995813     
    700000   107.4          200            200            0.004055669   -0.0010936968   0              0.013260704    0.58786665     0              2838597.7      2.6109412e-16  0              2.9968106    
    800000   107.4          200            200            0.004236618   -0.0011065646   0              0.013816419    0.04724459     0              228127.22      2.6109412e-16  0              2.9967433    
    900000   107.4          200            200            0.0046249911  -0.0011282935   0              0.015003267    0.0038824124   0              18746.78       2.6109412e-16  0              2.9966154    
   1000000   107.4          200            200            0.0045249552  -0.0011229445   0              0.01469781     0.0016661598   0              8045.2892      2.6109412e-16  0              2.9966487    
   1100000   107.4          200            200            0.0044902473  -0.0011210986   0              0.014591841    1.5475673e-06  0              7.4726488      2.6109412e-16  0              2.9966599    
   1200000   107.4          200            200            0.0045098297  -0.0011221719   0              0.014651661    3.2941206e-05  0              159.06129      2.6109412e-16  0              2.9966534    
   1300000   107.4          200            200            0.0045111044  -0.0011222347   0              0.014655548    6.997749e-07   0              3.3789626      2.6109412e-16  0              2.996653     
   1400000   107.4          200            200            0.0045082299  -0.001122079    0              0.014646769    3.9710321e-07  0              1.9174693      2.6109412e-16  0              2.996654     
   1500000   107.4          200            200            0.0045085608  -0.0011220978   0              0.01464778     4.9959228e-08  0              0.24123523     2.6109412e-16  0              2.9966538    
   1600000   107.4          200            200            0.0045088918  -0.0011221156   0              0.014648791    2.1288738e-09  0              0.010279569    2.6109412e-16  0              2.9966537    
   1700000   107.4          200            200            0.0045087891  -0.0011221099   0              0.014648477    1.4686954e-09  0              0.0070918046   2.6109412e-16  0              2.9966538    
   1800000   107.4          200            200            0.0045087623  -0.0011221085   0              0.014648395    2.1733184e-13  0              1.0494177e-06  2.6109412e-16  0              2.9966538    
   1900000   107.4          200            200            0.0045087809  -0.0011221095   0              0.014648452    2.6052865e-11  0              0.00012579996  2.6109412e-16  0              2.9966538    
   2000000   107.4          200            200            0.0045087813  -0.0011221095   0              0.014648453    9.151913e-13   0              4.4191312e-06  2.6109412e-16  0              2.9966538    
   2100000   107.4          200            200            0.0045087787  -0.0011221094   0              0.014648445    2.7374596e-13  0              1.3218212e-06  2.6109412e-16  0              2.9966538    
   2200000   107.4          200            200            0.0045087791  -0.0011221094   0              0.014648447    4.8879801e-14  0              2.3602307e-07  2.6109412e-16  0              2.9966538    
   2300000   107.4          200            200            0.0045087794  -0.0011221094   0              0.014648448    1.031794e-15   0              4.982164e-09   2.6109412e-16  0              2.9966538    
   2400000   107.4          200            200            0.0045087793  -0.0011221094   0              0.014648447    1.262208e-15   0              6.0947509e-09  2.6109412e-16  0              2.9966538    
   2500000   107.4          200            200            0.0045087793  -0.0011221094   0              0.014648447    3.8404044e-18  0              1.8543938e-11  2.6109412e-16  0              2.9966538    
   2600000   107.4          200            200            0.0045087793  -0.0011221094   0              0.014648447    1.9636214e-17  0              9.4816251e-11  2.6109412e-16  0              2.9966538    
   2700000   107.4          200            200            0.0045087793  -0.0011221094   0              0.014648447    2.0091446e-18  0              9.7014403e-12  2.6109412e-16  0              2.9966538    
   2800000   107.4          200            200            0.0045087793  -0.0011221094   0              0.014648447    1.1155031e-19  0              5.3863654e-13  2.6109412e-16  0              2.9966538    
   2900000   107.4          200            200            0.0045087793  -0.0011221094   0              0.014648447    4.091798e-21   0              1.9757828e-14  2.6109412e-16  0              2.9966538    
   3000000   107.4          200            200            0.0045087793  -0.0011221094   0              0.014648447    1.6093234e-19  0              7.770847e-13   2.6109412e-16  0              2.9966538    
Loop time of 63.4598 on 4 procs for 3000000 steps with 51 atoms

Performance: 40844783.840 ns/day, 0.000 hours/ns, 47274.055 timesteps/s
100.0% CPU use with 4 MPI tasks x 1 OpenMP threads

MPI task timing breakdown:
Section |  min time  |  avg time  |  max time  |%varavg| %total
---------------------------------------------------------------
Pair    | 0.31246    | 1.682      | 5.5271     | 171.2 |  2.65
Neigh   | 0.05655    | 0.05718    | 0.058877   |   0.4 |  0.09
Comm    | 25.588     | 32.111     | 37.904     |  82.6 | 50.60
Output  | 0.055961   | 0.056047   | 0.05611    |   0.0 |  0.09
Modify  | 14.878     | 20.805     | 28.4       | 125.0 | 32.79
Other   |            | 8.748      |            |       | 13.78

Nlocal:          12.75 ave          51 max           0 min
Histogram: 3 0 0 0 0 0 0 0 0 1
Nghost:          39.25 ave          52 max           1 min
Histogram: 1 0 0 0 0 0 0 0 0 3
Neighs:           7.25 ave          29 max           0 min
Histogram: 3 0 0 0 0 0 0 0 0 1

Total # of neighbors = 29
Ave neighs/atom = 0.56862745
Neighbor list builds = 166
Dangerous builds = 0
  using 1 OpenMP thread(s) per MPI task
Lattice spacing in x,y,z = 3.59 3.59 3.59
Created orthogonal box = (-53.85 -100 -100) to (53.85 100 100)
  1 by 2 by 2 MPI processor grid
Created 30 atoms
  using lattice units in orthogonal box = (-53.85 -100 -100) to (53.85 100 100)
  create_atoms CPU = 0.000 seconds
Lattice spacing in x,y,z = 3 3 3
Created 21 atoms
  using lattice units in orthogonal box = (-53.85 -100 -100) to (53.85 100 100)
  create_atoms CPU = 0.001 seconds
Setting atom values ...
  30 settings made for diameter
Setting atom values ...
  30 settings made for mass
Setting atom values ...
  21 settings made for diameter
Setting atom values ...
  21 settings made for mass
30 atoms in group substrate
21 atoms in group slider1
  1 rigid bodies with 21 atoms
Generated 0 of 1 mixed pair_coeff terms from geometric mixing rule
Neighbor list info ...
  update every 1 steps, delay 0 steps, check yes
  max neighbors/atom: 2000, page size: 100000
  master list distance cutoff = 3.1
  ghost atom cutoff = 3.1
  binsize = 1.55, bins = 70 130 130
  1 neighbor lists, perpetual/occasional/extra = 1 0 0
  (1) pair granular, perpetual
      attributes: half, newton on, size, history
      pair build: half/size/bin/newton
      stencil: half/bin/3d
      bin: standard
Setting up Verlet run ...
  Unit style    : micro
  Current step  : 0
  Time step     : 1e-05
Per MPI rank memory allocation (min/avg/max) = 14.09 | 17.56 | 18.72 Mbytes
   Step           Lx             Ly             Lz           Press           Pxx            Pyy            Pzz           KinEng         PotEng          Temp          c_1[1]         c_1[2]         c_1[3]    
         0   107.7          200            200            0              0              0              0              0              0              0              2.6109412e-16  0              6            
    100000   107.7          200            200            0.0039525805  -1.0914525e-44  0              0.011857741    12224.553      0              5.9027993e+10  2.6109412e-16  0              3.332603     
    200000   107.7          200            200            0.0013769779  -3.492648e-42   0              0.0041309336   2899.2534      0              1.3999457e+10  2.6109412e-16  0              3.0827519    
    300000   107.7          200            200            9.1621316e-05  4.1911777e-42  0              0.00027486395  26.409274      0              1.2752093e+08  2.6109412e-16  0              3.0488286    
    400000   107.7          200            200            0.024321811   -0.0019349242   0              0.074900358    55.665154      0              2.6878711e+08  2.6109412e-16  0              2.9929017    
    500000   107.7          200            200            0.00023407962 -4.2917059e-05  0              0.00074515593  19.304944      0              93216665       2.6109412e-16  0              2.9993745    
    600000   107.7          200            200            0.0035697503  -0.0005908769   0              0.011300128    4.8622615      0              23478121       2.6109412e-16  0              2.9978019    
    700000   107.7          200            200            0.0040383388  -0.0006028247   0              0.012717841    0.49811573     0              2405222.6      2.6109412e-16  0              2.9976335    
    800000   107.7          200            200            0.0044657608  -0.00061098249  0              0.014008265    0.077589469    0              374651.78      2.6109412e-16  0              2.9974911    
    900000   107.7          200            200            0.0046106472  -0.00061332802  0              0.01444527     0.012183206    0              58828.341      2.6109412e-16  0              2.9974438    
   1000000   107.7          200            200            0.0046529867  -0.00061398051  0              0.014572941    0.0018230656   0              8802.9313      2.6109412e-16  0              2.99743      
   1100000   107.7          200            200            0.004663921   -0.00061414862  0              0.014605912    0.00026006746  0              1255.7727      2.6109412e-16  0              2.9974264    
   1200000   107.7          200            200            0.0046661414  -0.00061418386  0              0.014612608    3.5464006e-05  0              171.24299      2.6109412e-16  0              2.9974256    
   1300000   107.7          200            200            0.0046662788  -0.00061418686  0              0.014613023    4.6255157e-06  0              22.33496       2.6109412e-16  0              2.9974256    
   1400000   107.7          200            200            0.0046660786  -0.00061418428  0              0.01461242     5.7610943e-07  0              2.7818262      2.6109412e-16  0              2.9974256    
   1500000   107.7          200            200            0.0046659145  -0.000614182    0              0.014611925    6.8246162e-08  0              0.32953629     2.6109412e-16  0              2.9974257    
   1600000   107.7          200            200            0.0046658221  -0.00061418069  0              0.014611647    7.6337299e-09  0              0.03686055     2.6109412e-16  0              2.9974257    
   1700000   107.7          200            200            0.0046657771  -0.00061418005  0              0.014611511    7.9645889e-10  0              0.0038458149   2.6109412e-16  0              2.9974257    
   1800000   107.7          200            200            0.0046657569  -0.00061417975  0              0.01461145     7.5888525e-11  0              0.00036643853  2.6109412e-16  0              2.9974257    
   1900000   107.7          200            200            0.0046657482  -0.00061417963  0              0.014611424    6.3483458e-12  0              3.065389e-05   2.6109412e-16  0              2.9974257    
   2000000   107.7          200            200            0.0046657447  -0.00061417958  0              0.014611414    4.2839114e-13  0              2.0685475e-06  2.6109412e-16  0              2.9974257    
   2100000   107.7          200            200            0.0046657433  -0.00061417956  0              0.014611409    1.8292647e-14  0              8.8328647e-08  2.6109412e-16  0              2.9974257    
   2200000   107.7          200            200            0.0046657427  -0.00061417955  0              0.014611408    9.487027e-17   0              4.5809458e-10  2.6109412e-16  0              2.9974257    
   2300000   107.7          200            200            0.0046657425  -0.00061417955  0              0.014611407    1.2407449e-16  0              5.9911132e-10  2.6109412e-16  0              2.9974257    
[...]
   2900000   134.4          200            200            0.0037485023  -0.00046488884  0              0.011710396    1.6153973e-19  0              7.8001753e-13  2.6109412e-16  0              2.9978613    
   3000000   134.4          200            200            0.0037485023  -0.00046488884  0              0.011710396    1.3117955e-21  0              6.334191e-15   2.6109412e-16  0              2.9978613    
Loop time of 63.295 on 4 procs for 3000000 steps with 51 atoms

Performance: 40951103.573 ns/day, 0.000 hours/ns, 47397.111 timesteps/s
100.0% CPU use with 4 MPI tasks x 1 OpenMP threads

MPI task timing breakdown:
Section |  min time  |  avg time  |  max time  |%varavg| %total
---------------------------------------------------------------
Pair    | 0.30659    | 1.7486     | 5.7755     | 175.9 |  2.76
Neigh   | 0.070231   | 0.070753   | 0.072254   |   0.3 |  0.11
Comm    | 25.54      | 31.994     | 37.845     |  81.9 | 50.55
Output  | 0.061069   | 0.061154   | 0.061215   |   0.0 |  0.10
Modify  | 14.775     | 20.693     | 28.24      | 124.6 | 32.69
Other   |            | 8.728      |            |       | 13.79

Nlocal:          12.75 ave          51 max           0 min
Histogram: 3 0 0 0 0 0 0 0 0 1
Nghost:          39.25 ave          52 max           1 min
Histogram: 1 0 0 0 0 0 0 0 0 3
Neighs:           6.75 ave          27 max           0 min
Histogram: 3 0 0 0 0 0 0 0 0 1

Total # of neighbors = 27
Ave neighs/atom = 0.52941176
Neighbor list builds = 168
Dangerous builds = 0
  using 1 OpenMP thread(s) per MPI task
Lattice spacing in x,y,z = 4.49 4.49 4.49
Created orthogonal box = (-67.35 -100 -100) to (67.35 100 100)
  1 by 2 by 2 MPI processor grid
Created 29 atoms
  using lattice units in orthogonal box = (-67.35 -100 -100) to (67.35 100 100)
  create_atoms CPU = 0.000 seconds
Lattice spacing in x,y,z = 3 3 3
Created 21 atoms
  using lattice units in orthogonal box = (-67.35 -100 -100) to (67.35 100 100)
  create_atoms CPU = 0.001 seconds
Setting atom values ...
  29 settings made for diameter
Setting atom values ...
  29 settings made for mass
Setting atom values ...
  21 settings made for diameter
Setting atom values ...
  21 settings made for mass
29 atoms in group substrate
21 atoms in group slider1
  1 rigid bodies with 21 atoms
Generated 0 of 1 mixed pair_coeff terms from geometric mixing rule
Neighbor list info ...
  update every 1 steps, delay 0 steps, check yes
  max neighbors/atom: 2000, page size: 100000
  master list distance cutoff = 3.1
  ghost atom cutoff = 3.1
  binsize = 1.55, bins = 87 130 130
  1 neighbor lists, perpetual/occasional/extra = 1 0 0
  (1) pair granular, perpetual
      attributes: half, newton on, size, history
      pair build: half/size/bin/newton
      stencil: half/bin/3d
      bin: standard
Setting up Verlet run ...
  Unit style    : micro
  Current step  : 0
  Time step     : 1e-05
Per MPI rank memory allocation (min/avg/max) = 14.42 | 17.89 | 19.05 Mbytes
   Step           Lx             Ly             Lz           Press           Pxx            Pyy            Pzz           KinEng         PotEng          Temp          c_1[1]         c_1[2]         c_1[3]    
         0   134.7          200            200            0              0              0              0              0              0              0              2.6109412e-16  0              6            
    100000   134.7          200            200            0.0032009305   4.5755613e-39  0              0.0096027916   12463.605      0              6.686921e+10   2.6109412e-16  0              3.3226171    
    200000   134.7          200            200            0.0011964538   5.9483098e-38  0              0.0035893614   3302.7596      0              1.7719827e+10  2.6109412e-16  0              3.0655668    
    300000   134.7          200            200            0.00022119458  2.7462217e-38  0              0.00066358375  206.68931      0              1.1089208e+09  2.6109412e-16  0              3.0438513    
    400000   134.7          200            200           -1.4163023e-05  4.5760725e-39  0             -4.2489068e-05  1.1155741      0              5985231        2.6109412e-16  0              3.0111287    
    500000   134.7          200            200           -3.8057984e-05  2.2878106e-39  0             -0.00011417395  8.4563272      0              45369531       2.6109412e-16  0              3.0009574    
    600000   134.7          200            200            0.0063035526  -0.00055799402  0              0.019468652    3.8812549      0              20823546       2.6109412e-16  0              2.9978978    
    700000   134.7          200            200            0.0031578514  -0.00040754041  0              0.0098810945   0.80121262     0              4298632.2      2.6109412e-16  0              2.9985729    
    800000   134.7          200            200            0.0036990876  -0.00041577186  0              0.011513035    0.13668229     0              733322.05      2.6109412e-16  0              2.9984502    
    900000   134.7          200            200            0.0038417661  -0.00041738733  0              0.011942686    0.014299444    0              76718.777      2.6109412e-16  0              2.9984165    
   1000000   134.7          200            200            0.003706617   -0.00041591784  0              0.011535769    0.00098833381  0              5302.567       2.6109412e-16  0              2.9984475    
   1100000   134.7          200            200            0.0037793296  -0.00041673248  0              0.011754721    2.9343359e-05  0              157.43176      2.6109412e-16  0              2.9984309    
   1200000   134.7          200            200            0.0037480014  -0.00041639209  0              0.011660396    3.0887276e-07  0              1.6571511      2.6109412e-16  0              2.998438     
   1300000   134.7          200            200            0.0037595704  -0.00041651877  0              0.01169523     1.2378643e-06  0              6.6413374      2.6109412e-16  0              2.9984354    
   1400000   134.7          200            200            0.0037558946  -0.00041647892  0              0.011684163    4.6993635e-07  0              2.5212827      2.6109412e-16  0              2.9984362    
   1500000   134.7          200            200            0.0037568425  -0.00041648912  0              0.011687017    1.0129492e-07  0              0.54346322     2.6109412e-16  0              2.998436     
   1600000   134.7          200            200            0.0037566916  -0.00041648755  0              0.011686562    1.5596645e-08  0              0.083678462    2.6109412e-16  0              2.998436     
   1700000   134.7          200            200            0.0037566665  -0.00041648724  0              0.011686487    1.7925849e-09  0              0.0096175013   2.6109412e-16  0              2.998436     
   1800000   134.7          200            200            0.0037567041  -0.00041648766  0              0.0116866      1.4532641e-10  0              0.00077969913  2.6109412e-16  0              2.998436     
   1900000   134.7          200            200            0.0037566818  -0.00041648742  0              0.011686533    6.3254959e-12  0              3.3937285e-05  2.6109412e-16  0              2.998436     
   2000000   134.7          200            200            0.003756692   -0.00041648753  0              0.011686563    7.8736119e-15  0              4.2243171e-08  2.6109412e-16  0              2.998436     
   2100000   134.7          200            200            0.003756688   -0.00041648749  0              0.011686552    7.8115776e-14  0              4.1910347e-07  2.6109412e-16  0              2.998436     
   2200000   134.7          200            200            0.0037566894  -0.0004164875   0              0.011686556    4.1269543e-14  0              2.2141762e-07  2.6109412e-16  0              2.998436     
   2300000   134.7          200            200            0.003756689   -0.0004164875   0              0.011686554    1.0219792e-14  0              5.48308e-08    2.6109412e-16  0              2.998436     
   2400000   134.7          200            200            0.0037566891  -0.0004164875   0              0.011686555    1.732846e-15   0              9.2969925e-09  2.6109412e-16  0              2.998436     
   2500000   134.7          200            200            0.0037566891  -0.0004164875   0              0.011686555    2.1666676e-16  0              1.1624514e-09  2.6109412e-16  0              2.998436     
   2600000   134.7          200            200            0.0037566891  -0.0004164875   0              0.011686555    1.9065559e-17  0              1.0228973e-10  2.6109412e-16  0              2.998436     
   2700000   134.7          200            200            0.0037566891  -0.0004164875   0              0.011686555    2.2456193e-18  0              1.2048102e-11  2.6109412e-16  0              2.998436     
   2800000   134.7          200            200            0.0037566891  -0.0004164875   0              0.011686555    5.7514242e-20  0              3.0857299e-13  2.6109412e-16  0              2.998436     
   2900000   134.7          200            200            0.0037566891  -0.0004164875   0              0.011686555    2.3172377e-20  0              1.2432346e-13  2.6109412e-16  0              2.998436     
   3000000   134.7          200            200            0.0037566891  -0.0004164875   0              0.011686555    3.3866591e-20  0              1.8169961e-13  2.6109412e-16  0              2.998436     
Loop time of 62.2861 on 4 procs for 3000000 steps with 50 atoms

Performance: 41614403.602 ns/day, 0.000 hours/ns, 48164.819 timesteps/s
100.0% CPU use with 4 MPI tasks x 1 OpenMP threads

MPI task timing breakdown:
Section |  min time  |  avg time  |  max time  |%varavg| %total
---------------------------------------------------------------
Pair    | 0.31047    | 1.7719     | 5.8963     | 178.9 |  2.84
Neigh   | 0.070256   | 0.070755   | 0.072216   |   0.3 |  0.11
Comm    | 24.941     | 31.096     | 36.908     |  79.9 | 49.92
Output  | 0.060944   | 0.061026   | 0.061087   |   0.0 |  0.10
Modify  | 14.832     | 20.569     | 27.873     | 120.8 | 33.02
Other   |            | 8.717      |            |       | 14.00

Nlocal:           12.5 ave          50 max           0 min
Histogram: 3 0 0 0 0 0 0 0 0 1
Nghost:           37.5 ave          50 max           0 min
Histogram: 1 0 0 0 0 0 0 0 0 3
Neighs:           6.75 ave          27 max           0 min
Histogram: 3 0 0 0 0 0 0 0 0 1

Total # of neighbors = 27
Ave neighs/atom = 0.54
Neighbor list builds = 168
Dangerous builds = 0
  using 1 OpenMP thread(s) per MPI task
Lattice spacing in x,y,z = 4.5 4.5 4.5
Created orthogonal box = (-67.5 -100 -100) to (67.5 100 100)
  1 by 2 by 2 MPI processor grid
Created 30 atoms
  using lattice units in orthogonal box = (-67.5 -100 -100) to (67.5 100 100)
  create_atoms CPU = 0.000 seconds
Lattice spacing in x,y,z = 3 3 3
Created 21 atoms
  using lattice units in orthogonal box = (-67.5 -100 -100) to (67.5 100 100)
  create_atoms CPU = 0.001 seconds
Setting atom values ...
  30 settings made for diameter
Setting atom values ...
  30 settings made for mass
Setting atom values ...
  21 settings made for diameter
Setting atom values ...
  21 settings made for mass
30 atoms in group substrate
21 atoms in group slider1
  1 rigid bodies with 21 atoms
Generated 0 of 1 mixed pair_coeff terms from geometric mixing rule
Neighbor list info ...
  update every 1 steps, delay 0 steps, check yes
  max neighbors/atom: 2000, page size: 100000
  master list distance cutoff = 3.1
  ghost atom cutoff = 3.1
  binsize = 1.55, bins = 88 130 130
  1 neighbor lists, perpetual/occasional/extra = 1 0 0
  (1) pair granular, perpetual
      attributes: half, newton on, size, history
      pair build: half/size/bin/newton
      stencil: half/bin/3d
      bin: standard
Setting up Verlet run ...
  Unit style    : micro
  Current step  : 0
  Time step     : 1e-05
Per MPI rank memory allocation (min/avg/max) = 14.44 | 17.91 | 19.07 Mbytes
   Step           Lx             Ly             Lz           Press           Pxx            Pyy            Pzz           KinEng         PotEng          Temp          c_1[1]         c_1[2]         c_1[3]    
         0   135            200            200            0              0              0              0              0              0              0              2.6109412e-16  0              6            
    100000   135            200            200            0.0031942729   4.5701833e-39  0              0.0095828188   12465.751      0              6.0192649e+10  2.6109412e-16  0              3.3227139    
    200000   135            200            200            0.0011938664   9.1464454e-39  0              0.0035815993   3302.7397      0              1.5947748e+10  2.6109412e-16  0              3.0658642    
    300000   135            200            200            0.00021984294  9.1372998e-39  0              0.00065952881  205.20983      0              9.9088482e+08  2.6109412e-16  0              3.044206     
    400000   135            200            200           -1.570438e-05  -7.9887762e-39  0             -4.7113141e-05  1.3820754      0              6673547.5      2.6109412e-16  0              3.0113837    
    500000   135            200            200           -3.6633259e-05  2.2860891e-43  0             -0.00010989978  7.8514931      0              37912050       2.6109412e-16  0              3.0012429    
    600000   135            200            200            0.0027623624   1.0129781e-42  0              0.0082870872   6.8248134      0              32954581       2.6109412e-16  0              2.9989502    
    700000   135            200            200            0.0030059892  -1.5872275e-41  0              0.0090179677   0.5360667      0              2588474.2      2.6109412e-16  0              2.9989008    
    800000   135            200            200            0.004115764    3.1451889e-40  0              0.012347292    0.10890469     0              525861.78      2.6109412e-16  0              2.9986406    
    900000   135            200            200            0.0038658112   3.4527518e-40  0              0.011597434    0.018747424    0              90524.602      2.6109412e-16  0              2.9986976    
   1000000   135            200            200            0.0038683798  -8.9919533e-39  0              0.01160514     0.002370006    0              11443.911      2.6109412e-16  0              2.9986965    
   1100000   135            200            200            0.0039026584  -1.8146484e-38  0              0.011707975    0.00020569639  0              993.23423      2.6109412e-16  0              2.998689     
   1200000   135            200            200            0.0038792884  -1.8121514e-38  0              0.011637865    9.4850911e-06  0              45.80011       2.6109412e-16  0              2.9986941    
   1300000   135            200            200            0.0038904356  -7.3175093e-38  0              0.011671307    1.9180266e-08  0              0.09261464     2.6109412e-16  0              2.9986917    
   1400000   135            200            200            0.0038860768  -7.2886838e-38  0              0.01165823     1.0457151e-07  0              0.50493841     2.6109412e-16  0              2.9986926    
   1500000   135            200            200            0.0038875088   1.2710581e-38  0              0.011662526    5.6124542e-08  0              0.27100533     2.6109412e-16  0              2.9986923    
   1600000   135            200            200            0.0038871324   2.6763903e-38  0              0.011661397    1.3472012e-08  0              0.065051522    2.6109412e-16  0              2.9986924    
   1700000   135            200            200            0.0038871926   2.7193624e-38  0              0.011661578    2.1391248e-09  0              0.010329068    2.6109412e-16  0              2.9986924    
   1800000   135            200            200            0.0038872029   5.4265508e-38  0              0.011661609    2.4018676e-10  0              0.0011597759   2.6109412e-16  0              2.9986924    
   1900000   135            200            200            0.0038871878  -1.2654491e-37  0              0.011661563    1.7619393e-11  0              8.5077745e-05  2.6109412e-16  0              2.9986924    
   2000000   135            200            200            0.0038871966   1.4995939e-37  0              0.01166159     5.4009475e-13  0              2.6079243e-06  2.6109412e-16  0              2.9986924    
   2100000   135            200            200            0.0038871927  -1.0908635e-37  0              0.011661578    5.2064692e-15  0              2.5140177e-08  2.6109412e-16  0              2.9986924    
   2200000   135            200            200            0.0038871942  -7.9543792e-38  0              0.011661583    2.1921123e-14  0              1.0584926e-07  2.6109412e-16  0              2.9986924    
   2300000   135            200            200            0.0038871937  -2.1956806e-38  0              0.011661581    8.1318604e-15  0              3.9265843e-08  2.6109412e-16  0              2.9986924    
   2400000   135            200            200            0.0038871938  -5.1604505e-38  0              0.011661582    1.6686124e-15  0              8.0571322e-09  2.6109412e-16  0              2.9986924    
   2500000   135            200            200            0.0038871938  -8.2369791e-38  0              0.011661581    2.3342313e-16  0              1.1271167e-09  2.6109412e-16  0              2.9986924    
   2600000   135            200            200            0.0038871938   4.5314755e-38  0              0.011661581    2.3388344e-17  0              1.1293394e-10  2.6109412e-16  0              2.9986924    
   2700000   135            200            200            0.0038871938  -8.8778916e-38  0              0.011661581    3.8601464e-19  0              1.8639266e-12  2.6109412e-16  0              2.9986924    
   2800000   135            200            200            0.0038871938   1.3082425e-37  0              0.011661581    3.3293117e-19  0              1.6076055e-12  2.6109412e-16  0              2.9986924    
   2900000   135            200            200            0.0038871938  -6.129638e-38   0              0.011661581    1.3108954e-19  0              6.3298447e-13  2.6109412e-16  0              2.9986924    
   3000000   135            200            200            0.0038871938  -7.5795086e-38  0              0.011661581    3.2790714e-20  0              1.5833462e-13  2.6109412e-16  0              2.9986924    
Loop time of 63.4372 on 4 procs for 3000000 steps with 51 atoms

Performance: 40859279.195 ns/day, 0.000 hours/ns, 47290.832 timesteps/s
100.0% CPU use with 4 MPI tasks x 1 OpenMP threads

MPI task timing breakdown:
Section |  min time  |  avg time  |  max time  |%varavg| %total
---------------------------------------------------------------
Pair    | 0.31045    | 1.8064     | 6.0142     | 180.8 |  2.85
Neigh   | 0.07103    | 0.071547   | 0.073053   |   0.3 |  0.11
Comm    | 25.602     | 32.026     | 37.953     |  81.7 | 50.48
Output  | 0.060714   | 0.060793   | 0.060851   |   0.0 |  0.10
Modify  | 14.831     | 20.73      | 28.342     | 125.0 | 32.68
Other   |            | 8.742      |            |       | 13.78

Nlocal:          12.75 ave          51 max           0 min
Histogram: 3 0 0 0 0 0 0 0 0 1
Nghost:          39.25 ave          52 max           1 min
Histogram: 1 0 0 0 0 0 0 0 0 3
Neighs:           6.75 ave          27 max           0 min
Histogram: 3 0 0 0 0 0 0 0 0 1

Total # of neighbors = 27
Ave neighs/atom = 0.52941176
Neighbor list builds = 168
Dangerous builds = 0
  using 1 OpenMP thread(s) per MPI task
Total wall time: 1:45:34
