ITEM: TIMESTEP
1700000
ITEM: NUMBER OF ATOMS
5001
ITEM: BOX BOUNDS pp pp pp
-9.0000000000000000e+03 9.0000000000000000e+03
-1.0000000000000000e+02 1.0000000000000000e+02
-1.0000000000000000e+02 1.0000000000000000e+02
ITEM: ATOMS id type diameter mass xu yu zu fx fy fz
1 1 4.33 93.5158 -9000 0 0 0 0 0
2 1 4.33 93.5158 -8994 0 0 0 0 0
3 1 4.33 93.5158 -8988 0 0 0 0 0
4 1 4.33 93.5158 -8982 0 0 0 0 0
5 1 4.33 93.5158 -8976 0 0 0 0 0
6 1 4.33 93.5158 -8970 0 0 0 0 0
7 1 4.33 93.5158 -8964 0 0 0 0 0
8 1 4.33 93.5158 -8958 0 0 0 0 0
9 1 4.33 93.5158 -8952 0 0 0 0 0
10 1 4.33 93.5158 -8946 0 0 0 0 0
11 1 4.33 93.5158 -8940 0 0 0 0 0
12 1 4.33 93.5158 -8934 0 0 0 0 0
13 1 4.33 93.5158 -8928 0 0 0 0 0
14 1 4.33 93.5158 -8922 0 0 0 0 0
15 1 4.33 93.5158 -8916 0 0 0 0 0
16 1 4.33 93.5158 -8910 0 0 0 0 0
17 1 4.33 93.5158 -8904 0 0 0 0 0
18 1 4.33 93.5158 -8898 0 0 0 0 0
19 1 4.33 93.5158 -8892 0 0 0 0 0
20 1 4.33 93.5158 -8886 0 0 0 0 0
21 1 4.33 93.5158 -8880 0 0 0 0 0
22 1 4.33 93.5158 -8874 0 0 0 0 0
23 1 4.33 93.5158 -8868 0 0 0 0 0
24 1 4.33 93.5158 -8862 0 0 0 0 0
25 1 4.33 93.5158 -8856 0 0 0 0 0
26 1 4.33 93.5158 -8850 0 0 0 0 0
27 1 4.33 93.5158 -8844 0 0 0 0 0
28 1 4.33 93.5158 -8838 0 0 0 0 0
29 1 4.33 93.5158 -8832 0 0 0 0 0
30 1 4.33 93.5158 -8826 0 0 0 0 0
31 1 4.33 93.5158 -8820 0 0 0 0 0
32 1 4.33 93.5158 -8814 0 0 0 0 0
33 1 4.33 93.5158 -8808 0 0 0 0 0
34 1 4.33 93.5158 -8802 0 0 0 0 0
35 1 4.33 93.5158 -8796 0 0 0 0 0
36 1 4.33 93.5158 -8790 0 0 0 0 0
37 1 4.33 93.5158 -8784 0 0 0 0 0
38 1 4.33 93.5158 -8778 0 0 0 0 0
39 1 4.33 93.5158 -8772 0 0 0 0 0
40 1 4.33 93.5158 -8766 0 0 0 0 0
41 1 4.33 93.5158 -8760 0 0 0 0 0
42 1 4.33 93.5158 -8754 0 0 0 0 0
43 1 4.33 93.5158 -8748 0 0 0 0 0
44 1 4.33 93.5158 -8742 0 0 0 0 0
45 1 4.33 93.5158 -8736 0 0 0 0 0
46 1 4.33 93.5158 -8730 0 0 0 0 0
47 1 4.33 93.5158 -8724 0 0 0 0 0
48 1 4.33 93.5158 -8718 0 0 0 0 0
49 1 4.33 93.5158 -8712 0 0 0 0 0
50 1 4.33 93.5158 -8706 0 0 0 0 0
51 1 4.33 93.5158 -8700 0 0 0 0 0
52 1 4.33 93.5158 -8694 0 0 0 0 0
53 1 4.33 93.5158 -8688 0 0 0 0 0
54 1 4.33 93.5158 -8682 0 0 0 0 0
55 1 4.33 93.5158 -8676 0 0 0 0 0
56 1 4.33 93.5158 -8670 0 0 0 0 0
57 1 4.33 93.5158 -8664 0 0 0 0 0
58 1 4.33 93.5158 -8658 0 0 0 0 0
59 1 4.33 93.5158 -8652 0 0 0 0 0
60 1 4.33 93.5158 -8646 0 0 0 0 0
61 1 4.33 93.5158 -8640 0 0 0 0 0
62 1 4.33 93.5158 -8634 0 0 0 0 0
63 1 4.33 93.5158 -8628 0 0 0 0 0
64 1 4.33 93.5158 -8622 0 0 0 0 0
65 1 4.33 93.5158 -8616 0 0 0 0 0
66 1 4.33 93.5158 -8610 0 0 0 0 0
67 1 4.33 93.5158 -8604 0 0 0 0 0
68 1 4.33 93.5158 -8598 0 0 0 0 0
69 1 4.33 93.5158 -8592 0 0 0 0 0
70 1 4.33 93.5158 -8586 0 0 0 0 0
71 1 4.33 93.5158 -8580 0 0 0 0 0
72 1 4.33 93.5158 -8574 0 0 0 0 0
73 1 4.33 93.5158 -8568 0 0 0 0 0
74 1 4.33 93.5158 -8562 0 0 0 0 0
75 1 4.33 93.5158 -8556 0 0 0 0 0
76 1 4.33 93.5158 -8550 0 0 0 0 0
77 1 4.33 93.5158 -8544 0 0 0 0 0
78 1 4.33 93.5158 -8538 0 0 0 0 0
79 1 4.33 93.5158 -8532 0 0 0 0 0
80 1 4.33 93.5158 -8526 0 0 0 0 0
81 1 4.33 93.5158 -8520 0 0 0 0 0
82 1 4.33 93.5158 -8514 0 0 0 0 0
83 1 4.33 93.5158 -8508 0 0 0 0 0
84 1 4.33 93.5158 -8502 0 0 0 0 0
85 1 4.33 93.5158 -8496 0 0 0 0 0
86 1 4.33 93.5158 -8490 0 0 0 0 0
87 1 4.33 93.5158 -8484 0 0 0 0 0
88 1 4.33 93.5158 -8478 0 0 0 0 0
89 1 4.33 93.5158 -8472 0 0 0 0 0
90 1 4.33 93.5158 -8466 0 0 0 0 0
91 1 4.33 93.5158 -8460 0 0 0 0 0
92 1 4.33 93.5158 -8454 0 0 0 0 0
93 1 4.33 93.5158 -8448 0 0 0 0 0
94 1 4.33 93.5158 -8442 0 0 0 0 0
95 1 4.33 93.5158 -8436 0 0 0 0 0
96 1 4.33 93.5158 -8430 0 0 0 0 0
97 1 4.33 93.5158 -8424 0 0 0 0 0
98 1 4.33 93.5158 -8418 0 0 0 0 0
99 1 4.33 93.5158 -8412 0 0 0 0 0
100 1 4.33 93.5158 -8406 0 0 0 0 0
101 1 4.33 93.5158 -8400 0 0 0 0 0
102 1 4.33 93.5158 -8394 0 0 0 0 0
103 1 4.33 93.5158 -8388 0 0 0 0 0
104 1 4.33 93.5158 -8382 0 0 0 0 0
105 1 4.33 93.5158 -8376 0 0 0 0 0
106 1 4.33 93.5158 -8370 0 0 0 0 0
107 1 4.33 93.5158 -8364 0 0 0 0 0
108 1 4.33 93.5158 -8358 0 0 0 0 0
109 1 4.33 93.5158 -8352 0 0 0 0 0
110 1 4.33 93.5158 -8346 0 0 0 0 0
111 1 4.33 93.5158 -8340 0 0 0 0 0
112 1 4.33 93.5158 -8334 0 0 0 0 0
113 1 4.33 93.5158 -8328 0 0 0 0 0
114 1 4.33 93.5158 -8322 0 0 0 0 0
115 1 4.33 93.5158 -8316 0 0 0 0 0
116 1 4.33 93.5158 -8310 0 0 0 0 0
117 1 4.33 93.5158 -8304 0 0 0 0 0
118 1 4.33 93.5158 -8298 0 0 0 0 0
119 1 4.33 93.5158 -8292 0 0 0 0 0
120 1 4.33 93.5158 -8286 0 0 0 0 0
121 1 4.33 93.5158 -8280 0 0 0 0 0
122 1 4.33 93.5158 -8274 0 0 0 0 0
123 1 4.33 93.5158 -8268 0 0 0 0 0
124 1 4.33 93.5158 -8262 0 0 0 0 0
125 1 4.33 93.5158 -8256 0 0 0 0 0
126 1 4.33 93.5158 -8250 0 0 0 0 0
127 1 4.33 93.5158 -8244 0 0 0 0 0
128 1 4.33 93.5158 -8238 0 0 0 0 0
129 1 4.33 93.5158 -8232 0 0 0 0 0
130 1 4.33 93.5158 -8226 0 0 0 0 0
131 1 4.33 93.5158 -8220 0 0 0 0 0
132 1 4.33 93.5158 -8214 0 0 0 0 0
133 1 4.33 93.5158 -8208 0 0 0 0 0
134 1 4.33 93.5158 -8202 0 0 0 0 0
135 1 4.33 93.5158 -8196 0 0 0 0 0
136 1 4.33 93.5158 -8190 0 0 0 0 0
137 1 4.33 93.5158 -8184 0 0 0 0 0
138 1 4.33 93.5158 -8178 0 0 0 0 0
139 1 4.33 93.5158 -8172 0 0 0 0 0
140 1 4.33 93.5158 -8166 0 0 0 0 0
141 1 4.33 93.5158 -8160 0 0 0 0 0
142 1 4.33 93.5158 -8154 0 0 0 0 0
143 1 4.33 93.5158 -8148 0 0 0 0 0
144 1 4.33 93.5158 -8142 0 0 0 0 0
145 1 4.33 93.5158 -8136 0 0 0 0 0
146 1 4.33 93.5158 -8130 0 0 0 0 0
147 1 4.33 93.5158 -8124 0 0 0 0 0
148 1 4.33 93.5158 -8118 0 0 0 0 0
149 1 4.33 93.5158 -8112 0 0 0 0 0
150 1 4.33 93.5158 -8106 0 0 0 0 0
151 1 4.33 93.5158 -8100 0 0 0 0 0
152 1 4.33 93.5158 -8094 0 0 0 0 0
153 1 4.33 93.5158 -8088 0 0 0 0 0
154 1 4.33 93.5158 -8082 0 0 0 0 0
155 1 4.33 93.5158 -8076 0 0 0 0 0
156 1 4.33 93.5158 -8070 0 0 0 0 0
157 1 4.33 93.5158 -8064 0 0 0 0 0
158 1 4.33 93.5158 -8058 0 0 0 0 0
159 1 4.33 93.5158 -8052 0 0 0 0 0
160 1 4.33 93.5158 -8046 0 0 0 0 0
161 1 4.33 93.5158 -8040 0 0 0 0 0
162 1 4.33 93.5158 -8034 0 0 0 0 0
163 1 4.33 93.5158 -8028 0 0 0 0 0
164 1 4.33 93.5158 -8022 0 0 0 0 0
165 1 4.33 93.5158 -8016 0 0 0 0 0
166 1 4.33 93.5158 -8010 0 0 0 0 0
167 1 4.33 93.5158 -8004 0 0 0 0 0
168 1 4.33 93.5158 -7998 0 0 0 0 0
169 1 4.33 93.5158 -7992 0 0 0 0 0
170 1 4.33 93.5158 -7986 0 0 0 0 0
171 1 4.33 93.5158 -7980 0 0 0 0 0
172 1 4.33 93.5158 -7974 0 0 0 0 0
173 1 4.33 93.5158 -7968 0 0 0 0 0
174 1 4.33 93.5158 -7962 0 0 0 0 0
175 1 4.33 93.5158 -7956 0 0 0 0 0
176 1 4.33 93.5158 -7950 0 0 0 0 0
177 1 4.33 93.5158 -7944 0 0 0 0 0
178 1 4.33 93.5158 -7938 0 0 0 0 0
179 1 4.33 93.5158 -7932 0 0 0 0 0
180 1 4.33 93.5158 -7926 0 0 0 0 0
181 1 4.33 93.5158 -7920 0 0 0 0 0
182 1 4.33 93.5158 -7914 0 0 0 0 0
183 1 4.33 93.5158 -7908 0 0 0 0 0
184 1 4.33 93.5158 -7902 0 0 0 0 0
185 1 4.33 93.5158 -7896 0 0 0 0 0
186 1 4.33 93.5158 -7890 0 0 0 0 0
187 1 4.33 93.5158 -7884 0 0 0 0 0
188 1 4.33 93.5158 -7878 0 0 0 0 0
189 1 4.33 93.5158 -7872 0 0 0 0 0
190 1 4.33 93.5158 -7866 0 0 0 0 0
191 1 4.33 93.5158 -7860 0 0 0 0 0
192 1 4.33 93.5158 -7854 0 0 0 0 0
193 1 4.33 93.5158 -7848 0 0 0 0 0
194 1 4.33 93.5158 -7842 0 0 0 0 0
195 1 4.33 93.5158 -7836 0 0 0 0 0
196 1 4.33 93.5158 -7830 0 0 0 0 0
197 1 4.33 93.5158 -7824 0 0 0 0 0
198 1 4.33 93.5158 -7818 0 0 0 0 0
199 1 4.33 93.5158 -7812 0 0 0 0 0
200 1 4.33 93.5158 -7806 0 0 0 0 0
201 1 4.33 93.5158 -7800 0 0 0 0 0
202 1 4.33 93.5158 -7794 0 0 0 0 0
203 1 4.33 93.5158 -7788 0 0 0 0 0
204 1 4.33 93.5158 -7782 0 0 0 0 0
205 1 4.33 93.5158 -7776 0 0 0 0 0
206 1 4.33 93.5158 -7770 0 0 0 0 0
207 1 4.33 93.5158 -7764 0 0 0 0 0
208 1 4.33 93.5158 -7758 0 0 0 0 0
209 1 4.33 93.5158 -7752 0 0 0 0 0
210 1 4.33 93.5158 -7746 0 0 0 0 0
211 1 4.33 93.5158 -7740 0 0 0 0 0
212 1 4.33 93.5158 -7734 0 0 0 0 0
213 1 4.33 93.5158 -7728 0 0 0 0 0
214 1 4.33 93.5158 -7722 0 0 0 0 0
215 1 4.33 93.5158 -7716 0 0 0 0 0
216 1 4.33 93.5158 -7710 0 0 0 0 0
217 1 4.33 93.5158 -7704 0 0 0 0 0
218 1 4.33 93.5158 -7698 0 0 0 0 0
219 1 4.33 93.5158 -7692 0 0 0 0 0
220 1 4.33 93.5158 -7686 0 0 0 0 0
221 1 4.33 93.5158 -7680 0 0 0 0 0
222 1 4.33 93.5158 -7674 0 0 0 0 0
223 1 4.33 93.5158 -7668 0 0 0 0 0
224 1 4.33 93.5158 -7662 0 0 0 0 0
225 1 4.33 93.5158 -7656 0 0 0 0 0
226 1 4.33 93.5158 -7650 0 0 0 0 0
227 1 4.33 93.5158 -7644 0 0 0 0 0
228 1 4.33 93.5158 -7638 0 0 0 0 0
229 1 4.33 93.5158 -7632 0 0 0 0 0
230 1 4.33 93.5158 -7626 0 0 0 0 0
231 1 4.33 93.5158 -7620 0 0 0 0 0
232 1 4.33 93.5158 -7614 0 0 0 0 0
233 1 4.33 93.5158 -7608 0 0 0 0 0
234 1 4.33 93.5158 -7602 0 0 0 0 0
235 1 4.33 93.5158 -7596 0 0 0 0 0
236 1 4.33 93.5158 -7590 0 0 0 0 0
237 1 4.33 93.5158 -7584 0 0 0 0 0
238 1 4.33 93.5158 -7578 0 0 0 0 0
239 1 4.33 93.5158 -7572 0 0 0 0 0
240 1 4.33 93.5158 -7566 0 0 0 0 0
241 1 4.33 93.5158 -7560 0 0 0 0 0
242 1 4.33 93.5158 -7554 0 0 0 0 0
243 1 4.33 93.5158 -7548 0 0 0 0 0
244 1 4.33 93.5158 -7542 0 0 0 0 0
245 1 4.33 93.5158 -7536 0 0 0 0 0
246 1 4.33 93.5158 -7530 0 0 0 0 0
247 1 4.33 93.5158 -7524 0 0 0 0 0
248 1 4.33 93.5158 -7518 0 0 0 0 0
249 1 4.33 93.5158 -7512 0 0 0 0 0
250 1 4.33 93.5158 -7506 0 0 0 0 0
251 1 4.33 93.5158 -7500 0 0 0 0 0
252 1 4.33 93.5158 -7494 0 0 0 0 0
253 1 4.33 93.5158 -7488 0 0 0 0 0
254 1 4.33 93.5158 -7482 0 0 0 0 0
255 1 4.33 93.5158 -7476 0 0 0 0 0
256 1 4.33 93.5158 -7470 0 0 0 0 0
257 1 4.33 93.5158 -7464 0 0 0 0 0
258 1 4.33 93.5158 -7458 0 0 0 0 0
259 1 4.33 93.5158 -7452 0 0 0 0 0
260 1 4.33 93.5158 -7446 0 0 0 0 0
261 1 4.33 93.5158 -7440 0 0 0 0 0
262 1 4.33 93.5158 -7434 0 0 0 0 0
263 1 4.33 93.5158 -7428 0 0 0 0 0
264 1 4.33 93.5158 -7422 0 0 0 0 0
265 1 4.33 93.5158 -7416 0 0 0 0 0
266 1 4.33 93.5158 -7410 0 0 0 0 0
267 1 4.33 93.5158 -7404 0 0 0 0 0
268 1 4.33 93.5158 -7398 0 0 0 0 0
269 1 4.33 93.5158 -7392 0 0 0 0 0
270 1 4.33 93.5158 -7386 0 0 0 0 0
271 1 4.33 93.5158 -7380 0 0 0 0 0
272 1 4.33 93.5158 -7374 0 0 0 0 0
273 1 4.33 93.5158 -7368 0 0 0 0 0
274 1 4.33 93.5158 -7362 0 0 0 0 0
275 1 4.33 93.5158 -7356 0 0 0 0 0
276 1 4.33 93.5158 -7350 0 0 0 0 0
277 1 4.33 93.5158 -7344 0 0 0 0 0
278 1 4.33 93.5158 -7338 0 0 0 0 0
279 1 4.33 93.5158 -7332 0 0 0 0 0
280 1 4.33 93.5158 -7326 0 0 0 0 0
281 1 4.33 93.5158 -7320 0 0 0 0 0
282 1 4.33 93.5158 -7314 0 0 0 0 0
283 1 4.33 93.5158 -7308 0 0 0 0 0
284 1 4.33 93.5158 -7302 0 0 0 0 0
285 1 4.33 93.5158 -7296 0 0 0 0 0
286 1 4.33 93.5158 -7290 0 0 0 0 0
287 1 4.33 93.5158 -7284 0 0 0 0 0
288 1 4.33 93.5158 -7278 0 0 0 0 0
289 1 4.33 93.5158 -7272 0 0 0 0 0
290 1 4.33 93.5158 -7266 0 0 0 0 0
291 1 4.33 93.5158 -7260 0 0 0 0 0
292 1 4.33 93.5158 -7254 0 0 0 0 0
293 1 4.33 93.5158 -7248 0 0 0 0 0
294 1 4.33 93.5158 -7242 0 0 0 0 0
295 1 4.33 93.5158 -7236 0 0 0 0 0
296 1 4.33 93.5158 -7230 0 0 0 0 0
297 1 4.33 93.5158 -7224 0 0 0 0 0
298 1 4.33 93.5158 -7218 0 0 0 0 0
299 1 4.33 93.5158 -7212 0 0 0 0 0
300 1 4.33 93.5158 -7206 0 0 0 0 0
301 1 4.33 93.5158 -7200 0 0 0 0 0
302 1 4.33 93.5158 -7194 0 0 0 0 0
303 1 4.33 93.5158 -7188 0 0 0 0 0
304 1 4.33 93.5158 -7182 0 0 0 0 0
305 1 4.33 93.5158 -7176 0 0 0 0 0
306 1 4.33 93.5158 -7170 0 0 0 0 0
307 1 4.33 93.5158 -7164 0 0 0 0 0
308 1 4.33 93.5158 -7158 0 0 0 0 0
309 1 4.33 93.5158 -7152 0 0 0 0 0
310 1 4.33 93.5158 -7146 0 0 0 0 0
311 1 4.33 93.5158 -7140 0 0 0 0 0
312 1 4.33 93.5158 -7134 0 0 0 0 0
313 1 4.33 93.5158 -7128 0 0 0 0 0
314 1 4.33 93.5158 -7122 0 0 0 0 0
315 1 4.33 93.5158 -7116 0 0 0 0 0
316 1 4.33 93.5158 -7110 0 0 0 0 0
317 1 4.33 93.5158 -7104 0 0 0 0 0
318 1 4.33 93.5158 -7098 0 0 0 0 0
319 1 4.33 93.5158 -7092 0 0 0 0 0
320 1 4.33 93.5158 -7086 0 0 0 0 0
321 1 4.33 93.5158 -7080 0 0 0 0 0
322 1 4.33 93.5158 -7074 0 0 0 0 0
323 1 4.33 93.5158 -7068 0 0 0 0 0
324 1 4.33 93.5158 -7062 0 0 0 0 0
325 1 4.33 93.5158 -7056 0 0 0 0 0
326 1 4.33 93.5158 -7050 0 0 0 0 0
327 1 4.33 93.5158 -7044 0 0 0 0 0
328 1 4.33 93.5158 -7038 0 0 0 0 0
329 1 4.33 93.5158 -7032 0 0 0 0 0
330 1 4.33 93.5158 -7026 0 0 0 0 0
331 1 4.33 93.5158 -7020 0 0 0 0 0
332 1 4.33 93.5158 -7014 0 0 0 0 0
333 1 4.33 93.5158 -7008 0 0 0 0 0
334 1 4.33 93.5158 -7002 0 0 0 0 0
335 1 4.33 93.5158 -6996 0 0 0 0 0
336 1 4.33 93.5158 -6990 0 0 0 0 0
337 1 4.33 93.5158 -6984 0 0 0 0 0
338 1 4.33 93.5158 -6978 0 0 0 0 0
339 1 4.33 93.5158 -6972 0 0 0 0 0
340 1 4.33 93.5158 -6966 0 0 0 0 0
341 1 4.33 93.5158 -6960 0 0 0 0 0
342 1 4.33 93.5158 -6954 0 0 0 0 0
343 1 4.33 93.5158 -6948 0 0 0 0 0
344 1 4.33 93.5158 -6942 0 0 0 0 0
345 1 4.33 93.5158 -6936 0 0 0 0 0
346 1 4.33 93.5158 -6930 0 0 0 0 0
347 1 4.33 93.5158 -6924 0 0 0 0 0
348 1 4.33 93.5158 -6918 0 0 0 0 0
349 1 4.33 93.5158 -6912 0 0 0 0 0
350 1 4.33 93.5158 -6906 0 0 0 0 0
351 1 4.33 93.5158 -6900 0 0 0 0 0
352 1 4.33 93.5158 -6894 0 0 0 0 0
353 1 4.33 93.5158 -6888 0 0 0 0 0
354 1 4.33 93.5158 -6882 0 0 0 0 0
355 1 4.33 93.5158 -6876 0 0 0 0 0
356 1 4.33 93.5158 -6870 0 0 0 0 0
357 1 4.33 93.5158 -6864 0 0 0 0 0
358 1 4.33 93.5158 -6858 0 0 0 0 0
359 1 4.33 93.5158 -6852 0 0 0 0 0
360 1 4.33 93.5158 -6846 0 0 0 0 0
361 1 4.33 93.5158 -6840 0 0 0 0 0
362 1 4.33 93.5158 -6834 0 0 0 0 0
363 1 4.33 93.5158 -6828 0 0 0 0 0
364 1 4.33 93.5158 -6822 0 0 0 0 0
365 1 4.33 93.5158 -6816 0 0 0 0 0
366 1 4.33 93.5158 -6810 0 0 0 0 0
367 1 4.33 93.5158 -6804 0 0 0 0 0
368 1 4.33 93.5158 -6798 0 0 0 0 0
369 1 4.33 93.5158 -6792 0 0 0 0 0
370 1 4.33 93.5158 -6786 0 0 0 0 0
371 1 4.33 93.5158 -6780 0 0 0 0 0
372 1 4.33 93.5158 -6774 0 0 0 0 0
373 1 4.33 93.5158 -6768 0 0 0 0 0
374 1 4.33 93.5158 -6762 0 0 0 0 0
375 1 4.33 93.5158 -6756 0 0 0 0 0
376 1 4.33 93.5158 -6750 0 0 0 0 0
377 1 4.33 93.5158 -6744 0 0 0 0 0
378 1 4.33 93.5158 -6738 0 0 0 0 0
379 1 4.33 93.5158 -6732 0 0 0 0 0
380 1 4.33 93.5158 -6726 0 0 0 0 0
381 1 4.33 93.5158 -6720 0 0 0 0 0
382 1 4.33 93.5158 -6714 0 0 0 0 0
383 1 4.33 93.5158 -6708 0 0 0 0 0
384 1 4.33 93.5158 -6702 0 0 0 0 0
385 1 4.33 93.5158 -6696 0 0 0 0 0
386 1 4.33 93.5158 -6690 0 0 0 0 0
387 1 4.33 93.5158 -6684 0 0 0 0 0
388 1 4.33 93.5158 -6678 0 0 0 0 0
389 1 4.33 93.5158 -6672 0 0 0 0 0
390 1 4.33 93.5158 -6666 0 0 0 0 0
391 1 4.33 93.5158 -6660 0 0 0 0 0
392 1 4.33 93.5158 -6654 0 0 0 0 0
393 1 4.33 93.5158 -6648 0 0 0 0 0
394 1 4.33 93.5158 -6642 0 0 0 0 0
395 1 4.33 93.5158 -6636 0 0 0 0 0
396 1 4.33 93.5158 -6630 0 0 0 0 0
397 1 4.33 93.5158 -6624 0 0 0 0 0
398 1 4.33 93.5158 -6618 0 0 0 0 0
399 1 4.33 93.5158 -6612 0 0 0 0 0
400 1 4.33 93.5158 -6606 0 0 0 0 0
401 1 4.33 93.5158 -6600 0 0 0 0 0
402 1 4.33 93.5158 -6594 0 0 0 0 0
403 1 4.33 93.5158 -6588 0 0 0 0 0
404 1 4.33 93.5158 -6582 0 0 0 0 0
405 1 4.33 93.5158 -6576 0 0 0 0 0
406 1 4.33 93.5158 -6570 0 0 0 0 0
407 1 4.33 93.5158 -6564 0 0 0 0 0
408 1 4.33 93.5158 -6558 0 0 0 0 0
409 1 4.33 93.5158 -6552 0 0 0 0 0
410 1 4.33 93.5158 -6546 0 0 0 0 0
411 1 4.33 93.5158 -6540 0 0 0 0 0
412 1 4.33 93.5158 -6534 0 0 0 0 0
413 1 4.33 93.5158 -6528 0 0 0 0 0
414 1 4.33 93.5158 -6522 0 0 0 0 0
415 1 4.33 93.5158 -6516 0 0 0 0 0
416 1 4.33 93.5158 -6510 0 0 0 0 0
417 1 4.33 93.5158 -6504 0 0 0 0 0
418 1 4.33 93.5158 -6498 0 0 0 0 0
419 1 4.33 93.5158 -6492 0 0 0 0 0
420 1 4.33 93.5158 -6486 0 0 0 0 0
421 1 4.33 93.5158 -6480 0 0 0 0 0
422 1 4.33 93.5158 -6474 0 0 0 0 0
423 1 4.33 93.5158 -6468 0 0 0 0 0
424 1 4.33 93.5158 -6462 0 0 0 0 0
425 1 4.33 93.5158 -6456 0 0 0 0 0
426 1 4.33 93.5158 -6450 0 0 0 0 0
427 1 4.33 93.5158 -6444 0 0 0 0 0
428 1 4.33 93.5158 -6438 0 0 0 0 0
429 1 4.33 93.5158 -6432 0 0 0 0 0
430 1 4.33 93.5158 -6426 0 0 0 0 0
431 1 4.33 93.5158 -6420 0 0 0 0 0
432 1 4.33 93.5158 -6414 0 0 0 0 0
433 1 4.33 93.5158 -6408 0 0 0 0 0
434 1 4.33 93.5158 -6402 0 0 0 0 0
435 1 4.33 93.5158 -6396 0 0 0 0 0
436 1 4.33 93.5158 -6390 0 0 0 0 0
437 1 4.33 93.5158 -6384 0 0 0 0 0
438 1 4.33 93.5158 -6378 0 0 0 0 0
439 1 4.33 93.5158 -6372 0 0 0 0 0
440 1 4.33 93.5158 -6366 0 0 0 0 0
441 1 4.33 93.5158 -6360 0 0 0 0 0
442 1 4.33 93.5158 -6354 0 0 0 0 0
443 1 4.33 93.5158 -6348 0 0 0 0 0
444 1 4.33 93.5158 -6342 0 0 0 0 0
445 1 4.33 93.5158 -6336 0 0 0 0 0
446 1 4.33 93.5158 -6330 0 0 0 0 0
447 1 4.33 93.5158 -6324 0 0 0 0 0
448 1 4.33 93.5158 -6318 0 0 0 0 0
449 1 4.33 93.5158 -6312 0 0 0 0 0
450 1 4.33 93.5158 -6306 0 0 0 0 0
451 1 4.33 93.5158 -6300 0 0 0 0 0
452 1 4.33 93.5158 -6294 0 0 0 0 0
453 1 4.33 93.5158 -6288 0 0 0 0 0
454 1 4.33 93.5158 -6282 0 0 0 0 0
455 1 4.33 93.5158 -6276 0 0 0 0 0
456 1 4.33 93.5158 -6270 0 0 0 0 0
457 1 4.33 93.5158 -6264 0 0 0 0 0
458 1 4.33 93.5158 -6258 0 0 0 0 0
459 1 4.33 93.5158 -6252 0 0 0 0 0
460 1 4.33 93.5158 -6246 0 0 0 0 0
461 1 4.33 93.5158 -6240 0 0 0 0 0
462 1 4.33 93.5158 -6234 0 0 0 0 0
463 1 4.33 93.5158 -6228 0 0 0 0 0
464 1 4.33 93.5158 -6222 0 0 0 0 0
465 1 4.33 93.5158 -6216 0 0 0 0 0
466 1 4.33 93.5158 -6210 0 0 0 0 0
467 1 4.33 93.5158 -6204 0 0 0 0 0
468 1 4.33 93.5158 -6198 0 0 0 0 0
469 1 4.33 93.5158 -6192 0 0 0 0 0
470 1 4.33 93.5158 -6186 0 0 0 0 0
471 1 4.33 93.5158 -6180 0 0 0 0 0
472 1 4.33 93.5158 -6174 0 0 0 0 0
473 1 4.33 93.5158 -6168 0 0 0 0 0
474 1 4.33 93.5158 -6162 0 0 0 0 0
475 1 4.33 93.5158 -6156 0 0 0 0 0
476 1 4.33 93.5158 -6150 0 0 0 0 0
477 1 4.33 93.5158 -6144 0 0 0 0 0
478 1 4.33 93.5158 -6138 0 0 0 0 0
479 1 4.33 93.5158 -6132 0 0 0 0 0
480 1 4.33 93.5158 -6126 0 0 0 0 0
481 1 4.33 93.5158 -6120 0 0 0 0 0
482 1 4.33 93.5158 -6114 0 0 0 0 0
483 1 4.33 93.5158 -6108 0 0 0 0 0
484 1 4.33 93.5158 -6102 0 0 0 0 0
485 1 4.33 93.5158 -6096 0 0 0 0 0
486 1 4.33 93.5158 -6090 0 0 0 0 0
487 1 4.33 93.5158 -6084 0 0 0 0 0
488 1 4.33 93.5158 -6078 0 0 0 0 0
489 1 4.33 93.5158 -6072 0 0 0 0 0
490 1 4.33 93.5158 -6066 0 0 0 0 0
491 1 4.33 93.5158 -6060 0 0 0 0 0
492 1 4.33 93.5158 -6054 0 0 0 0 0
493 1 4.33 93.5158 -6048 0 0 0 0 0
494 1 4.33 93.5158 -6042 0 0 0 0 0
495 1 4.33 93.5158 -6036 0 0 0 0 0
496 1 4.33 93.5158 -6030 0 0 0 0 0
497 1 4.33 93.5158 -6024 0 0 0 0 0
498 1 4.33 93.5158 -6018 0 0 0 0 0
499 1 4.33 93.5158 -6012 0 0 0 0 0
500 1 4.33 93.5158 -6006 0 0 0 0 0
501 1 4.33 93.5158 -6000 0 0 0 0 0
502 1 4.33 93.5158 -5994 0 0 0 0 0
503 1 4.33 93.5158 -5988 0 0 0 0 0
504 1 4.33 93.5158 -5982 0 0 0 0 0
505 1 4.33 93.5158 -5976 0 0 0 0 0
506 1 4.33 93.5158 -5970 0 0 0 0 0
507 1 4.33 93.5158 -5964 0 0 0 0 0
508 1 4.33 93.5158 -5958 0 0 0 0 0
509 1 4.33 93.5158 -5952 0 0 0 0 0
510 1 4.33 93.5158 -5946 0 0 0 0 0
511 1 4.33 93.5158 -5940 0 0 0 0 0
512 1 4.33 93.5158 -5934 0 0 0 0 0
513 1 4.33 93.5158 -5928 0 0 0 0 0
514 1 4.33 93.5158 -5922 0 0 0 0 0
515 1 4.33 93.5158 -5916 0 0 0 0 0
516 1 4.33 93.5158 -5910 0 0 0 0 0
517 1 4.33 93.5158 -5904 0 0 0 0 0
518 1 4.33 93.5158 -5898 0 0 0 0 0
519 1 4.33 93.5158 -5892 0 0 0 0 0
520 1 4.33 93.5158 -5886 0 0 0 0 0
521 1 4.33 93.5158 -5880 0 0 0 0 0
522 1 4.33 93.5158 -5874 0 0 0 0 0
523 1 4.33 93.5158 -5868 0 0 0 0 0
524 1 4.33 93.5158 -5862 0 0 0 0 0
525 1 4.33 93.5158 -5856 0 0 0 0 0
526 1 4.33 93.5158 -5850 0 0 0 0 0
527 1 4.33 93.5158 -5844 0 0 0 0 0
528 1 4.33 93.5158 -5838 0 0 0 0 0
529 1 4.33 93.5158 -5832 0 0 0 0 0
530 1 4.33 93.5158 -5826 0 0 0 0 0
531 1 4.33 93.5158 -5820 0 0 0 0 0
532 1 4.33 93.5158 -5814 0 0 0 0 0
533 1 4.33 93.5158 -5808 0 0 0 0 0
534 1 4.33 93.5158 -5802 0 0 0 0 0
535 1 4.33 93.5158 -5796 0 0 0 0 0
536 1 4.33 93.5158 -5790 0 0 0 0 0
537 1 4.33 93.5158 -5784 0 0 0 0 0
538 1 4.33 93.5158 -5778 0 0 0 0 0
539 1 4.33 93.5158 -5772 0 0 0 0 0
540 1 4.33 93.5158 -5766 0 0 0 0 0
541 1 4.33 93.5158 -5760 0 0 0 0 0
542 1 4.33 93.5158 -5754 0 0 0 0 0
543 1 4.33 93.5158 -5748 0 0 0 0 0
544 1 4.33 93.5158 -5742 0 0 0 0 0
545 1 4.33 93.5158 -5736 0 0 0 0 0
546 1 4.33 93.5158 -5730 0 0 0 0 0
547 1 4.33 93.5158 -5724 0 0 0 0 0
548 1 4.33 93.5158 -5718 0 0 0 0 0
549 1 4.33 93.5158 -5712 0 0 0 0 0
550 1 4.33 93.5158 -5706 0 0 0 0 0
551 1 4.33 93.5158 -5700 0 0 0 0 0
552 1 4.33 93.5158 -5694 0 0 0 0 0
553 1 4.33 93.5158 -5688 0 0 0 0 0
554 1 4.33 93.5158 -5682 0 0 0 0 0
555 1 4.33 93.5158 -5676 0 0 0 0 0
556 1 4.33 93.5158 -5670 0 0 0 0 0
557 1 4.33 93.5158 -5664 0 0 0 0 0
558 1 4.33 93.5158 -5658 0 0 0 0 0
559 1 4.33 93.5158 -5652 0 0 0 0 0
560 1 4.33 93.5158 -5646 0 0 0 0 0
561 1 4.33 93.5158 -5640 0 0 0 0 0
562 1 4.33 93.5158 -5634 0 0 0 0 0
563 1 4.33 93.5158 -5628 0 0 0 0 0
564 1 4.33 93.5158 -5622 0 0 0 0 0
565 1 4.33 93.5158 -5616 0 0 0 0 0
566 1 4.33 93.5158 -5610 0 0 0 0 0
567 1 4.33 93.5158 -5604 0 0 0 0 0
568 1 4.33 93.5158 -5598 0 0 0 0 0
569 1 4.33 93.5158 -5592 0 0 0 0 0
570 1 4.33 93.5158 -5586 0 0 0 0 0
571 1 4.33 93.5158 -5580 0 0 0 0 0
572 1 4.33 93.5158 -5574 0 0 0 0 0
573 1 4.33 93.5158 -5568 0 0 0 0 0
574 1 4.33 93.5158 -5562 0 0 0 0 0
575 1 4.33 93.5158 -5556 0 0 0 0 0
576 1 4.33 93.5158 -5550 0 0 0 0 0
577 1 4.33 93.5158 -5544 0 0 0 0 0
578 1 4.33 93.5158 -5538 0 0 0 0 0
579 1 4.33 93.5158 -5532 0 0 0 0 0
580 1 4.33 93.5158 -5526 0 0 0 0 0
581 1 4.33 93.5158 -5520 0 0 0 0 0
582 1 4.33 93.5158 -5514 0 0 0 0 0
583 1 4.33 93.5158 -5508 0 0 0 0 0
584 1 4.33 93.5158 -5502 0 0 0 0 0
585 1 4.33 93.5158 -5496 0 0 0 0 0
586 1 4.33 93.5158 -5490 0 0 0 0 0
587 1 4.33 93.5158 -5484 0 0 0 0 0
588 1 4.33 93.5158 -5478 0 0 0 0 0
589 1 4.33 93.5158 -5472 0 0 0 0 0
590 1 4.33 93.5158 -5466 0 0 0 0 0
591 1 4.33 93.5158 -5460 0 0 0 0 0
592 1 4.33 93.5158 -5454 0 0 0 0 0
593 1 4.33 93.5158 -5448 0 0 0 0 0
594 1 4.33 93.5158 -5442 0 0 0 0 0
595 1 4.33 93.5158 -5436 0 0 0 0 0
596 1 4.33 93.5158 -5430 0 0 0 0 0
597 1 4.33 93.5158 -5424 0 0 0 0 0
598 1 4.33 93.5158 -5418 0 0 0 0 0
599 1 4.33 93.5158 -5412 0 0 0 0 0
600 1 4.33 93.5158 -5406 0 0 0 0 0
601 1 4.33 93.5158 -5400 0 0 0 0 0
602 1 4.33 93.5158 -5394 0 0 0 0 0
603 1 4.33 93.5158 -5388 0 0 0 0 0
604 1 4.33 93.5158 -5382 0 0 0 0 0
605 1 4.33 93.5158 -5376 0 0 0 0 0
606 1 4.33 93.5158 -5370 0 0 0 0 0
607 1 4.33 93.5158 -5364 0 0 0 0 0
608 1 4.33 93.5158 -5358 0 0 0 0 0
609 1 4.33 93.5158 -5352 0 0 0 0 0
610 1 4.33 93.5158 -5346 0 0 0 0 0
611 1 4.33 93.5158 -5340 0 0 0 0 0
612 1 4.33 93.5158 -5334 0 0 0 0 0
613 1 4.33 93.5158 -5328 0 0 0 0 0
614 1 4.33 93.5158 -5322 0 0 0 0 0
615 1 4.33 93.5158 -5316 0 0 0 0 0
616 1 4.33 93.5158 -5310 0 0 0 0 0
617 1 4.33 93.5158 -5304 0 0 0 0 0
618 1 4.33 93.5158 -5298 0 0 0 0 0
619 1 4.33 93.5158 -5292 0 0 0 0 0
620 1 4.33 93.5158 -5286 0 0 0 0 0
621 1 4.33 93.5158 -5280 0 0 0 0 0
622 1 4.33 93.5158 -5274 0 0 0 0 0
623 1 4.33 93.5158 -5268 0 0 0 0 0
624 1 4.33 93.5158 -5262 0 0 0 0 0
625 1 4.33 93.5158 -5256 0 0 0 0 0
626 1 4.33 93.5158 -5250 0 0 0 0 0
627 1 4.33 93.5158 -5244 0 0 0 0 0
628 1 4.33 93.5158 -5238 0 0 0 0 0
629 1 4.33 93.5158 -5232 0 0 0 0 0
630 1 4.33 93.5158 -5226 0 0 0 0 0
631 1 4.33 93.5158 -5220 0 0 0 0 0
632 1 4.33 93.5158 -5214 0 0 0 0 0
633 1 4.33 93.5158 -5208 0 0 0 0 0
634 1 4.33 93.5158 -5202 0 0 0 0 0
635 1 4.33 93.5158 -5196 0 0 0 0 0
636 1 4.33 93.5158 -5190 0 0 0 0 0
637 1 4.33 93.5158 -5184 0 0 0 0 0
638 1 4.33 93.5158 -5178 0 0 0 0 0
639 1 4.33 93.5158 -5172 0 0 0 0 0
640 1 4.33 93.5158 -5166 0 0 0 0 0
641 1 4.33 93.5158 -5160 0 0 0 0 0
642 1 4.33 93.5158 -5154 0 0 0 0 0
643 1 4.33 93.5158 -5148 0 0 0 0 0
644 1 4.33 93.5158 -5142 0 0 0 0 0
645 1 4.33 93.5158 -5136 0 0 0 0 0
646 1 4.33 93.5158 -5130 0 0 0 0 0
647 1 4.33 93.5158 -5124 0 0 0 0 0
648 1 4.33 93.5158 -5118 0 0 0 0 0
649 1 4.33 93.5158 -5112 0 0 0 0 0
650 1 4.33 93.5158 -5106 0 0 0 0 0
651 1 4.33 93.5158 -5100 0 0 0 0 0
652 1 4.33 93.5158 -5094 0 0 0 0 0
653 1 4.33 93.5158 -5088 0 0 0 0 0
654 1 4.33 93.5158 -5082 0 0 0 0 0
655 1 4.33 93.5158 -5076 0 0 0 0 0
656 1 4.33 93.5158 -5070 0 0 0 0 0
657 1 4.33 93.5158 -5064 0 0 0 0 0
658 1 4.33 93.5158 -5058 0 0 0 0 0
659 1 4.33 93.5158 -5052 0 0 0 0 0
660 1 4.33 93.5158 -5046 0 0 0 0 0
661 1 4.33 93.5158 -5040 0 0 0 0 0
662 1 4.33 93.5158 -5034 0 0 0 0 0
663 1 4.33 93.5158 -5028 0 0 0 0 0
664 1 4.33 93.5158 -5022 0 0 0 0 0
665 1 4.33 93.5158 -5016 0 0 0 0 0
666 1 4.33 93.5158 -5010 0 0 0 0 0
667 1 4.33 93.5158 -5004 0 0 0 0 0
668 1 4.33 93.5158 -4998 0 0 0 0 0
669 1 4.33 93.5158 -4992 0 0 0 0 0
670 1 4.33 93.5158 -4986 0 0 0 0 0
671 1 4.33 93.5158 -4980 0 0 0 0 0
672 1 4.33 93.5158 -4974 0 0 0 0 0
673 1 4.33 93.5158 -4968 0 0 0 0 0
674 1 4.33 93.5158 -4962 0 0 0 0 0
675 1 4.33 93.5158 -4956 0 0 0 0 0
676 1 4.33 93.5158 -4950 0 0 0 0 0
677 1 4.33 93.5158 -4944 0 0 0 0 0
678 1 4.33 93.5158 -4938 0 0 0 0 0
679 1 4.33 93.5158 -4932 0 0 0 0 0
680 1 4.33 93.5158 -4926 0 0 0 0 0
681 1 4.33 93.5158 -4920 0 0 0 0 0
682 1 4.33 93.5158 -4914 0 0 0 0 0
683 1 4.33 93.5158 -4908 0 0 0 0 0
684 1 4.33 93.5158 -4902 0 0 0 0 0
685 1 4.33 93.5158 -4896 0 0 0 0 0
686 1 4.33 93.5158 -4890 0 0 0 0 0
687 1 4.33 93.5158 -4884 0 0 0 0 0
688 1 4.33 93.5158 -4878 0 0 0 0 0
689 1 4.33 93.5158 -4872 0 0 0 0 0
690 1 4.33 93.5158 -4866 0 0 0 0 0
691 1 4.33 93.5158 -4860 0 0 0 0 0
692 1 4.33 93.5158 -4854 0 0 0 0 0
693 1 4.33 93.5158 -4848 0 0 0 0 0
694 1 4.33 93.5158 -4842 0 0 0 0 0
695 1 4.33 93.5158 -4836 0 0 0 0 0
696 1 4.33 93.5158 -4830 0 0 0 0 0
697 1 4.33 93.5158 -4824 0 0 0 0 0
698 1 4.33 93.5158 -4818 0 0 0 0 0
699 1 4.33 93.5158 -4812 0 0 0 0 0
700 1 4.33 93.5158 -4806 0 0 0 0 0
701 1 4.33 93.5158 -4800 0 0 0 0 0
702 1 4.33 93.5158 -4794 0 0 0 0 0
703 1 4.33 93.5158 -4788 0 0 0 0 0
704 1 4.33 93.5158 -4782 0 0 0 0 0
705 1 4.33 93.5158 -4776 0 0 0 0 0
706 1 4.33 93.5158 -4770 0 0 0 0 0
707 1 4.33 93.5158 -4764 0 0 0 0 0
708 1 4.33 93.5158 -4758 0 0 0 0 0
709 1 4.33 93.5158 -4752 0 0 0 0 0
710 1 4.33 93.5158 -4746 0 0 0 0 0
711 1 4.33 93.5158 -4740 0 0 0 0 0
712 1 4.33 93.5158 -4734 0 0 0 0 0
713 1 4.33 93.5158 -4728 0 0 0 0 0
714 1 4.33 93.5158 -4722 0 0 0 0 0
715 1 4.33 93.5158 -4716 0 0 0 0 0
716 1 4.33 93.5158 -4710 0 0 0 0 0
717 1 4.33 93.5158 -4704 0 0 0 0 0
718 1 4.33 93.5158 -4698 0 0 0 0 0
719 1 4.33 93.5158 -4692 0 0 0 0 0
720 1 4.33 93.5158 -4686 0 0 0 0 0
721 1 4.33 93.5158 -4680 0 0 0 0 0
722 1 4.33 93.5158 -4674 0 0 0 0 0
723 1 4.33 93.5158 -4668 0 0 0 0 0
724 1 4.33 93.5158 -4662 0 0 0 0 0
725 1 4.33 93.5158 -4656 0 0 0 0 0
726 1 4.33 93.5158 -4650 0 0 0 0 0
727 1 4.33 93.5158 -4644 0 0 0 0 0
728 1 4.33 93.5158 -4638 0 0 0 0 0
729 1 4.33 93.5158 -4632 0 0 0 0 0
730 1 4.33 93.5158 -4626 0 0 0 0 0
731 1 4.33 93.5158 -4620 0 0 0 0 0
732 1 4.33 93.5158 -4614 0 0 0 0 0
733 1 4.33 93.5158 -4608 0 0 0 0 0
734 1 4.33 93.5158 -4602 0 0 0 0 0
735 1 4.33 93.5158 -4596 0 0 0 0 0
736 1 4.33 93.5158 -4590 0 0 0 0 0
737 1 4.33 93.5158 -4584 0 0 0 0 0
738 1 4.33 93.5158 -4578 0 0 0 0 0
739 1 4.33 93.5158 -4572 0 0 0 0 0
740 1 4.33 93.5158 -4566 0 0 0 0 0
741 1 4.33 93.5158 -4560 0 0 0 0 0
742 1 4.33 93.5158 -4554 0 0 0 0 0
743 1 4.33 93.5158 -4548 0 0 0 0 0
744 1 4.33 93.5158 -4542 0 0 0 0 0
745 1 4.33 93.5158 -4536 0 0 0 0 0
746 1 4.33 93.5158 -4530 0 0 0 0 0
747 1 4.33 93.5158 -4524 0 0 0 0 0
748 1 4.33 93.5158 -4518 0 0 0 0 0
749 1 4.33 93.5158 -4512 0 0 0 0 0
750 1 4.33 93.5158 -4506 0 0 0 0 0
751 1 4.33 93.5158 -4500 0 0 0 0 0
752 1 4.33 93.5158 -4494 0 0 0 0 0
753 1 4.33 93.5158 -4488 0 0 0 0 0
754 1 4.33 93.5158 -4482 0 0 0 0 0
755 1 4.33 93.5158 -4476 0 0 0 0 0
756 1 4.33 93.5158 -4470 0 0 0 0 0
757 1 4.33 93.5158 -4464 0 0 0 0 0
758 1 4.33 93.5158 -4458 0 0 0 0 0
759 1 4.33 93.5158 -4452 0 0 0 0 0
760 1 4.33 93.5158 -4446 0 0 0 0 0
761 1 4.33 93.5158 -4440 0 0 0 0 0
762 1 4.33 93.5158 -4434 0 0 0 0 0
763 1 4.33 93.5158 -4428 0 0 0 0 0
764 1 4.33 93.5158 -4422 0 0 0 0 0
765 1 4.33 93.5158 -4416 0 0 0 0 0
766 1 4.33 93.5158 -4410 0 0 0 0 0
767 1 4.33 93.5158 -4404 0 0 0 0 0
768 1 4.33 93.5158 -4398 0 0 0 0 0
769 1 4.33 93.5158 -4392 0 0 0 0 0
770 1 4.33 93.5158 -4386 0 0 0 0 0
771 1 4.33 93.5158 -4380 0 0 0 0 0
772 1 4.33 93.5158 -4374 0 0 0 0 0
773 1 4.33 93.5158 -4368 0 0 0 0 0
774 1 4.33 93.5158 -4362 0 0 0 0 0
775 1 4.33 93.5158 -4356 0 0 0 0 0
776 1 4.33 93.5158 -4350 0 0 0 0 0
777 1 4.33 93.5158 -4344 0 0 0 0 0
778 1 4.33 93.5158 -4338 0 0 0 0 0
779 1 4.33 93.5158 -4332 0 0 0 0 0
780 1 4.33 93.5158 -4326 0 0 0 0 0
781 1 4.33 93.5158 -4320 0 0 0 0 0
782 1 4.33 93.5158 -4314 0 0 0 0 0
783 1 4.33 93.5158 -4308 0 0 0 0 0
784 1 4.33 93.5158 -4302 0 0 0 0 0
785 1 4.33 93.5158 -4296 0 0 0 0 0
786 1 4.33 93.5158 -4290 0 0 0 0 0
787 1 4.33 93.5158 -4284 0 0 0 0 0
788 1 4.33 93.5158 -4278 0 0 0 0 0
789 1 4.33 93.5158 -4272 0 0 0 0 0
790 1 4.33 93.5158 -4266 0 0 0 0 0
791 1 4.33 93.5158 -4260 0 0 0 0 0
792 1 4.33 93.5158 -4254 0 0 0 0 0
793 1 4.33 93.5158 -4248 0 0 0 0 0
794 1 4.33 93.5158 -4242 0 0 0 0 0
795 1 4.33 93.5158 -4236 0 0 0 0 0
796 1 4.33 93.5158 -4230 0 0 0 0 0
797 1 4.33 93.5158 -4224 0 0 0 0 0
798 1 4.33 93.5158 -4218 0 0 0 0 0
799 1 4.33 93.5158 -4212 0 0 0 0 0
800 1 4.33 93.5158 -4206 0 0 0 0 0
801 1 4.33 93.5158 -4200 0 0 0 0 0
802 1 4.33 93.5158 -4194 0 0 0 0 0
803 1 4.33 93.5158 -4188 0 0 0 0 0
804 1 4.33 93.5158 -4182 0 0 0 0 0
805 1 4.33 93.5158 -4176 0 0 0 0 0
806 1 4.33 93.5158 -4170 0 0 0 0 0
807 1 4.33 93.5158 -4164 0 0 0 0 0
808 1 4.33 93.5158 -4158 0 0 0 0 0
809 1 4.33 93.5158 -4152 0 0 0 0 0
810 1 4.33 93.5158 -4146 0 0 0 0 0
811 1 4.33 93.5158 -4140 0 0 0 0 0
812 1 4.33 93.5158 -4134 0 0 0 0 0
813 1 4.33 93.5158 -4128 0 0 0 0 0
814 1 4.33 93.5158 -4122 0 0 0 0 0
815 1 4.33 93.5158 -4116 0 0 0 0 0
816 1 4.33 93.5158 -4110 0 0 0 0 0
817 1 4.33 93.5158 -4104 0 0 0 0 0
818 1 4.33 93.5158 -4098 0 0 0 0 0
819 1 4.33 93.5158 -4092 0 0 0 0 0
820 1 4.33 93.5158 -4086 0 0 0 0 0
821 1 4.33 93.5158 -4080 0 0 0 0 0
822 1 4.33 93.5158 -4074 0 0 0 0 0
823 1 4.33 93.5158 -4068 0 0 0 0 0
824 1 4.33 93.5158 -4062 0 0 0 0 0
825 1 4.33 93.5158 -4056 0 0 0 0 0
826 1 4.33 93.5158 -4050 0 0 0 0 0
827 1 4.33 93.5158 -4044 0 0 0 0 0
828 1 4.33 93.5158 -4038 0 0 0 0 0
829 1 4.33 93.5158 -4032 0 0 0 0 0
830 1 4.33 93.5158 -4026 0 0 0 0 0
831 1 4.33 93.5158 -4020 0 0 0 0 0
832 1 4.33 93.5158 -4014 0 0 0 0 0
833 1 4.33 93.5158 -4008 0 0 0 0 0
834 1 4.33 93.5158 -4002 0 0 0 0 0
835 1 4.33 93.5158 -3996 0 0 0 0 0
836 1 4.33 93.5158 -3990 0 0 0 0 0
837 1 4.33 93.5158 -3984 0 0 0 0 0
838 1 4.33 93.5158 -3978 0 0 0 0 0
839 1 4.33 93.5158 -3972 0 0 0 0 0
840 1 4.33 93.5158 -3966 0 0 0 0 0
841 1 4.33 93.5158 -3960 0 0 0 0 0
842 1 4.33 93.5158 -3954 0 0 0 0 0
843 1 4.33 93.5158 -3948 0 0 0 0 0
844 1 4.33 93.5158 -3942 0 0 0 0 0
845 1 4.33 93.5158 -3936 0 0 0 0 0
846 1 4.33 93.5158 -3930 0 0 0 0 0
847 1 4.33 93.5158 -3924 0 0 0 0 0
848 1 4.33 93.5158 -3918 0 0 0 0 0
849 1 4.33 93.5158 -3912 0 0 0 0 0
850 1 4.33 93.5158 -3906 0 0 0 0 0
851 1 4.33 93.5158 -3900 0 0 0 0 0
852 1 4.33 93.5158 -3894 0 0 0 0 0