LAMMPS (23 Jun 2022 - Update 1)
  using 1 OpenMP thread(s) per MPI task
variable num index 0 1 2 3 4 5 6 7 8 9 10 11 12 13 14 15 16 17 18 19 20 21 22 23 24 25 26 27 28 29 30 31 32 33 34 35 36 37 38 39 40 41 42 43 44 45 46 47 48 49 50 51 52 53 54 55 56 57 58 59 60 61 62 63 64 65 66 67 68 69 70 71 72 73 74 75 76 77 78 79 80 81 82 83 84 85 86 87 88 89 90 91 92 93 94 95 96 97 98 99

label startloop

include granular.in
### Simulation of contact between two chain

##################### Simulation setup ####################

units micro                              # units
dimension	3                            # dimension
boundary	p p p                        # boundary condition p: periodic
atom_style	sphere                       # atom style
#processors * * 1

####################### Parameter ##################################

variable ind equal ${num}
variable ind equal 0

#variable lat0 equal 1                    #
variable lat1 equal 6      # Lattice distance of bottom chain
variable lat2 equal 3                    # Lattice distance of top chain
variable d1 equal 3+(74*0.01)+(v_ind*0.01)                       # Diamter of particle at bottom chain
variable d2 equal 3                      # Diamter of particle at top chain
#variable d3 equal 1                      # Diamter of supporting particle

variable n2e1 equal 1000*v_lat2             # Half length of top chain. 1500 is number of particles
variable n1e1 equal 1.5*v_n2e1*(v_lat1/v_lat2)             # Half length of bottom chain, which is 1.5 time larger than top chain
variable n1e2 equal -v_n1e1
variable n2e2 equal -v_n2e1
#variable lenspr equal -(v_n2e1+100)           # length of the spring connecting top chain and supporting particle
#variable lenspr1 equal -v_lenspr-0.1         # Position of supporting particle upper bound
#variable lenspr2 equal -v_lenspr+0.1         # Position of supporting particle lower bound

variable den equal 2.2 #grams/cm^3      # micrometer^3=10^-12 cm^3 Density of materials

variable V1 equal (1/6)*PI*(v_d1^3)     # Volume of particle 1
variable V2 equal (1/6)*PI*(v_d2^3)     # Volume of particle 2
#variable V3 equal (1/6)*PI*(v_d3^3)     # Volume of particle 3

variable mass1 equal v_den*v_V1  # Mass of particle 1 (picograms)
variable mass2 equal v_den*v_V2  # Mass of particle 2
#variable mass3 equal v_den*v_V3  # Mass of particle 3

# E GPa to picogram/(micrometer-microsecond^2)= 10^3 Pa= 10^-6 GPa
# Force unit(picogram-micrometer/microsecond^2)=10^-9 N= 1nN
# Spring stiffness (force/distance) 10^-3 N/m

variable K0 equal (1500/50)*(10^5)             # Spring stiffness conneting top chain and sup particle
variable E equal 100*(10^6)                    # Young's Modulus using for Hertz/material model
variable PR equal 0.3                          # Poisson's ratio using for Hertz/material model
variable Fn equal -1000                        # Force apply to each particles in top chain
variable dt equal 0.00001                      # Time step units microsecond
variable lgv equal 0.5                         #damping for langevin thermostat for slider


################### Creating the model #################################
lattice sc ${lat1}                                                               # Bottom chain type1
lattice sc 6                                                               
Lattice spacing in x,y,z = 6 6 6

region box block ${n1e2} ${n1e1} -100 100 -100 100 units box
region box block -9000 ${n1e1} -100 100 -100 100 units box
region box block -9000 9000 -100 100 -100 100 units box
region substrate block ${n1e2} ${n1e1} -0.5 0.5 0 0.5 units box
region substrate block -9000 ${n1e1} -0.5 0.5 0 0.5 units box
region substrate block -9000 9000 -0.5 0.5 0 0.5 units box

create_box 2 box
Created orthogonal box = (-9000 -100 -100) to (9000 100 100)
  2 by 1 by 1 MPI processor grid
create_atoms 1 region substrate
Created 3000 atoms
  using lattice units in orthogonal box = (-9000 -100 -100) to (9000 100 100)
  create_atoms CPU = 0.002 seconds

lattice sc ${lat2}                                                             # Top chain type2
lattice sc 3                                                             
Lattice spacing in x,y,z = 3 3 3

region slider1 block ${n2e2} ${n2e1} -0.1 0.1 5.9 6.1 units box
region slider1 block -3000 ${n2e1} -0.1 0.1 5.9 6.1 units box
region slider1 block -3000 3000 -0.1 0.1 5.9 6.1 units box

create_atoms 2 region slider1
Created 2001 atoms
  using lattice units in orthogonal box = (-9000 -100 -100) to (9000 100 100)
  create_atoms CPU = 0.001 seconds

#lattice sc ${lat0}                                                             # Supporting particle type3

#region support block ${lenspr1} ${lenspr2} -0.1 0.1 7.9 8.1 units box

#create_atoms 3 region support

set type 1 diameter ${d1}                    # Set mass and diameter for each particles type
set type 1 diameter 3.74                    
Setting atom values ...
  3000 settings made for diameter
set type 1 mass ${mass1}
set type 1 mass 60.2609688417216
Setting atom values ...
  3000 settings made for mass
set type 2 diameter ${d2}
set type 2 diameter 3
Setting atom values ...
  2001 settings made for diameter
set type 2 mass ${mass2}
set type 2 mass 31.101767270539
Setting atom values ...
  2001 settings made for mass
#set type 3 diameter ${d3}
#set type 3 mass ${mass3}

group substrate region substrate           # Define gorup
3000 atoms in group substrate
group slider1 region slider1
2001 atoms in group slider1
#group support region support
#group substrate_slider union substrate slider1

########################## Potential ###################################
pair_style granular
pair_coeff 1 1 hertz/material 0.00000001 0.001 ${PR} tangential mindlin NULL 0.1 0.01 damping viscoelastic              ########### set E between each particle in same type is small to neglect their interaction
pair_coeff 1 1 hertz/material 0.00000001 0.001 0.3 tangential mindlin NULL 0.1 0.01 damping viscoelastic              
pair_coeff 2 2 hertz/material 0.00000001 0.001 ${PR} tangential mindlin NULL 0.1 0.01 damping viscoelastic
pair_coeff 2 2 hertz/material 0.00000001 0.001 0.3 tangential mindlin NULL 0.1 0.01 damping viscoelastic
#pair_coeff 3 3 hertz/material ${E} 0.001 ${PR} tangential mindlin NULL 0.1 0.01 damping viscoelastic
pair_coeff 1 2 hertz/material ${E} 0.001 ${PR} tangential mindlin NULL 0.1 0.01 damping viscoelastic
pair_coeff 1 2 hertz/material 100000000 0.001 ${PR} tangential mindlin NULL 0.1 0.01 damping viscoelastic
pair_coeff 1 2 hertz/material 100000000 0.001 0.3 tangential mindlin NULL 0.1 0.01 damping viscoelastic
#pair_coeff 1 3 hertz/material 0.00000001 0.001 ${PR} tangential mindlin NULL 0.1 0.01 damping viscoelastic
#pair_coeff 2 3 hertz/material 0.00000001 0.001 ${PR} tangential mindlin NULL 0.1 0.01 damping viscoelastic
comm_modify     vel yes
neigh_modify    delay 0 every 1 check yes

### Compute properties ###

compute 1 slider1 com                      # Compute the center of mass of top chain
#compute 2 support com                      # Compute the center of mass of supporting particle

variable p0 equal "step"

variable slider_z equal "c_1[3]"          # output the position of top chain in z-direction

#variable distance equal "c_2[1]-c_1[1]"   # Distance between COM of top chain and supporting particle

thermo 100000
thermo_style custom step lx ly lz press pxx pyy pzz ke pe temp c_1[1] c_1[2] c_1[3] #c_2[1] c_2[2] c_2[3] v_distance

############### Fix ##################


############## Equilibrium the system with apply force ########################

fix force_slider1 slider1 setforce NULL 0 NULL                                # Fix top chain not to move in y-direction

fix f_sub substrate freeze                                                    # Freeze the bottom chain

fix rigid_top slider1 rigid/nve group 1 slider1 langevin 0 0 ${lgv} 6987532   # NVE+langevin
fix rigid_top slider1 rigid/nve group 1 slider1 langevin 0 0 0.5 6987532   
  1 rigid bodies with 2001 atoms

fix add slider1 addforce 0 0 ${Fn} every 1                                    # Add force to top layer
fix add slider1 addforce 0 0 -1000 every 1                                    

timestep ${dt}
timestep 1e-05

# fix  nve_1 slider1 nve

dump 		D1 all custom 100000 Equi_${num}_*.dump id type diameter mass xu yu zu fx fy fz
dump 		D1 all custom 100000 Equi_0_*.dump id type diameter mass xu yu zu fx fy fz
dump_modify D1 format 5 %.18g
dump_modify D1 format 7 %.18g

run 3000000
Generated 0 of 1 mixed pair_coeff terms from geometric mixing rule
Neighbor list info ...
  update every 1 steps, delay 0 steps, check yes
  max neighbors/atom: 2000, page size: 100000
  master list distance cutoff = 3.84
  ghost atom cutoff = 3.84
  binsize = 1.92, bins = 9375 105 105
  1 neighbor lists, perpetual/occasional/extra = 1 0 0
  (1) pair granular, perpetual
      attributes: half, newton on, size, history
      pair build: half/size/bin/newton
      stencil: half/bin/3d
      bin: standard
Per MPI rank memory allocation (min/avg/max) = 229.6 | 229.6 | 229.6 Mbytes
   Step           Lx             Ly             Lz           Press           Pxx            Pyy            Pzz           KinEng         PotEng          Temp          c_1[1]         c_1[2]         c_1[3]    
         0   18000          200            200            0              0              0              0              0              0              0              1.1971759e-13  0              6            
    100000   18000          200            200           -4.9110539e-06  1.1840271e-40  0             -1.4733162e-05  1412419.1      0              6.8200666e+10  1.1971759e-13  0              3.3810645    
    200000   18000          200            200           -0.00024446611  3.5902031e-35  0             -0.00073339833  74964.367      0              3.619761e+09   1.1971759e-13  0              3.5085513    
    300000   18000          200            200            1.4699259e-05  1.7951047e-35  0              4.4097776e-05  171.29327      0              8271138.8      1.1971759e-13  0              3.4157326    
    400000   18000          200            200           -9.8910313e-05  1.7951035e-35  0             -0.00029673094  9537.3055      0              4.6052235e+08  1.1971759e-13  0              3.3752113    
    500000   18000          200            200            0.010186817    1.0770585e-34  0              0.030560451    1802.0984      0              87016881       1.1971759e-13  0              3.3678731    
    600000   18000          200            200            0.0039965633  -1.7950946e-35  0              0.01198969     596.28798      0              28792613       1.1971759e-13  0              3.368869     
    700000   18000          200            200            0.003993021    8.9754938e-36  0              0.011979063    37.508003      0              1811127.2      1.1971759e-13  0              3.3688631    
    800000   18000          200            200            0.0029451542  -8.975474e-36   0              0.0088354626   9.126472       0              440684.67      1.1971759e-13  0              3.3690737    
    900000   18000          200            200            0.0030886408  -4.4877343e-36  0              0.0092659223   1.4114929      0              68155.94       1.1971759e-13  0              3.3690429    
   1000000   18000          200            200            0.003163018    1.7950975e-35  0              0.009489054    0.079347473    0              3831.4055      1.1971759e-13  0              3.3690279    
   1100000   18000          200            200            0.0031013664  -3.1414191e-35  0              0.0093040991   8.0008497e-06  0              0.3863324      1.1971759e-13  0              3.3690405    
   1200000   18000          200            200            0.0031266738   9.3071194e-43  0              0.0093800214   0.0012548188   0              60.590709      1.1971759e-13  0              3.3690353    
   1300000   18000          200            200            0.0031204346  -5.609677e-37   0              0.0093613039   0.00041773472  0              20.170915      1.1971759e-13  0              3.3690366    
   1400000   18000          200            200            0.0031206383   4.2072582e-37  0              0.0093619149   4.7894249e-05  0              2.3126419      1.1971759e-13  0              3.3690366    
   1500000   18000          200            200            0.0031213437   5.6096776e-37  0              0.0093640312   1.5181678e-06  0              0.073306889    1.1971759e-13  0              3.3690364    
   1600000   18000          200            200            0.0031209173  -2.8048387e-37  0              0.0093627519   4.5095877e-08  0              0.0021775185   1.1971759e-13  0              3.3690365    
   1700000   18000          200            200            0.0031210661   2.8048389e-37  0              0.0093631983   7.974793e-08   0              0.0038507421   1.1971759e-13  0              3.3690365    
   1800000   18000          200            200            0.0031210379   2.8048389e-37  0              0.0093631137   1.7438553e-08  0              0.00084204531  1.1971759e-13  0              3.3690365    
   1900000   18000          200            200            0.0031210343  -1.9633871e-36  0              0.0093631029   1.4187399e-09  0              6.8505871e-05  1.1971759e-13  0              3.3690365    
   2000000   18000          200            200            0.00312104    -1.9633871e-36  0              0.0093631201   1.5746081e-11  0              7.6032192e-07  1.1971759e-13  0              3.3690365    
   2100000   18000          200            200            0.0031210373  -2.8048387e-37  0              0.0093631118   7.3251963e-12  0              3.5370752e-07  1.1971759e-13  0              3.3690365    
   2200000   18000          200            200            0.0031210381   5.6096777e-37  0              0.0093631142   4.222878e-12   0              2.0390766e-07  1.1971759e-13  0              3.3690365    
   2300000   18000          200            200            0.003121038   -2.5243549e-36  0              0.0093631139   6.531481e-13   0              3.1538184e-08  1.1971759e-13  0              3.3690365    
   2400000   18000          200            200            0.0031210379  -5.6096774e-37  0              0.0093631138   3.5321331e-14  0              1.7055406e-09  1.1971759e-13  0              3.3690365    
   2500000   18000          200            200            0.003121038    2.8048389e-37  0              0.0093631139   1.4591073e-18  0              7.0455071e-14  1.1971759e-13  0              3.3690365    
   2600000   18000          200            200            0.003121038    1.1219355e-36  0              0.0093631139   5.2495392e-16  0              2.5348146e-11  1.1971759e-13  0              3.3690365    
   2700000   18000          200            200            0.003121038    1.4024194e-36  0              0.0093631139   2.0392361e-16  0              9.8467412e-12  1.1971759e-13  0              3.3690365    
   2800000   18000          200            200            0.003121038   -1.1219355e-36  0              0.0093631139   2.0707846e-18  0              9.9990776e-14  1.1971759e-13  0              3.3690365    
   2900000   18000          200            200            0.003121038   -2.8048387e-37  0              0.0093631139   7.0050997e-18  0              3.382512e-13   1.1971759e-13  0              3.3690365    
   3000000   18000          200            200            0.003121038    2.8048389e-37  0              0.0093631139   2.9041006e-20  0              1.4022863e-15  1.1971759e-13  0              3.3690365    
Loop time of 841.393 on 2 procs for 3000000 steps with 5001 atoms

Performance: 3080604.807 ns/day, 0.000 hours/ns, 3565.515 timesteps/s
99.9% CPU use with 2 MPI tasks x 1 OpenMP threads

MPI task timing breakdown:
Section |  min time  |  avg time  |  max time  |%varavg| %total
---------------------------------------------------------------
Pair    | 295.24     | 296.67     | 298.1      |   8.3 | 35.26
Neigh   | 10.67      | 10.671     | 10.671     |   0.0 |  1.27
Comm    | 34.287     | 35.952     | 37.616     |  27.8 |  4.27
Output  | 0.62684    | 0.62687    | 0.62691    |   0.0 |  0.07
Modify  | 436.57     | 436.59     | 436.62     |   0.1 | 51.89
Other   |            | 60.88      |            |       |  7.24

Nlocal:         2500.5 ave        2501 max        2500 min
Histogram: 1 0 0 0 0 0 0 0 0 1
Nghost:            2.5 ave           3 max           2 min
Histogram: 1 0 0 0 0 0 0 0 0 1
Neighs:         1500.5 ave        1501 max        1500 min
Histogram: 1 0 0 0 0 0 0 0 0 1

Total # of neighbors = 3001
Ave neighs/atom = 0.60007998
Neighbor list builds = 146
Dangerous builds = 0

undump D1

############ Add spring between top chain to supp particle and then equilibrium  ###########

#fix sp1 support spring couple slider1 ${K0} ${lenspr} NULL NULL 0                                 # Add spring

#dump 		D2 all custom 100000 add_${num}*.dump id type diameter mass xu yu zu

#fix add1 all print 10 "${p0} ${distance} ${slider_z}" file add_distance_${num}.txt screen no      # out put step, distance(spring length), z-position of top chain

#run 1000000

#undump D2

#unfix add1

########## Pulling the supporting particle with constant velocity #############

#fix m1 support move linear 0.1 0 0 units box                                                      # apply constant velocity to supporting particles along x-direction V=0.1m/s

#fix move1 all print 100 "${p0} ${distance} ${slider_z}" file move_distance_${num}.txt screen no

#dump 		1 all custom 50000 move_${num}_*.dump id type diameter mass xu yu zu

#run 1000000

clear
  using 1 OpenMP thread(s) per MPI task

next num

jump SELF startloop

include granular.in
### Simulation of contact between two chain

##################### Simulation setup ####################

units micro                              # units
dimension	3                            # dimension
boundary	p p p                        # boundary condition p: periodic
atom_style	sphere                       # atom style
#processors * * 1

####################### Parameter ##################################

variable ind equal ${num}
variable ind equal 1

#variable lat0 equal 1                    #
variable lat1 equal 6      # Lattice distance of bottom chain
variable lat2 equal 3                    # Lattice distance of top chain
variable d1 equal 3+(74*0.01)+(v_ind*0.01)                       # Diamter of particle at bottom chain
variable d2 equal 3                      # Diamter of particle at top chain
#variable d3 equal 1                      # Diamter of supporting particle

variable n2e1 equal 1000*v_lat2             # Half length of top chain. 1500 is number of particles
variable n1e1 equal 1.5*v_n2e1*(v_lat1/v_lat2)             # Half length of bottom chain, which is 1.5 time larger than top chain
variable n1e2 equal -v_n1e1
variable n2e2 equal -v_n2e1
#variable lenspr equal -(v_n2e1+100)           # length of the spring connecting top chain and supporting particle
#variable lenspr1 equal -v_lenspr-0.1         # Position of supporting particle upper bound
#variable lenspr2 equal -v_lenspr+0.1         # Position of supporting particle lower bound

variable den equal 2.2 #grams/cm^3      # micrometer^3=10^-12 cm^3 Density of materials

variable V1 equal (1/6)*PI*(v_d1^3)     # Volume of particle 1
variable V2 equal (1/6)*PI*(v_d2^3)     # Volume of particle 2
#variable V3 equal (1/6)*PI*(v_d3^3)     # Volume of particle 3

variable mass1 equal v_den*v_V1  # Mass of particle 1 (picograms)
variable mass2 equal v_den*v_V2  # Mass of particle 2
#variable mass3 equal v_den*v_V3  # Mass of particle 3

# E GPa to picogram/(micrometer-microsecond^2)= 10^3 Pa= 10^-6 GPa
# Force unit(picogram-micrometer/microsecond^2)=10^-9 N= 1nN
# Spring stiffness (force/distance) 10^-3 N/m

variable K0 equal (1500/50)*(10^5)             # Spring stiffness conneting top chain and sup particle
variable E equal 100*(10^6)                    # Young's Modulus using for Hertz/material model
variable PR equal 0.3                          # Poisson's ratio using for Hertz/material model
variable Fn equal -1000                        # Force apply to each particles in top chain
variable dt equal 0.00001                      # Time step units microsecond
variable lgv equal 0.5                         #damping for langevin thermostat for slider


################### Creating the model #################################
lattice sc ${lat1}                                                               # Bottom chain type1
lattice sc 6                                                               
Lattice spacing in x,y,z = 6 6 6

region box block ${n1e2} ${n1e1} -100 100 -100 100 units box
region box block -9000 ${n1e1} -100 100 -100 100 units box
region box block -9000 9000 -100 100 -100 100 units box
region substrate block ${n1e2} ${n1e1} -0.5 0.5 0 0.5 units box
region substrate block -9000 ${n1e1} -0.5 0.5 0 0.5 units box
region substrate block -9000 9000 -0.5 0.5 0 0.5 units box

create_box 2 box
Created orthogonal box = (-9000 -100 -100) to (9000 100 100)
  2 by 1 by 1 MPI processor grid
create_atoms 1 region substrate
Created 3000 atoms
  using lattice units in orthogonal box = (-9000 -100 -100) to (9000 100 100)
  create_atoms CPU = 0.002 seconds

lattice sc ${lat2}                                                             # Top chain type2
lattice sc 3                                                             
Lattice spacing in x,y,z = 3 3 3

region slider1 block ${n2e2} ${n2e1} -0.1 0.1 5.9 6.1 units box
region slider1 block -3000 ${n2e1} -0.1 0.1 5.9 6.1 units box
region slider1 block -3000 3000 -0.1 0.1 5.9 6.1 units box

create_atoms 2 region slider1
Created 2001 atoms
  using lattice units in orthogonal box = (-9000 -100 -100) to (9000 100 100)
  create_atoms CPU = 0.001 seconds

#lattice sc ${lat0}                                                             # Supporting particle type3

#region support block ${lenspr1} ${lenspr2} -0.1 0.1 7.9 8.1 units box

#create_atoms 3 region support

set type 1 diameter ${d1}                    # Set mass and diameter for each particles type
set type 1 diameter 3.75                    
Setting atom values ...
  3000 settings made for diameter
set type 1 mass ${mass1}
set type 1 mass 60.7456392002713
Setting atom values ...
  3000 settings made for mass
set type 2 diameter ${d2}
set type 2 diameter 3
Setting atom values ...
  2001 settings made for diameter
set type 2 mass ${mass2}
set type 2 mass 31.101767270539
Setting atom values ...
  2001 settings made for mass
#set type 3 diameter ${d3}
#set type 3 mass ${mass3}

group substrate region substrate           # Define gorup
3000 atoms in group substrate
group slider1 region slider1
2001 atoms in group slider1
#group support region support
#group substrate_slider union substrate slider1

########################## Potential ###################################
pair_style granular
pair_coeff 1 1 hertz/material 0.00000001 0.001 ${PR} tangential mindlin NULL 0.1 0.01 damping viscoelastic              ########### set E between each particle in same type is small to neglect their interaction
pair_coeff 1 1 hertz/material 0.00000001 0.001 0.3 tangential mindlin NULL 0.1 0.01 damping viscoelastic              
pair_coeff 2 2 hertz/material 0.00000001 0.001 ${PR} tangential mindlin NULL 0.1 0.01 damping viscoelastic
pair_coeff 2 2 hertz/material 0.00000001 0.001 0.3 tangential mindlin NULL 0.1 0.01 damping viscoelastic
#pair_coeff 3 3 hertz/material ${E} 0.001 ${PR} tangential mindlin NULL 0.1 0.01 damping viscoelastic
pair_coeff 1 2 hertz/material ${E} 0.001 ${PR} tangential mindlin NULL 0.1 0.01 damping viscoelastic
pair_coeff 1 2 hertz/material 100000000 0.001 ${PR} tangential mindlin NULL 0.1 0.01 damping viscoelastic
pair_coeff 1 2 hertz/material 100000000 0.001 0.3 tangential mindlin NULL 0.1 0.01 damping viscoelastic
#pair_coeff 1 3 hertz/material 0.00000001 0.001 ${PR} tangential mindlin NULL 0.1 0.01 damping viscoelastic
#pair_coeff 2 3 hertz/material 0.00000001 0.001 ${PR} tangential mindlin NULL 0.1 0.01 damping viscoelastic
comm_modify     vel yes
neigh_modify    delay 0 every 1 check yes

### Compute properties ###

compute 1 slider1 com                      # Compute the center of mass of top chain
#compute 2 support com                      # Compute the center of mass of supporting particle

variable p0 equal "step"

variable slider_z equal "c_1[3]"          # output the position of top chain in z-direction

#variable distance equal "c_2[1]-c_1[1]"   # Distance between COM of top chain and supporting particle

thermo 100000
thermo_style custom step lx ly lz press pxx pyy pzz ke pe temp c_1[1] c_1[2] c_1[3] #c_2[1] c_2[2] c_2[3] v_distance

############### Fix ##################


############## Equilibrium the system with apply force ########################

fix force_slider1 slider1 setforce NULL 0 NULL                                # Fix top chain not to move in y-direction

fix f_sub substrate freeze                                                    # Freeze the bottom chain

fix rigid_top slider1 rigid/nve group 1 slider1 langevin 0 0 ${lgv} 6987532   # NVE+langevin
fix rigid_top slider1 rigid/nve group 1 slider1 langevin 0 0 0.5 6987532   
  1 rigid bodies with 2001 atoms

fix add slider1 addforce 0 0 ${Fn} every 1                                    # Add force to top layer
fix add slider1 addforce 0 0 -1000 every 1                                    

timestep ${dt}
timestep 1e-05

# fix  nve_1 slider1 nve

dump 		D1 all custom 100000 Equi_${num}_*.dump id type diameter mass xu yu zu fx fy fz
dump 		D1 all custom 100000 Equi_1_*.dump id type diameter mass xu yu zu fx fy fz
dump_modify D1 format 5 %.18g
dump_modify D1 format 7 %.18g

run 3000000
Generated 0 of 1 mixed pair_coeff terms from geometric mixing rule
Neighbor list info ...
  update every 1 steps, delay 0 steps, check yes
  max neighbors/atom: 2000, page size: 100000
  master list distance cutoff = 3.85
  ghost atom cutoff = 3.85
  binsize = 1.925, bins = 9351 104 104
  1 neighbor lists, perpetual/occasional/extra = 1 0 0
  (1) pair granular, perpetual
      attributes: half, newton on, size, history
      pair build: half/size/bin/newton
      stencil: half/bin/3d
      bin: standard
Per MPI rank memory allocation (min/avg/max) = 225.1 | 225.1 | 225.1 Mbytes
   Step           Lx             Ly             Lz           Press           Pxx            Pyy            Pzz           KinEng         PotEng          Temp          c_1[1]         c_1[2]         c_1[3]    
         0   18000          200            200            0              0              0              0              0              0              0              1.1971759e-13  0              6            
    100000   18000          200            200           -1.6688146e-05 -2.3336252e-34  0             -5.0064437e-05  1395587.4      0              6.7387923e+10  1.1971759e-13  0              3.3915245    
    200000   18000          200            200           -0.00024037521  3.5902038e-35  0             -0.00072112563  71053.005      0              3.4308953e+09  1.1971759e-13  0              3.5152554    
    300000   18000          200            200            2.3337139e-05 -5.385282e-35   0              7.0011416e-05  423.95612      0              20471324       1.1971759e-13  0              3.420595     
    400000   18000          200            200           -9.1295825e-05  3.590201e-35   0             -0.00027388748  7972.0482      0              3.8494167e+08  1.1971759e-13  0              3.380968     
    500000   18000          200            200            0.0072346549  -1.7950926e-35  0              0.021703965    3338.5765      0              1.6120791e+08  1.1971759e-13  0              3.3733049    
    600000   18000          200            200            0.0051342513  -8.9754646e-36  0              0.015402754    406.8978       0              19647638       1.1971759e-13  0              3.3736631    
    700000   18000          200            200            0.003606304    2.6926463e-35  0              0.010818912    70.06241       0              3383063        1.1971759e-13  0              3.3739387    
    800000   18000          200            200            0.0031265901   1.7950978e-35  0              0.0093797703   11.20254       0              540930.56      1.1971759e-13  0              3.3740374    
    900000   18000          200            200            0.003028567    7.9684471e-42  0              0.0090857011   0.85590686     0              41328.679      1.1971759e-13  0              3.3740567    
   1000000   18000          200            200            0.0031794398   6.8407931e-42  0              0.0095383195   0.0046929149   0              226.60407      1.1971759e-13  0              3.3740259    
   1100000   18000          200            200            0.0031090654  -8.9754806e-36  0              0.0093271961   0.0072425602   0              349.71731      1.1971759e-13  0              3.3740403    
   1200000   18000          200            200            0.0031276779   4.4877429e-36  0              0.0093830337   0.0030818181   0              148.80997      1.1971759e-13  0              3.3740364    
   1300000   18000          200            200            0.0031267585  -5.609677e-37   0              0.0093802754   0.00036500059  0              17.624572      1.1971759e-13  0              3.3740366    
   1400000   18000          200            200            0.0031248118  -7.0120969e-37  0              0.0093744354   9.7795583e-06  0              0.47221987     1.1971759e-13  0              3.374037     
   1500000   18000          200            200            0.0031259958   1.1219355e-36  0              0.0093779873   6.4938568e-07  0              0.03135651     1.1971759e-13  0              3.3740368    
   1600000   18000          200            200            0.0031256055   5.6096777e-37  0              0.0093768165   7.2475121e-07  0              0.034995642    1.1971759e-13  0              3.3740369    
   1700000   18000          200            200            0.0031256628  -3.6462904e-36  0              0.0093769884   1.2870607e-07  0              0.0062147556   1.1971759e-13  0              3.3740369    
   1800000   18000          200            200            0.0031256828  -8.4145162e-37  0              0.0093770485   7.0333412e-09  0              0.00033961487  1.1971759e-13  0              3.3740369    
   1900000   18000          200            200            0.0031256644  -5.6096774e-37  0              0.0093769931   1.9887207e-12  0              9.6028205e-08  1.1971759e-13  0              3.3740369    
   2000000   18000          200            200            0.0031256718   1.0338959e-44  0              0.0093770154   1.3929532e-10  0              6.7260724e-06  1.1971759e-13  0              3.3740369    
   2100000   18000          200            200            0.0031256702   5.6096777e-37  0              0.0093770105   3.9155603e-11  0              1.8906839e-06  1.1971759e-13  0              3.3740369    
   2200000   18000          200            200            0.0031256701  -1.4024194e-36  0              0.0093770103   3.4748901e-12  0              1.6779001e-07  1.1971759e-13  0              3.3740369    
   2300000   18000          200            200            0.0031256704   1.020157e-44   0              0.0093770111   3.8070526e-14  0              1.8382895e-09  1.1971759e-13  0              3.3740369    
   2400000   18000          200            200            0.0031256702  -2.8048387e-37  0              0.0093770107   1.9039623e-14  0              9.1935524e-10  1.1971759e-13  0              3.3740369    
   2500000   18000          200            200            0.0031256703   1.1219355e-36  0              0.0093770108   1.0240861e-14  0              4.9449451e-10  1.1971759e-13  0              3.3740369    
   2600000   18000          200            200            0.0031256703  -5.6096774e-37  0              0.0093770108   1.4024345e-15  0              6.7718543e-11  1.1971759e-13  0              3.3740369    
   2700000   18000          200            200            0.0031256703   5.6096777e-37  0              0.0093770108   1.0478602e-17  0              5.0597421e-13  1.1971759e-13  0              3.3740369    
   2800000   18000          200            200            0.0031256703   1.0438282e-44  0              0.0093770108   2.4418283e-17  0              1.1790715e-12  1.1971759e-13  0              3.3740369    
   2900000   18000          200            200            0.0031256703  -2.8048387e-37  0              0.0093770108   6.2806029e-19  0              3.0326784e-14  1.1971759e-13  0              3.3740369    
   3000000   18000          200            200            0.0031256703  -5.6096774e-37  0              0.0093770108   3.4761135e-18  0              1.6784908e-13  1.1971759e-13  0              3.3740369    
Loop time of 783.57 on 2 procs for 3000000 steps with 5001 atoms

Performance: 3307935.520 ns/day, 0.000 hours/ns, 3828.629 timesteps/s
99.9% CPU use with 2 MPI tasks x 1 OpenMP threads

MPI task timing breakdown:
Section |  min time  |  avg time  |  max time  |%varavg| %total
---------------------------------------------------------------
Pair    | 245.97     | 246.78     | 247.58     |   5.1 | 31.49
Neigh   | 10.497     | 10.498     | 10.498     |   0.0 |  1.34
Comm    | 34.113     | 35.103     | 36.092     |  16.7 |  4.48
Output  | 0.62549    | 0.62551    | 0.62553    |   0.0 |  0.08
Modify  | 430.57     | 430.71     | 430.85     |   0.7 | 54.97
Other   |            | 59.85      |            |       |  7.64

Nlocal:         2500.5 ave        2501 max        2500 min
Histogram: 1 0 0 0 0 0 0 0 0 1
Nghost:            2.5 ave           3 max           2 min
Histogram: 1 0 0 0 0 0 0 0 0 1
Neighs:         1500.5 ave        1501 max        1500 min
Histogram: 1 0 0 0 0 0 0 0 0 1

Total # of neighbors = 3001
Ave neighs/atom = 0.60007998
Neighbor list builds = 146
Dangerous builds = 0

undump D1

############ Add spring between top chain to supp particle and then equilibrium  ###########

#fix sp1 support spring couple slider1 ${K0} ${lenspr} NULL NULL 0                                 # Add spring

#dump 		D2 all custom 100000 add_${num}*.dump id type diameter mass xu yu zu

#fix add1 all print 10 "${p0} ${distance} ${slider_z}" file add_distance_${num}.txt screen no      # out put step, distance(spring length), z-position of top chain

#run 1000000

#undump D2

#unfix add1

########## Pulling the supporting particle with constant velocity #############

#fix m1 support move linear 0.1 0 0 units box                                                      # apply constant velocity to supporting particles along x-direction V=0.1m/s

#fix move1 all print 100 "${p0} ${distance} ${slider_z}" file move_distance_${num}.txt screen no

#dump 		1 all custom 50000 move_${num}_*.dump id type diameter mass xu yu zu

#run 1000000

clear
  using 1 OpenMP thread(s) per MPI task

next num

jump SELF startloop

include granular.in
### Simulation of contact between two chain

##################### Simulation setup ####################

units micro                              # units
dimension	3                            # dimension
boundary	p p p                        # boundary condition p: periodic
atom_style	sphere                       # atom style
#processors * * 1

####################### Parameter ##################################

variable ind equal ${num}
variable ind equal 2

#variable lat0 equal 1                    #
variable lat1 equal 6      # Lattice distance of bottom chain
variable lat2 equal 3                    # Lattice distance of top chain
variable d1 equal 3+(74*0.01)+(v_ind*0.01)                       # Diamter of particle at bottom chain
variable d2 equal 3                      # Diamter of particle at top chain
#variable d3 equal 1                      # Diamter of supporting particle

variable n2e1 equal 1000*v_lat2             # Half length of top chain. 1500 is number of particles
variable n1e1 equal 1.5*v_n2e1*(v_lat1/v_lat2)             # Half length of bottom chain, which is 1.5 time larger than top chain
variable n1e2 equal -v_n1e1
variable n2e2 equal -v_n2e1
#variable lenspr equal -(v_n2e1+100)           # length of the spring connecting top chain and supporting particle
#variable lenspr1 equal -v_lenspr-0.1         # Position of supporting particle upper bound
#variable lenspr2 equal -v_lenspr+0.1         # Position of supporting particle lower bound

variable den equal 2.2 #grams/cm^3      # micrometer^3=10^-12 cm^3 Density of materials

variable V1 equal (1/6)*PI*(v_d1^3)     # Volume of particle 1
variable V2 equal (1/6)*PI*(v_d2^3)     # Volume of particle 2
#variable V3 equal (1/6)*PI*(v_d3^3)     # Volume of particle 3

variable mass1 equal v_den*v_V1  # Mass of particle 1 (picograms)
variable mass2 equal v_den*v_V2  # Mass of particle 2
#variable mass3 equal v_den*v_V3  # Mass of particle 3

# E GPa to picogram/(micrometer-microsecond^2)= 10^3 Pa= 10^-6 GPa
# Force unit(picogram-micrometer/microsecond^2)=10^-9 N= 1nN
# Spring stiffness (force/distance) 10^-3 N/m

variable K0 equal (1500/50)*(10^5)             # Spring stiffness conneting top chain and sup particle
variable E equal 100*(10^6)                    # Young's Modulus using for Hertz/material model
variable PR equal 0.3                          # Poisson's ratio using for Hertz/material model
variable Fn equal -1000                        # Force apply to each particles in top chain
variable dt equal 0.00001                      # Time step units microsecond
variable lgv equal 0.5                         #damping for langevin thermostat for slider


################### Creating the model #################################
lattice sc ${lat1}                                                               # Bottom chain type1
lattice sc 6                                                               
Lattice spacing in x,y,z = 6 6 6

region box block ${n1e2} ${n1e1} -100 100 -100 100 units box
region box block -9000 ${n1e1} -100 100 -100 100 units box
region box block -9000 9000 -100 100 -100 100 units box
region substrate block ${n1e2} ${n1e1} -0.5 0.5 0 0.5 units box
region substrate block -9000 ${n1e1} -0.5 0.5 0 0.5 units box
region substrate block -9000 9000 -0.5 0.5 0 0.5 units box

create_box 2 box
Created orthogonal box = (-9000 -100 -100) to (9000 100 100)
  2 by 1 by 1 MPI processor grid
create_atoms 1 region substrate
Created 3000 atoms
  using lattice units in orthogonal box = (-9000 -100 -100) to (9000 100 100)
  create_atoms CPU = 0.001 seconds

lattice sc ${lat2}                                                             # Top chain type2
lattice sc 3                                                             
Lattice spacing in x,y,z = 3 3 3

region slider1 block ${n2e2} ${n2e1} -0.1 0.1 5.9 6.1 units box
region slider1 block -3000 ${n2e1} -0.1 0.1 5.9 6.1 units box
region slider1 block -3000 3000 -0.1 0.1 5.9 6.1 units box

create_atoms 2 region slider1
Created 2001 atoms
  using lattice units in orthogonal box = (-9000 -100 -100) to (9000 100 100)
  create_atoms CPU = 0.001 seconds

#lattice sc ${lat0}                                                             # Supporting particle type3

#region support block ${lenspr1} ${lenspr2} -0.1 0.1 7.9 8.1 units box

#create_atoms 3 region support

set type 1 diameter ${d1}                    # Set mass and diameter for each particles type
set type 1 diameter 3.76                    
Setting atom values ...
  3000 settings made for diameter
set type 1 mass ${mass1}
set type 1 mass 61.2329013727605
Setting atom values ...
  3000 settings made for mass
set type 2 diameter ${d2}
set type 2 diameter 3
Setting atom values ...
  2001 settings made for diameter
set type 2 mass ${mass2}
set type 2 mass 31.101767270539
Setting atom values ...
  2001 settings made for mass
#set type 3 diameter ${d3}
#set type 3 mass ${mass3}

group substrate region substrate           # Define gorup
3000 atoms in group substrate
group slider1 region slider1
2001 atoms in group slider1
#group support region support
#group substrate_slider union substrate slider1

########################## Potential ###################################
pair_style granular
pair_coeff 1 1 hertz/material 0.00000001 0.001 ${PR} tangential mindlin NULL 0.1 0.01 damping viscoelastic              ########### set E between each particle in same type is small to neglect their interaction
pair_coeff 1 1 hertz/material 0.00000001 0.001 0.3 tangential mindlin NULL 0.1 0.01 damping viscoelastic              
pair_coeff 2 2 hertz/material 0.00000001 0.001 ${PR} tangential mindlin NULL 0.1 0.01 damping viscoelastic
pair_coeff 2 2 hertz/material 0.00000001 0.001 0.3 tangential mindlin NULL 0.1 0.01 damping viscoelastic
#pair_coeff 3 3 hertz/material ${E} 0.001 ${PR} tangential mindlin NULL 0.1 0.01 damping viscoelastic
pair_coeff 1 2 hertz/material ${E} 0.001 ${PR} tangential mindlin NULL 0.1 0.01 damping viscoelastic
pair_coeff 1 2 hertz/material 100000000 0.001 ${PR} tangential mindlin NULL 0.1 0.01 damping viscoelastic
pair_coeff 1 2 hertz/material 100000000 0.001 0.3 tangential mindlin NULL 0.1 0.01 damping viscoelastic
#pair_coeff 1 3 hertz/material 0.00000001 0.001 ${PR} tangential mindlin NULL 0.1 0.01 damping viscoelastic
#pair_coeff 2 3 hertz/material 0.00000001 0.001 ${PR} tangential mindlin NULL 0.1 0.01 damping viscoelastic
comm_modify     vel yes
neigh_modify    delay 0 every 1 check yes

### Compute properties ###

compute 1 slider1 com                      # Compute the center of mass of top chain
#compute 2 support com                      # Compute the center of mass of supporting particle

variable p0 equal "step"

variable slider_z equal "c_1[3]"          # output the position of top chain in z-direction

#variable distance equal "c_2[1]-c_1[1]"   # Distance between COM of top chain and supporting particle

thermo 100000
thermo_style custom step lx ly lz press pxx pyy pzz ke pe temp c_1[1] c_1[2] c_1[3] #c_2[1] c_2[2] c_2[3] v_distance

############### Fix ##################


############## Equilibrium the system with apply force ########################

fix force_slider1 slider1 setforce NULL 0 NULL                                # Fix top chain not to move in y-direction

fix f_sub substrate freeze                                                    # Freeze the bottom chain

fix rigid_top slider1 rigid/nve group 1 slider1 langevin 0 0 ${lgv} 6987532   # NVE+langevin
fix rigid_top slider1 rigid/nve group 1 slider1 langevin 0 0 0.5 6987532   
  1 rigid bodies with 2001 atoms

fix add slider1 addforce 0 0 ${Fn} every 1                                    # Add force to top layer
fix add slider1 addforce 0 0 -1000 every 1                                    

timestep ${dt}
timestep 1e-05

# fix  nve_1 slider1 nve

dump 		D1 all custom 100000 Equi_${num}_*.dump id type diameter mass xu yu zu fx fy fz
dump 		D1 all custom 100000 Equi_2_*.dump id type diameter mass xu yu zu fx fy fz
dump_modify D1 format 5 %.18g
dump_modify D1 format 7 %.18g

run 3000000
Generated 0 of 1 mixed pair_coeff terms from geometric mixing rule
Neighbor list info ...
  update every 1 steps, delay 0 steps, check yes
  max neighbors/atom: 2000, page size: 100000
  master list distance cutoff = 3.86
  ghost atom cutoff = 3.86
  binsize = 1.93, bins = 9327 104 104
  1 neighbor lists, perpetual/occasional/extra = 1 0 0
  (1) pair granular, perpetual
      attributes: half, newton on, size, history
      pair build: half/size/bin/newton
      stencil: half/bin/3d
      bin: standard
Per MPI rank memory allocation (min/avg/max) = 224.6 | 224.6 | 224.6 Mbytes
   Step           Lx             Ly             Lz           Press           Pxx            Pyy            Pzz           KinEng         PotEng          Temp          c_1[1]         c_1[2]         c_1[3]    
         0   18000          200            200            0              0              0              0              0              0              0              1.1971759e-13  0              6            
    100000   18000          200            200           -2.8307493e-05  1.9746075e-34  0             -8.4922479e-05  1378866.5      0              6.6580529e+10  1.1971759e-13  0              3.401955     
    200000   18000          200            200           -0.00023615591  5.3852977e-35  0             -0.00070846773  67249.678      0              3.2472463e+09  1.1971759e-13  0              3.5219141    
    300000   18000          200            200            3.2093367e-05 -1.7950962e-34  0              9.6280101e-05  788.74655      0              38085748       1.1971759e-13  0              3.4254004    
    400000   18000          200            200           -8.3528323e-05  1.7951032e-35  0             -0.00025058497  6548.7014      0              3.1621335e+08  1.1971759e-13  0              3.386658     
    500000   18000          200            200            0.0041132103   3.5901982e-35  0              0.012339631    4179.9234      0              2.0183354e+08  1.1971759e-13  0              3.3788321    
    600000   18000          200            200            0.0060399232   8.9754858e-35  0              0.018119769    166.11529      0              8021112.7      1.1971759e-13  0              3.3785101    
    700000   18000          200            200            0.0031546056   8.9754947e-36  0              0.0094638169   84.745696      0              4092066.4      1.1971759e-13  0              3.3790302    
    800000   18000          200            200            0.0033113418   7.1803882e-35  0              0.0099340253   9.0870918      0              438783.14      1.1971759e-13  0              3.3790011    
    900000   18000          200            200            0.0029915456  -3.1414186e-35  0              0.0089746368   0.19921223     0              9619.2457      1.1971759e-13  0              3.3790658    
   1000000   18000          200            200            0.0031807205  -1.3463219e-35  0              0.0095421616   0.026656795    0              1287.1612      1.1971759e-13  0              3.3790269    
   1100000   18000          200            200            0.0031221885   8.9754876e-36  0              0.0093665655   0.021024556    0              1015.2006      1.1971759e-13  0              3.3790389    
   1200000   18000          200            200            0.0031279276   8.7958552e-43  0              0.0093837827   0.0029848789   0              144.12912      1.1971759e-13  0              3.3790377    
   1300000   18000          200            200            0.0031326136   5.6096781e-37  0              0.0093978407   9.1597403e-05  0              4.4229108      1.1971759e-13  0              3.3790368    
   1400000   18000          200            200            0.0031294031  -4.2072581e-37  0              0.0093882094   4.7077593e-06  0              0.22732085     1.1971759e-13  0              3.3790374    
   1500000   18000          200            200            0.0031304702   5.6096776e-37  0              0.0093914105   5.7436711e-06  0              0.27734132     1.1971759e-13  0              3.3790372    
   1600000   18000          200            200            0.003130333   -1.4024194e-36  0              0.009390999    9.4317329e-07  0              0.045542463    1.1971759e-13  0              3.3790372    
   1700000   18000          200            200            0.0031302645   5.6096777e-37  0              0.0093907936   3.7616799e-08  0              0.0018163806   1.1971759e-13  0              3.3790372    
   1800000   18000          200            200            0.0031303185   1.9633872e-36  0              0.0093909554   6.7909981e-10  0              3.27913e-05    1.1971759e-13  0              3.3790372    
   1900000   18000          200            200            0.0031302992  -8.4145162e-37  0              0.0093908976   1.5348174e-09  0              7.4110841e-05  1.1971759e-13  0              3.3790372    
   2000000   18000          200            200            0.0031303022  -8.4145162e-37  0              0.0093909066   2.9286115e-10  0              1.4141217e-05  1.1971759e-13  0              3.3790372    
   2100000   18000          200            200            0.0031303032   1.0262151e-44  0              0.0093909095   1.459558e-11   0              7.047683e-07   1.1971759e-13  0              3.3790372    
   2200000   18000          200            200            0.0031303023   5.6096777e-37  0              0.0093909068   6.1093012e-14  0              2.9499629e-09  1.1971759e-13  0              3.3790372    
   2300000   18000          200            200            0.0031303026  -5.6096774e-37  0              0.0093909078   4.0084629e-13  0              1.9355433e-08  1.1971759e-13  0              3.3790372    
   2400000   18000          200            200            0.0031303026   3.3658065e-36  0              0.0093909077   8.9360239e-14  0              4.3148862e-09  1.1971759e-13  0              3.3790372    
   2500000   18000          200            200            0.0031303025   1.017522e-44   0              0.0093909076   5.2415213e-15  0              2.530943e-10   1.1971759e-13  0              3.3790372    
   2600000   18000          200            200            0.0031303026   1.1219355e-36  0              0.0093909077   2.293081e-19   0              1.1072467e-14  1.1971759e-13  0              3.3790372    
   2700000   18000          200            200            0.0031303026   2.8048389e-37  0              0.0093909077   1.5530015e-16  0              7.4988885e-12  1.1971759e-13  0              3.3790372    
   2800000   18000          200            200            0.0031303026  -2.8048387e-37  0              0.0093909077   1.0170071e-18  0              4.9107631e-14  1.1971759e-13  0              3.3790372    
   2900000   18000          200            200            0.0031303026   2.8048389e-37  0              0.0093909077   1.3059956e-17  0              6.3061854e-13  1.1971759e-13  0              3.3790372    
   3000000   18000          200            200            0.0031303026   1.1219355e-36  0              0.0093909077   3.8489285e-18  0              1.8585098e-13  1.1971759e-13  0              3.3790372    
Loop time of 777.238 on 2 procs for 3000000 steps with 5001 atoms

Performance: 3334887.147 ns/day, 0.000 hours/ns, 3859.823 timesteps/s
99.9% CPU use with 2 MPI tasks x 1 OpenMP threads

MPI task timing breakdown:
Section |  min time  |  avg time  |  max time  |%varavg| %total
---------------------------------------------------------------
Pair    | 243.85     | 244.32     | 244.79     |   3.0 | 31.43
Neigh   | 10.481     | 10.481     | 10.481     |   0.0 |  1.35
Comm    | 33.286     | 33.924     | 34.562     |  11.0 |  4.36
Output  | 0.62017    | 0.62018    | 0.6202     |   0.0 |  0.08
Modify  | 428.7      | 428.86     | 429.02     |   0.8 | 55.18
Other   |            | 59.03      |            |       |  7.60

Nlocal:         2500.5 ave        2501 max        2500 min
Histogram: 1 0 0 0 0 0 0 0 0 1
Nghost:            2.5 ave           3 max           2 min
Histogram: 1 0 0 0 0 0 0 0 0 1
Neighs:         1500.5 ave        1501 max        1500 min
Histogram: 1 0 0 0 0 0 0 0 0 1

Total # of neighbors = 3001
Ave neighs/atom = 0.60007998
Neighbor list builds = 146
Dangerous builds = 0

undump D1

############ Add spring between top chain to supp particle and then equilibrium  ###########

#fix sp1 support spring couple slider1 ${K0} ${lenspr} NULL NULL 0                                 # Add spring

#dump 		D2 all custom 100000 add_${num}*.dump id type diameter mass xu yu zu

#fix add1 all print 10 "${p0} ${distance} ${slider_z}" file add_distance_${num}.txt screen no      # out put step, distance(spring length), z-position of top chain

#run 1000000

#undump D2

#unfix add1

########## Pulling the supporting particle with constant velocity #############

#fix m1 support move linear 0.1 0 0 units box                                                      # apply constant velocity to supporting particles along x-direction V=0.1m/s

#fix move1 all print 100 "${p0} ${distance} ${slider_z}" file move_distance_${num}.txt screen no

#dump 		1 all custom 50000 move_${num}_*.dump id type diameter mass xu yu zu

#run 1000000

clear
  using 1 OpenMP thread(s) per MPI task

next num

jump SELF startloop

include granular.in
### Simulation of contact between two chain

##################### Simulation setup ####################

units micro                              # units
dimension	3                            # dimension
boundary	p p p                        # boundary condition p: periodic
atom_style	sphere                       # atom style
#processors * * 1

####################### Parameter ##################################

variable ind equal ${num}
variable ind equal 3

#variable lat0 equal 1                    #
variable lat1 equal 6      # Lattice distance of bottom chain
variable lat2 equal 3                    # Lattice distance of top chain
variable d1 equal 3+(74*0.01)+(v_ind*0.01)                       # Diamter of particle at bottom chain
variable d2 equal 3                      # Diamter of particle at top chain
#variable d3 equal 1                      # Diamter of supporting particle

variable n2e1 equal 1000*v_lat2             # Half length of top chain. 1500 is number of particles
variable n1e1 equal 1.5*v_n2e1*(v_lat1/v_lat2)             # Half length of bottom chain, which is 1.5 time larger than top chain
variable n1e2 equal -v_n1e1
variable n2e2 equal -v_n2e1
#variable lenspr equal -(v_n2e1+100)           # length of the spring connecting top chain and supporting particle
#variable lenspr1 equal -v_lenspr-0.1         # Position of supporting particle upper bound
#variable lenspr2 equal -v_lenspr+0.1         # Position of supporting particle lower bound

variable den equal 2.2 #grams/cm^3      # micrometer^3=10^-12 cm^3 Density of materials

variable V1 equal (1/6)*PI*(v_d1^3)     # Volume of particle 1
variable V2 equal (1/6)*PI*(v_d2^3)     # Volume of particle 2
#variable V3 equal (1/6)*PI*(v_d3^3)     # Volume of particle 3

variable mass1 equal v_den*v_V1  # Mass of particle 1 (picograms)
variable mass2 equal v_den*v_V2  # Mass of particle 2
#variable mass3 equal v_den*v_V3  # Mass of particle 3

# E GPa to picogram/(micrometer-microsecond^2)= 10^3 Pa= 10^-6 GPa
# Force unit(picogram-micrometer/microsecond^2)=10^-9 N= 1nN
# Spring stiffness (force/distance) 10^-3 N/m

variable K0 equal (1500/50)*(10^5)             # Spring stiffness conneting top chain and sup particle
variable E equal 100*(10^6)                    # Young's Modulus using for Hertz/material model
variable PR equal 0.3                          # Poisson's ratio using for Hertz/material model
variable Fn equal -1000                        # Force apply to each particles in top chain
variable dt equal 0.00001                      # Time step units microsecond
variable lgv equal 0.5                         #damping for langevin thermostat for slider


################### Creating the model #################################
lattice sc ${lat1}                                                               # Bottom chain type1
lattice sc 6                                                               
Lattice spacing in x,y,z = 6 6 6

region box block ${n1e2} ${n1e1} -100 100 -100 100 units box
region box block -9000 ${n1e1} -100 100 -100 100 units box
region box block -9000 9000 -100 100 -100 100 units box
region substrate block ${n1e2} ${n1e1} -0.5 0.5 0 0.5 units box
region substrate block -9000 ${n1e1} -0.5 0.5 0 0.5 units box
region substrate block -9000 9000 -0.5 0.5 0 0.5 units box

create_box 2 box
Created orthogonal box = (-9000 -100 -100) to (9000 100 100)
  2 by 1 by 1 MPI processor grid
create_atoms 1 region substrate
Created 3000 atoms
  using lattice units in orthogonal box = (-9000 -100 -100) to (9000 100 100)
  create_atoms CPU = 0.002 seconds

lattice sc ${lat2}                                                             # Top chain type2
lattice sc 3                                                             
Lattice spacing in x,y,z = 3 3 3

region slider1 block ${n2e2} ${n2e1} -0.1 0.1 5.9 6.1 units box
region slider1 block -3000 ${n2e1} -0.1 0.1 5.9 6.1 units box
region slider1 block -3000 3000 -0.1 0.1 5.9 6.1 units box

create_atoms 2 region slider1
Created 2001 atoms
  using lattice units in orthogonal box = (-9000 -100 -100) to (9000 100 100)
  create_atoms CPU = 0.001 seconds

#lattice sc ${lat0}                                                             # Supporting particle type3

#region support block ${lenspr1} ${lenspr2} -0.1 0.1 7.9 8.1 units box

#create_atoms 3 region support

set type 1 diameter ${d1}                    # Set mass and diameter for each particles type
set type 1 diameter 3.77                    
Setting atom values ...
  3000 settings made for diameter
set type 1 mass ${mass1}
set type 1 mass 61.7227622706926
Setting atom values ...
  3000 settings made for mass
set type 2 diameter ${d2}
set type 2 diameter 3
Setting atom values ...
  2001 settings made for diameter
set type 2 mass ${mass2}
set type 2 mass 31.101767270539
Setting atom values ...
  2001 settings made for mass
#set type 3 diameter ${d3}
#set type 3 mass ${mass3}

group substrate region substrate           # Define gorup
3000 atoms in group substrate
group slider1 region slider1
2001 atoms in group slider1
#group support region support
#group substrate_slider union substrate slider1

########################## Potential ###################################
pair_style granular
pair_coeff 1 1 hertz/material 0.00000001 0.001 ${PR} tangential mindlin NULL 0.1 0.01 damping viscoelastic              ########### set E between each particle in same type is small to neglect their interaction
pair_coeff 1 1 hertz/material 0.00000001 0.001 0.3 tangential mindlin NULL 0.1 0.01 damping viscoelastic              
pair_coeff 2 2 hertz/material 0.00000001 0.001 ${PR} tangential mindlin NULL 0.1 0.01 damping viscoelastic
pair_coeff 2 2 hertz/material 0.00000001 0.001 0.3 tangential mindlin NULL 0.1 0.01 damping viscoelastic
#pair_coeff 3 3 hertz/material ${E} 0.001 ${PR} tangential mindlin NULL 0.1 0.01 damping viscoelastic
pair_coeff 1 2 hertz/material ${E} 0.001 ${PR} tangential mindlin NULL 0.1 0.01 damping viscoelastic
pair_coeff 1 2 hertz/material 100000000 0.001 ${PR} tangential mindlin NULL 0.1 0.01 damping viscoelastic
pair_coeff 1 2 hertz/material 100000000 0.001 0.3 tangential mindlin NULL 0.1 0.01 damping viscoelastic
#pair_coeff 1 3 hertz/material 0.00000001 0.001 ${PR} tangential mindlin NULL 0.1 0.01 damping viscoelastic
#pair_coeff 2 3 hertz/material 0.00000001 0.001 ${PR} tangential mindlin NULL 0.1 0.01 damping viscoelastic
comm_modify     vel yes
neigh_modify    delay 0 every 1 check yes

### Compute properties ###

compute 1 slider1 com                      # Compute the center of mass of top chain
#compute 2 support com                      # Compute the center of mass of supporting particle

variable p0 equal "step"

variable slider_z equal "c_1[3]"          # output the position of top chain in z-direction

#variable distance equal "c_2[1]-c_1[1]"   # Distance between COM of top chain and supporting particle

thermo 100000
thermo_style custom step lx ly lz press pxx pyy pzz ke pe temp c_1[1] c_1[2] c_1[3] #c_2[1] c_2[2] c_2[3] v_distance

############### Fix ##################


############## Equilibrium the system with apply force ########################

fix force_slider1 slider1 setforce NULL 0 NULL                                # Fix top chain not to move in y-direction

fix f_sub substrate freeze                                                    # Freeze the bottom chain

fix rigid_top slider1 rigid/nve group 1 slider1 langevin 0 0 ${lgv} 6987532   # NVE+langevin
fix rigid_top slider1 rigid/nve group 1 slider1 langevin 0 0 0.5 6987532   
  1 rigid bodies with 2001 atoms

fix add slider1 addforce 0 0 ${Fn} every 1                                    # Add force to top layer
fix add slider1 addforce 0 0 -1000 every 1                                    

timestep ${dt}
timestep 1e-05

# fix  nve_1 slider1 nve

dump 		D1 all custom 100000 Equi_${num}_*.dump id type diameter mass xu yu zu fx fy fz
dump 		D1 all custom 100000 Equi_3_*.dump id type diameter mass xu yu zu fx fy fz
dump_modify D1 format 5 %.18g
dump_modify D1 format 7 %.18g

run 3000000
Generated 0 of 1 mixed pair_coeff terms from geometric mixing rule
Neighbor list info ...
  update every 1 steps, delay 0 steps, check yes
  max neighbors/atom: 2000, page size: 100000
  master list distance cutoff = 3.87
  ghost atom cutoff = 3.87
  binsize = 1.935, bins = 9303 104 104
  1 neighbor lists, perpetual/occasional/extra = 1 0 0
  (1) pair granular, perpetual
      attributes: half, newton on, size, history
      pair build: half/size/bin/newton
      stencil: half/bin/3d
      bin: standard
Per MPI rank memory allocation (min/avg/max) = 224.1 | 224.1 | 224.1 Mbytes
   Step           Lx             Ly             Lz           Press           Pxx            Pyy            Pzz           KinEng         PotEng          Temp          c_1[1]         c_1[2]         c_1[3]    
         0   18000          200            200            0              0              0              0              0              0              0              1.1971759e-13  0              6            
    100000   18000          200            200           -3.9769513e-05  1.1309916e-40  0             -0.00011930854  1362256.1      0              6.5778471e+10  1.1971759e-13  0              3.4123559    
    200000   18000          200            200           -0.00023180876  9.1925255e-41  0             -0.00069542628  63554.071      0              3.0687987e+09  1.1971759e-13  0              3.5285272    
    300000   18000          200            200            4.0966956e-05  1.7951042e-35  0              0.00012290087  1265.2992      0              61096769       1.1971759e-13  0              3.4301488    
    400000   18000          200            200           -7.5608727e-05  1.7951034e-35  0             -0.00022682618  5266.7116      0              2.5431065e+08  1.1971759e-13  0              3.3922812    
    500000   18000          200            200            0.0015380101   5.3852962e-35  0              0.0046140303   4047.2397      0              1.9542672e+08  1.1971759e-13  0              3.384384     
    600000   18000          200            200            0.0065097756   1.7950986e-35  0              0.019529327    12.680531      0              612297.48      1.1971759e-13  0              3.3834341    
    700000   18000          200            200            0.0027192288  -1.1668128e-34  0              0.0081576865   73.181968      0              3533695.3      1.1971759e-13  0              3.3841227    
    800000   18000          200            200            0.0034626268  -8.0779347e-35  0              0.01038788     4.3234433      0              208763.6       1.1971759e-13  0              3.3839721    
    900000   18000          200            200            0.002986992    7.1803881e-35  0              0.0089609759   0.018289088    0              883.1146       1.1971759e-13  0              3.3840682    
   1000000   18000          200            200            0.0031678204   3.5901943e-35  0              0.0095034611   0.1214111      0              5862.5075      1.1971759e-13  0              3.3840308    
   1100000   18000          200            200            0.0031379697   2.2438714e-35  0              0.009413909    0.024788114    0              1196.9293      1.1971759e-13  0              3.384037     
   1200000   18000          200            200            0.0031290738   4.4877429e-36  0              0.0093872214   0.0011041472   0              53.315318      1.1971759e-13  0              3.3840388    
   1300000   18000          200            200            0.0031374757   1.1219356e-36  0              0.0094124271   1.6251307e-05  0              0.78471743     1.1971759e-13  0              3.3840371    
   1400000   18000          200            200            0.003134431   -1.4024194e-37  0              0.009403293    4.0892051e-05  0              1.9745308      1.1971759e-13  0              3.3840377    
   1500000   18000          200            200            0.0031348535   3.0853227e-36  0              0.0094045604   7.1752569e-06  0              0.34646748     1.1971759e-13  0              3.3840376    
   1600000   18000          200            200            0.003135042    1.1219355e-36  0              0.0094051259   2.5296526e-07  0              0.012214787    1.1971759e-13  0              3.3840376    
   1700000   18000          200            200            0.0031348918   2.8048389e-37  0              0.0094046754   9.9968274e-09  0              0.00048271102  1.1971759e-13  0              3.3840376    
   1800000   18000          200            200            0.0031349424  -8.4145162e-37  0              0.0094048271   1.3533558e-08  0              0.00065348707  1.1971759e-13  0              3.3840376    
   1900000   18000          200            200            0.0031349367   1.0466395e-44  0              0.0094048102   2.0453031e-09  0              9.8760366e-05  1.1971759e-13  0              3.3840376    
   2000000   18000          200            200            0.0031349329  -5.6096774e-37  0              0.0094047987   5.4608945e-11  0              2.6368705e-06  1.1971759e-13  0              3.3840376    
   2100000   18000          200            200            0.0031349356  -2.8048387e-37  0              0.0094048067   5.0239985e-12  0              2.4259091e-07  1.1971759e-13  0              3.3840376    
   2200000   18000          200            200            0.0031349347   8.4145164e-37  0              0.0094048042   4.4011061e-12  0              2.1251366e-07  1.1971759e-13  0              3.3840376    
   2300000   18000          200            200            0.0031349348  -2.8048387e-37  0              0.0094048044   5.7448401e-13  0              2.7739777e-08  1.1971759e-13  0              3.3840376    
   2400000   18000          200            200            0.0031349349   3.3658065e-36  0              0.0094048046   1.0815352e-14  0              5.2223465e-10  1.1971759e-13  0              3.3840376    
   2500000   18000          200            200            0.0031349348   5.0487098e-36  0              0.0094048045   2.3345815e-15  0              1.1272859e-10  1.1971759e-13  0              3.3840376    
   2600000   18000          200            200            0.0031349348  -2.8048387e-37  0              0.0094048045   1.3658959e-15  0              6.5954223e-11  1.1971759e-13  0              3.3840376    
   2700000   18000          200            200            0.0031349348   2.8048389e-37  0              0.0094048045   1.1786594e-16  0              5.6913242e-12  1.1971759e-13  0              3.3840376    
   2800000   18000          200            200            0.0031349348   1.0321113e-44  0              0.0094048045   8.5182979e-18  0              4.1131812e-13  1.1971759e-13  0              3.3840376    
   2900000   18000          200            200            0.0031349348   8.8855165e-45  0              0.0094048045   9.1135013e-22  0              4.4005836e-17  1.1971759e-13  0              3.3840376    
   3000000   18000          200            200            0.0031349348   1.0011741e-44  0              0.0094048045   1.2652769e-17  0              6.1095693e-13  1.1971759e-13  0              3.3840376    
Loop time of 783.163 on 2 procs for 3000000 steps with 5001 atoms

Performance: 3309656.245 ns/day, 0.000 hours/ns, 3830.621 timesteps/s
99.9% CPU use with 2 MPI tasks x 1 OpenMP threads

MPI task timing breakdown:
Section |  min time  |  avg time  |  max time  |%varavg| %total
---------------------------------------------------------------
Pair    | 246.2      | 246.93     | 247.66     |   4.6 | 31.53
Neigh   | 10.71      | 10.71      | 10.711     |   0.0 |  1.37
Comm    | 33.989     | 34.535     | 35.082     |   9.3 |  4.41
Output  | 0.62467    | 0.62468    | 0.6247     |   0.0 |  0.08
Modify  | 430.93     | 431.13     | 431.34     |   1.0 | 55.05
Other   |            | 59.23      |            |       |  7.56

Nlocal:         2500.5 ave        2501 max        2500 min
Histogram: 1 0 0 0 0 0 0 0 0 1
Nghost:            2.5 ave           3 max           2 min
Histogram: 1 0 0 0 0 0 0 0 0 1
Neighs:         1500.5 ave        1501 max        1500 min
Histogram: 1 0 0 0 0 0 0 0 0 1

Total # of neighbors = 3001
Ave neighs/atom = 0.60007998
Neighbor list builds = 150
Dangerous builds = 0

undump D1

############ Add spring between top chain to supp particle and then equilibrium  ###########

#fix sp1 support spring couple slider1 ${K0} ${lenspr} NULL NULL 0                                 # Add spring

#dump 		D2 all custom 100000 add_${num}*.dump id type diameter mass xu yu zu

#fix add1 all print 10 "${p0} ${distance} ${slider_z}" file add_distance_${num}.txt screen no      # out put step, distance(spring length), z-position of top chain

#run 1000000

#undump D2

#unfix add1

########## Pulling the supporting particle with constant velocity #############

#fix m1 support move linear 0.1 0 0 units box                                                      # apply constant velocity to supporting particles along x-direction V=0.1m/s

#fix move1 all print 100 "${p0} ${distance} ${slider_z}" file move_distance_${num}.txt screen no

#dump 		1 all custom 50000 move_${num}_*.dump id type diameter mass xu yu zu

#run 1000000

clear
  using 1 OpenMP thread(s) per MPI task

next num

jump SELF startloop

include granular.in
### Simulation of contact between two chain

##################### Simulation setup ####################

units micro                              # units
dimension	3                            # dimension
boundary	p p p                        # boundary condition p: periodic
atom_style	sphere                       # atom style
#processors * * 1

####################### Parameter ##################################

variable ind equal ${num}
variable ind equal 4

#variable lat0 equal 1                    #
variable lat1 equal 6      # Lattice distance of bottom chain
variable lat2 equal 3                    # Lattice distance of top chain
variable d1 equal 3+(74*0.01)+(v_ind*0.01)                       # Diamter of particle at bottom chain
variable d2 equal 3                      # Diamter of particle at top chain
#variable d3 equal 1                      # Diamter of supporting particle

variable n2e1 equal 1000*v_lat2             # Half length of top chain. 1500 is number of particles
variable n1e1 equal 1.5*v_n2e1*(v_lat1/v_lat2)             # Half length of bottom chain, which is 1.5 time larger than top chain
variable n1e2 equal -v_n1e1
variable n2e2 equal -v_n2e1
#variable lenspr equal -(v_n2e1+100)           # length of the spring connecting top chain and supporting particle
#variable lenspr1 equal -v_lenspr-0.1         # Position of supporting particle upper bound
#variable lenspr2 equal -v_lenspr+0.1         # Position of supporting particle lower bound

variable den equal 2.2 #grams/cm^3      # micrometer^3=10^-12 cm^3 Density of materials

variable V1 equal (1/6)*PI*(v_d1^3)     # Volume of particle 1
variable V2 equal (1/6)*PI*(v_d2^3)     # Volume of particle 2
#variable V3 equal (1/6)*PI*(v_d3^3)     # Volume of particle 3

variable mass1 equal v_den*v_V1  # Mass of particle 1 (picograms)
variable mass2 equal v_den*v_V2  # Mass of particle 2
#variable mass3 equal v_den*v_V3  # Mass of particle 3

# E GPa to picogram/(micrometer-microsecond^2)= 10^3 Pa= 10^-6 GPa
# Force unit(picogram-micrometer/microsecond^2)=10^-9 N= 1nN
# Spring stiffness (force/distance) 10^-3 N/m

variable K0 equal (1500/50)*(10^5)             # Spring stiffness conneting top chain and sup particle
variable E equal 100*(10^6)                    # Young's Modulus using for Hertz/material model
variable PR equal 0.3                          # Poisson's ratio using for Hertz/material model
variable Fn equal -1000                        # Force apply to each particles in top chain
variable dt equal 0.00001                      # Time step units microsecond
variable lgv equal 0.5                         #damping for langevin thermostat for slider


################### Creating the model #################################
lattice sc ${lat1}                                                               # Bottom chain type1
lattice sc 6                                                               
Lattice spacing in x,y,z = 6 6 6

region box block ${n1e2} ${n1e1} -100 100 -100 100 units box
region box block -9000 ${n1e1} -100 100 -100 100 units box
region box block -9000 9000 -100 100 -100 100 units box
region substrate block ${n1e2} ${n1e1} -0.5 0.5 0 0.5 units box
region substrate block -9000 ${n1e1} -0.5 0.5 0 0.5 units box
region substrate block -9000 9000 -0.5 0.5 0 0.5 units box

create_box 2 box
Created orthogonal box = (-9000 -100 -100) to (9000 100 100)
  2 by 1 by 1 MPI processor grid
create_atoms 1 region substrate
Created 3000 atoms
  using lattice units in orthogonal box = (-9000 -100 -100) to (9000 100 100)
  create_atoms CPU = 0.002 seconds

lattice sc ${lat2}                                                             # Top chain type2
lattice sc 3                                                             
Lattice spacing in x,y,z = 3 3 3

region slider1 block ${n2e2} ${n2e1} -0.1 0.1 5.9 6.1 units box
region slider1 block -3000 ${n2e1} -0.1 0.1 5.9 6.1 units box
region slider1 block -3000 3000 -0.1 0.1 5.9 6.1 units box

create_atoms 2 region slider1
Created 2001 atoms
  using lattice units in orthogonal box = (-9000 -100 -100) to (9000 100 100)
  create_atoms CPU = 0.001 seconds

#lattice sc ${lat0}                                                             # Supporting particle type3

#region support block ${lenspr1} ${lenspr2} -0.1 0.1 7.9 8.1 units box

#create_atoms 3 region support

set type 1 diameter ${d1}                    # Set mass and diameter for each particles type
set type 1 diameter 3.78                    
Setting atom values ...
  3000 settings made for diameter
set type 1 mass ${mass1}
set type 1 mass 62.2152288055716
Setting atom values ...
  3000 settings made for mass
set type 2 diameter ${d2}
set type 2 diameter 3
Setting atom values ...
  2001 settings made for diameter
set type 2 mass ${mass2}
set type 2 mass 31.101767270539
Setting atom values ...
  2001 settings made for mass
#set type 3 diameter ${d3}
#set type 3 mass ${mass3}

group substrate region substrate           # Define gorup
3000 atoms in group substrate
group slider1 region slider1
2001 atoms in group slider1
#group support region support
#group substrate_slider union substrate slider1

########################## Potential ###################################
pair_style granular
pair_coeff 1 1 hertz/material 0.00000001 0.001 ${PR} tangential mindlin NULL 0.1 0.01 damping viscoelastic              ########### set E between each particle in same type is small to neglect their interaction
pair_coeff 1 1 hertz/material 0.00000001 0.001 0.3 tangential mindlin NULL 0.1 0.01 damping viscoelastic              
pair_coeff 2 2 hertz/material 0.00000001 0.001 ${PR} tangential mindlin NULL 0.1 0.01 damping viscoelastic
pair_coeff 2 2 hertz/material 0.00000001 0.001 0.3 tangential mindlin NULL 0.1 0.01 damping viscoelastic
#pair_coeff 3 3 hertz/material ${E} 0.001 ${PR} tangential mindlin NULL 0.1 0.01 damping viscoelastic
pair_coeff 1 2 hertz/material ${E} 0.001 ${PR} tangential mindlin NULL 0.1 0.01 damping viscoelastic
pair_coeff 1 2 hertz/material 100000000 0.001 ${PR} tangential mindlin NULL 0.1 0.01 damping viscoelastic
pair_coeff 1 2 hertz/material 100000000 0.001 0.3 tangential mindlin NULL 0.1 0.01 damping viscoelastic
#pair_coeff 1 3 hertz/material 0.00000001 0.001 ${PR} tangential mindlin NULL 0.1 0.01 damping viscoelastic
#pair_coeff 2 3 hertz/material 0.00000001 0.001 ${PR} tangential mindlin NULL 0.1 0.01 damping viscoelastic
comm_modify     vel yes
neigh_modify    delay 0 every 1 check yes

### Compute properties ###

compute 1 slider1 com                      # Compute the center of mass of top chain
#compute 2 support com                      # Compute the center of mass of supporting particle

variable p0 equal "step"

variable slider_z equal "c_1[3]"          # output the position of top chain in z-direction

#variable distance equal "c_2[1]-c_1[1]"   # Distance between COM of top chain and supporting particle

thermo 100000
thermo_style custom step lx ly lz press pxx pyy pzz ke pe temp c_1[1] c_1[2] c_1[3] #c_2[1] c_2[2] c_2[3] v_distance

############### Fix ##################


############## Equilibrium the system with apply force ########################

fix force_slider1 slider1 setforce NULL 0 NULL                                # Fix top chain not to move in y-direction

fix f_sub substrate freeze                                                    # Freeze the bottom chain

fix rigid_top slider1 rigid/nve group 1 slider1 langevin 0 0 ${lgv} 6987532   # NVE+langevin
fix rigid_top slider1 rigid/nve group 1 slider1 langevin 0 0 0.5 6987532   
  1 rigid bodies with 2001 atoms

fix add slider1 addforce 0 0 ${Fn} every 1                                    # Add force to top layer
fix add slider1 addforce 0 0 -1000 every 1                                    

timestep ${dt}
timestep 1e-05

# fix  nve_1 slider1 nve

dump 		D1 all custom 100000 Equi_${num}_*.dump id type diameter mass xu yu zu fx fy fz
dump 		D1 all custom 100000 Equi_4_*.dump id type diameter mass xu yu zu fx fy fz
dump_modify D1 format 5 %.18g
dump_modify D1 format 7 %.18g

run 3000000
Generated 0 of 1 mixed pair_coeff terms from geometric mixing rule
Neighbor list info ...
  update every 1 steps, delay 0 steps, check yes
  max neighbors/atom: 2000, page size: 100000
  master list distance cutoff = 3.88
  ghost atom cutoff = 3.88
  binsize = 1.94, bins = 9279 104 104
  1 neighbor lists, perpetual/occasional/extra = 1 0 0
  (1) pair granular, perpetual
      attributes: half, newton on, size, history
      pair build: half/size/bin/newton
      stencil: half/bin/3d
      bin: standard
Per MPI rank memory allocation (min/avg/max) = 223.5 | 223.5 | 223.5 Mbytes
   Step           Lx             Ly             Lz           Press           Pxx            Pyy            Pzz           KinEng         PotEng          Temp          c_1[1]         c_1[2]         c_1[3]    
         0   18000          200            200            0              0              0              0              0              0              0              1.1971759e-13  0              6            
    100000   18000          200            200           -5.1074315e-05  3.5902116e-35  0             -0.00015322295  1345756.6      0              6.4981772e+10  1.1971759e-13  0              3.4227272    
    200000   18000          200            200           -0.00022733514  7.1119785e-41  0             -0.00068200543  59966.471      0              2.8955663e+09  1.1971759e-13  0              3.5350945    
    300000   18000          200            200            4.9955665e-05 -1.79509e-35    0              0.000149867    1853.1497      0              89481966       1.1971759e-13  0              3.4348402    
[...]
   3000000   18000          200            200            0.0035749969   2.8048389e-37  0              0.010724991    5.5271134e-18  0              2.6688453e-13  1.1971759e-13  0              3.8590671    
Loop time of 760.867 on 2 procs for 3000000 steps with 5001 atoms

Performance: 3406639.488 ns/day, 0.000 hours/ns, 3942.870 timesteps/s
99.9% CPU use with 2 MPI tasks x 1 OpenMP threads

MPI task timing breakdown:
Section |  min time  |  avg time  |  max time  |%varavg| %total
---------------------------------------------------------------
Pair    | 241.12     | 242.26     | 243.4      |   7.3 | 31.84
Neigh   | 4.7926     | 4.7935     | 4.7944     |   0.0 |  0.63
Comm    | 22.286     | 23.708     | 25.129     |  29.2 |  3.12
Output  | 0.61372    | 0.61373    | 0.61374    |   0.0 |  0.08
Modify  | 429.18     | 429.46     | 429.74     |   1.4 | 56.44
Other   |            | 60.03      |            |       |  7.89

Nlocal:         2500.5 ave        2501 max        2500 min
Histogram: 1 0 0 0 0 0 0 0 0 1
Nghost:            2.5 ave           3 max           2 min
Histogram: 1 0 0 0 0 0 0 0 0 1
Neighs:         1500.5 ave        1501 max        1500 min
Histogram: 1 0 0 0 0 0 0 0 0 1

Total # of neighbors = 3001
Ave neighs/atom = 0.60007998
Neighbor list builds = 128
Dangerous builds = 0

undump D1

############ Add spring between top chain to supp particle and then equilibrium  ###########

#fix sp1 support spring couple slider1 ${K0} ${lenspr} NULL NULL 0                                 # Add spring

#dump 		D2 all custom 100000 add_${num}*.dump id type diameter mass xu yu zu

#fix add1 all print 10 "${p0} ${distance} ${slider_z}" file add_distance_${num}.txt screen no      # out put step, distance(spring length), z-position of top chain

#run 1000000

#undump D2

#unfix add1

########## Pulling the supporting particle with constant velocity #############

#fix m1 support move linear 0.1 0 0 units box                                                      # apply constant velocity to supporting particles along x-direction V=0.1m/s

#fix move1 all print 100 "${p0} ${distance} ${slider_z}" file move_distance_${num}.txt screen no

#dump 		1 all custom 50000 move_${num}_*.dump id type diameter mass xu yu zu

#run 1000000

clear
  using 1 OpenMP thread(s) per MPI task

next num

jump SELF startloop

include granular.in
### Simulation of contact between two chain

##################### Simulation setup ####################

units micro                              # units
dimension	3                            # dimension
boundary	p p p                        # boundary condition p: periodic
atom_style	sphere                       # atom style
#processors * * 1

####################### Parameter ##################################

variable ind equal ${num}
variable ind equal 99

#variable lat0 equal 1                    #
variable lat1 equal 6      # Lattice distance of bottom chain
variable lat2 equal 3                    # Lattice distance of top chain
variable d1 equal 3+(74*0.01)+(v_ind*0.01)                       # Diamter of particle at bottom chain
variable d2 equal 3                      # Diamter of particle at top chain
#variable d3 equal 1                      # Diamter of supporting particle

variable n2e1 equal 1000*v_lat2             # Half length of top chain. 1500 is number of particles
variable n1e1 equal 1.5*v_n2e1*(v_lat1/v_lat2)             # Half length of bottom chain, which is 1.5 time larger than top chain
variable n1e2 equal -v_n1e1
variable n2e2 equal -v_n2e1
#variable lenspr equal -(v_n2e1+100)           # length of the spring connecting top chain and supporting particle
#variable lenspr1 equal -v_lenspr-0.1         # Position of supporting particle upper bound
#variable lenspr2 equal -v_lenspr+0.1         # Position of supporting particle lower bound

variable den equal 2.2 #grams/cm^3      # micrometer^3=10^-12 cm^3 Density of materials

variable V1 equal (1/6)*PI*(v_d1^3)     # Volume of particle 1
variable V2 equal (1/6)*PI*(v_d2^3)     # Volume of particle 2
#variable V3 equal (1/6)*PI*(v_d3^3)     # Volume of particle 3

variable mass1 equal v_den*v_V1  # Mass of particle 1 (picograms)
variable mass2 equal v_den*v_V2  # Mass of particle 2
#variable mass3 equal v_den*v_V3  # Mass of particle 3

# E GPa to picogram/(micrometer-microsecond^2)= 10^3 Pa= 10^-6 GPa
# Force unit(picogram-micrometer/microsecond^2)=10^-9 N= 1nN
# Spring stiffness (force/distance) 10^-3 N/m

variable K0 equal (1500/50)*(10^5)             # Spring stiffness conneting top chain and sup particle
variable E equal 100*(10^6)                    # Young's Modulus using for Hertz/material model
variable PR equal 0.3                          # Poisson's ratio using for Hertz/material model
variable Fn equal -1000                        # Force apply to each particles in top chain
variable dt equal 0.00001                      # Time step units microsecond
variable lgv equal 0.5                         #damping for langevin thermostat for slider


################### Creating the model #################################
lattice sc ${lat1}                                                               # Bottom chain type1
lattice sc 6                                                               
Lattice spacing in x,y,z = 6 6 6

region box block ${n1e2} ${n1e1} -100 100 -100 100 units box
region box block -9000 ${n1e1} -100 100 -100 100 units box
region box block -9000 9000 -100 100 -100 100 units box
region substrate block ${n1e2} ${n1e1} -0.5 0.5 0 0.5 units box
region substrate block -9000 ${n1e1} -0.5 0.5 0 0.5 units box
region substrate block -9000 9000 -0.5 0.5 0 0.5 units box

create_box 2 box
Created orthogonal box = (-9000 -100 -100) to (9000 100 100)
  2 by 1 by 1 MPI processor grid
create_atoms 1 region substrate
Created 3000 atoms
  using lattice units in orthogonal box = (-9000 -100 -100) to (9000 100 100)
  create_atoms CPU = 0.002 seconds

lattice sc ${lat2}                                                             # Top chain type2
lattice sc 3                                                             
Lattice spacing in x,y,z = 3 3 3

region slider1 block ${n2e2} ${n2e1} -0.1 0.1 5.9 6.1 units box
region slider1 block -3000 ${n2e1} -0.1 0.1 5.9 6.1 units box
region slider1 block -3000 3000 -0.1 0.1 5.9 6.1 units box

create_atoms 2 region slider1
Created 2001 atoms
  using lattice units in orthogonal box = (-9000 -100 -100) to (9000 100 100)
  create_atoms CPU = 0.001 seconds

#lattice sc ${lat0}                                                             # Supporting particle type3

#region support block ${lenspr1} ${lenspr2} -0.1 0.1 7.9 8.1 units box

#create_atoms 3 region support

set type 1 diameter ${d1}                    # Set mass and diameter for each particles type
set type 1 diameter 4.73                    
Setting atom values ...
  3000 settings made for diameter
set type 1 mass ${mass1}
set type 1 mass 121.900286222745
Setting atom values ...
  3000 settings made for mass
set type 2 diameter ${d2}
set type 2 diameter 3
Setting atom values ...
  2001 settings made for diameter
set type 2 mass ${mass2}
set type 2 mass 31.101767270539
Setting atom values ...
  2001 settings made for mass
#set type 3 diameter ${d3}
#set type 3 mass ${mass3}

group substrate region substrate           # Define gorup
3000 atoms in group substrate
group slider1 region slider1
2001 atoms in group slider1
#group support region support
#group substrate_slider union substrate slider1

########################## Potential ###################################
pair_style granular
pair_coeff 1 1 hertz/material 0.00000001 0.001 ${PR} tangential mindlin NULL 0.1 0.01 damping viscoelastic              ########### set E between each particle in same type is small to neglect their interaction
pair_coeff 1 1 hertz/material 0.00000001 0.001 0.3 tangential mindlin NULL 0.1 0.01 damping viscoelastic              
pair_coeff 2 2 hertz/material 0.00000001 0.001 ${PR} tangential mindlin NULL 0.1 0.01 damping viscoelastic
pair_coeff 2 2 hertz/material 0.00000001 0.001 0.3 tangential mindlin NULL 0.1 0.01 damping viscoelastic
#pair_coeff 3 3 hertz/material ${E} 0.001 ${PR} tangential mindlin NULL 0.1 0.01 damping viscoelastic
pair_coeff 1 2 hertz/material ${E} 0.001 ${PR} tangential mindlin NULL 0.1 0.01 damping viscoelastic
pair_coeff 1 2 hertz/material 100000000 0.001 ${PR} tangential mindlin NULL 0.1 0.01 damping viscoelastic
pair_coeff 1 2 hertz/material 100000000 0.001 0.3 tangential mindlin NULL 0.1 0.01 damping viscoelastic
#pair_coeff 1 3 hertz/material 0.00000001 0.001 ${PR} tangential mindlin NULL 0.1 0.01 damping viscoelastic
#pair_coeff 2 3 hertz/material 0.00000001 0.001 ${PR} tangential mindlin NULL 0.1 0.01 damping viscoelastic
comm_modify     vel yes
neigh_modify    delay 0 every 1 check yes

### Compute properties ###

compute 1 slider1 com                      # Compute the center of mass of top chain
#compute 2 support com                      # Compute the center of mass of supporting particle

variable p0 equal "step"

variable slider_z equal "c_1[3]"          # output the position of top chain in z-direction

#variable distance equal "c_2[1]-c_1[1]"   # Distance between COM of top chain and supporting particle

thermo 100000
thermo_style custom step lx ly lz press pxx pyy pzz ke pe temp c_1[1] c_1[2] c_1[3] #c_2[1] c_2[2] c_2[3] v_distance

############### Fix ##################


############## Equilibrium the system with apply force ########################

fix force_slider1 slider1 setforce NULL 0 NULL                                # Fix top chain not to move in y-direction

fix f_sub substrate freeze                                                    # Freeze the bottom chain

fix rigid_top slider1 rigid/nve group 1 slider1 langevin 0 0 ${lgv} 6987532   # NVE+langevin
fix rigid_top slider1 rigid/nve group 1 slider1 langevin 0 0 0.5 6987532   
  1 rigid bodies with 2001 atoms

fix add slider1 addforce 0 0 ${Fn} every 1                                    # Add force to top layer
fix add slider1 addforce 0 0 -1000 every 1                                    

timestep ${dt}
timestep 1e-05

# fix  nve_1 slider1 nve

dump 		D1 all custom 100000 Equi_${num}_*.dump id type diameter mass xu yu zu fx fy fz
dump 		D1 all custom 100000 Equi_99_*.dump id type diameter mass xu yu zu fx fy fz
dump_modify D1 format 5 %.18g
dump_modify D1 format 7 %.18g

run 3000000
Generated 0 of 1 mixed pair_coeff terms from geometric mixing rule
Neighbor list info ...
  update every 1 steps, delay 0 steps, check yes
  max neighbors/atom: 2000, page size: 100000
  master list distance cutoff = 4.83
  ghost atom cutoff = 4.83
  binsize = 2.415, bins = 7454 83 83
  1 neighbor lists, perpetual/occasional/extra = 1 0 0
  (1) pair granular, perpetual
      attributes: half, newton on, size, history
      pair build: half/size/bin/newton
      stencil: half/bin/3d
      bin: standard
Per MPI rank memory allocation (min/avg/max) = 123.2 | 123.2 | 123.2 Mbytes
   Step           Lx             Ly             Lz           Press           Pxx            Pyy            Pzz           KinEng         PotEng          Temp          c_1[1]         c_1[2]         c_1[3]    
         0   18000          200            200            0              0              0              0              0              0              0              1.1971759e-13  0              6            
    100000   18000          200            200           -0.00046769669 -2.1541149e-34  0             -0.0014030901   255092.26      0              1.2317492e+10  1.1971759e-13  0              4.2657444    
    200000   18000          200            200            0.00068667833 -3.5901864e-35  0              0.002060035    169696.42      0              8.1940327e+09  1.1971759e-13  0              3.9356348    
    300000   18000          200            200            0.00025916902  8.6507295e-41  0              0.00077750706  32567.65       0              1.5725752e+09  1.1971759e-13  0              3.8858708    
    400000   18000          200            200            0.0001196845  -7.1803819e-35  0              0.0003590535   7912.8713      0              3.8208424e+08  1.1971759e-13  0              3.8689824    
    500000   18000          200            200            1.2706281e-05 -3.5901893e-35  0              3.8118843e-05  100.87634      0              4870957.2      1.1971759e-13  0              3.8660094    
    600000   18000          200            200            0.0058911992   1.6571731e-41  0              0.017673598    239.38374      0              11558984       1.1971759e-13  0              3.8637029    
    700000   18000          200            200            0.0042131564  -8.0779345e-35  0              0.012639469    43.449215      0              2098007.1      1.1971759e-13  0              3.8639617    
    800000   18000          200            200            0.0039934393   8.9754932e-36  0              0.011980318    0.03532149     0              1705.5483      1.1971759e-13  0              3.8639968    
    900000   18000          200            200            0.0036251797  -1.795096e-35   0              0.010875539    0.96844613     0              46762.797      1.1971759e-13  0              3.8640593    
   1000000   18000          200            200            0.0035377736   1.3463232e-35  0              0.010613321    0.056177863    0              2712.628       1.1971759e-13  0              3.8640746    
   1100000   18000          200            200            0.0035627764  -8.975481e-36   0              0.010688329    0.0046339267   0              223.75574      1.1971759e-13  0              3.8640703    
   1200000   18000          200            200            0.0035808053   1.1219356e-35  0              0.010742416    0.0023693205   0              114.40601      1.1971759e-13  0              3.8640672    
   1300000   18000          200            200            0.003582147   -1.1219355e-36  0              0.010746441    1.2478214e-05  0              0.60252831     1.1971759e-13  0              3.8640669    
   1400000   18000          200            200            0.00358012    -5.6096775e-37  0              0.01074036     3.0154468e-05  0              1.4560513      1.1971759e-13  0              3.8640673    
   1500000   18000          200            200            0.0035794241  -1.1219355e-36  0              0.010738272    3.506002e-06   0              0.16929229     1.1971759e-13  0              3.8640674    
   1600000   18000          200            200            0.003579512    2.8048389e-37  0              0.010738536    5.832494e-08   0              0.0028163026   1.1971759e-13  0              3.8640674    
   1700000   18000          200            200            0.003579626    2.8048389e-37  0              0.010738878    9.4877907e-08  0              0.0045813146   1.1971759e-13  0              3.8640674    
   1800000   18000          200            200            0.0035796437  -5.6096774e-37  0              0.010738931    2.2327348e-09  0              0.00010781077  1.1971759e-13  0              3.8640674    
   1900000   18000          200            200            0.0035796332   1.0445805e-44  0              0.0107389      8.0450032e-10  0              3.8846441e-05  1.1971759e-13  0              3.8640674    
   2000000   18000          200            200            0.0035796282   2.8048389e-37  0              0.010738885    1.8181448e-10  0              8.7791705e-06  1.1971759e-13  0              3.8640674    
   2100000   18000          200            200            0.0035796283  -1.1219355e-36  0              0.010738885    7.2648154e-14  0              3.5079194e-09  1.1971759e-13  0              3.8640674    
   2200000   18000          200            200            0.003579629    3.0853227e-36  0              0.010738887    3.3929366e-12  0              1.6383277e-07  1.1971759e-13  0              3.8640674    
   2300000   18000          200            200            0.0035796292   1.1219355e-36  0              0.010738887    1.89857e-13    0              9.167515e-09   1.1971759e-13  0              3.8640674    
   2400000   18000          200            200            0.0035796291  -1.4024194e-36  0              0.010738887    1.7413385e-14  0              8.4083003e-10  1.1971759e-13  0              3.8640674    
   2500000   18000          200            200            0.0035796291   1.0208422e-44  0              0.010738887    8.1780742e-15  0              3.9488993e-10  1.1971759e-13  0              3.8640674    
   2600000   18000          200            200            0.0035796291   5.6096777e-37  0              0.010738887    6.9350929e-17  0              3.3487082e-12  1.1971759e-13  0              3.8640674    
   2700000   18000          200            200            0.0035796291   1.1219355e-36  0              0.010738887    9.755663e-17   0              4.7106605e-12  1.1971759e-13  0              3.8640674    
   2800000   18000          200            200            0.0035796291   5.6096777e-37  0              0.010738887    1.9187779e-17  0              9.2650917e-13  1.1971759e-13  0              3.8640674    
   2900000   18000          200            200            0.0035796291   9.5989535e-45  0              0.010738887    1.2224366e-17  0              5.9027087e-13  1.1971759e-13  0              3.8640674    
   3000000   18000          200            200            0.0035796291   1.1701077e-44  0              0.010738887    1.2900856e-17  0              6.2293616e-13  1.1971759e-13  0              3.8640674    
Loop time of 760.048 on 2 procs for 3000000 steps with 5001 atoms

Performance: 3410311.096 ns/day, 0.000 hours/ns, 3947.119 timesteps/s
100.0% CPU use with 2 MPI tasks x 1 OpenMP threads

MPI task timing breakdown:
Section |  min time  |  avg time  |  max time  |%varavg| %total
---------------------------------------------------------------
Pair    | 242.11     | 242.17     | 242.24     |   0.4 | 31.86
Neigh   | 4.5633     | 4.5643     | 4.5653     |   0.0 |  0.60
Comm    | 23.291     | 23.5       | 23.709     |   4.3 |  3.09
Output  | 0.61208    | 0.61209    | 0.61211    |   0.0 |  0.08
Modify  | 429        | 429        | 429        |   0.0 | 56.44
Other   |            | 60.2       |            |       |  7.92

Nlocal:         2500.5 ave        2501 max        2500 min
Histogram: 1 0 0 0 0 0 0 0 0 1
Nghost:            2.5 ave           3 max           2 min
Histogram: 1 0 0 0 0 0 0 0 0 1
Neighs:         1500.5 ave        1501 max        1500 min
Histogram: 1 0 0 0 0 0 0 0 0 1

Total # of neighbors = 3001
Ave neighs/atom = 0.60007998
Neighbor list builds = 122
Dangerous builds = 0

undump D1

############ Add spring between top chain to supp particle and then equilibrium  ###########

#fix sp1 support spring couple slider1 ${K0} ${lenspr} NULL NULL 0                                 # Add spring

#dump 		D2 all custom 100000 add_${num}*.dump id type diameter mass xu yu zu

#fix add1 all print 10 "${p0} ${distance} ${slider_z}" file add_distance_${num}.txt screen no      # out put step, distance(spring length), z-position of top chain

#run 1000000

#undump D2

#unfix add1

########## Pulling the supporting particle with constant velocity #############

#fix m1 support move linear 0.1 0 0 units box                                                      # apply constant velocity to supporting particles along x-direction V=0.1m/s

#fix move1 all print 100 "${p0} ${distance} ${slider_z}" file move_distance_${num}.txt screen no

#dump 		1 all custom 50000 move_${num}_*.dump id type diameter mass xu yu zu

#run 1000000

clear
  using 1 OpenMP thread(s) per MPI task

next num

jump SELF startloop
Total wall time: 21:24:28
