ITEM: TIMESTEP
1400000
ITEM: NUMBER OF ATOMS
5001
ITEM: BOX BOUNDS pp pp pp
-5.4450000000000000e+03 5.4450000000000000e+03
-1.0000000000000000e+02 1.0000000000000000e+02
-1.0000000000000000e+02 1.0000000000000000e+02
ITEM: ATOMS id type diameter mass xu yu zu fx fy fz
1 1 3 31.1018 -5445 0 0 0 0 0
2 1 3 31.1018 -5441.36999999999989 0 0 0 0 0
3 1 3 31.1018 -5437.73999999999978 0 0 0 0 0
4 1 3 31.1018 -5434.10999999999967 0 0 0 0 0
5 1 3 31.1018 -5430.47999999999956 0 0 0 0 0
6 1 3 31.1018 -5426.84999999999945 0 0 0 0 0
7 1 3 31.1018 -5423.22000000000025 0 0 0 0 0
8 1 3 31.1018 -5419.59000000000015 0 0 0 0 0
9 1 3 31.1018 -5415.96000000000004 0 0 0 0 0
10 1 3 31.1018 -5412.32999999999993 0 0 0 0 0
11 1 3 31.1018 -5408.69999999999982 0 0 0 0 0
12 1 3 31.1018 -5405.06999999999971 0 0 0 0 0
13 1 3 31.1018 -5401.4399999999996 0 0 0 0 0
14 1 3 31.1018 -5397.80999999999949 0 0 0 0 0
15 1 3 31.1018 -5394.18000000000029 0 0 0 0 0
16 1 3 31.1018 -5390.55000000000018 0 0 0 0 0
17 1 3 31.1018 -5386.92000000000007 0 0 0 0 0
18 1 3 31.1018 -5383.28999999999996 0 0 0 0 0
19 1 3 31.1018 -5379.65999999999985 0 0 0 0 0
20 1 3 31.1018 -5376.02999999999975 0 0 0 0 0
21 1 3 31.1018 -5372.39999999999964 0 0 0 0 0
22 1 3 31.1018 -5368.76999999999953 0 0 0 0 0
23 1 3 31.1018 -5365.13999999999942 0 0 0 0 0
24 1 3 31.1018 -5361.51000000000022 0 0 0 0 0
25 1 3 31.1018 -5357.88000000000011 0 0 0 0 0
26 1 3 31.1018 -5354.25 0 0 0 0 0
27 1 3 31.1018 -5350.61999999999989 0 0 0 0 0
28 1 3 31.1018 -5346.98999999999978 0 0 0 0 0
29 1 3 31.1018 -5343.35999999999967 0 0 0 0 0
30 1 3 31.1018 -5339.72999999999956 0 0 0 0 0
31 1 3 31.1018 -5336.09999999999945 0 0 0 0 0
32 1 3 31.1018 -5332.47000000000025 0 0 0 0 0
33 1 3 31.1018 -5328.84000000000015 0 0 0 0 0
34 1 3 31.1018 -5325.21000000000004 0 0 0 0 0
35 1 3 31.1018 -5321.57999999999993 0 0 0 0 0
36 1 3 31.1018 -5317.94999999999982 0 0 0 0 0
37 1 3 31.1018 -5314.31999999999971 0 0 0 0 0
38 1 3 31.1018 -5310.6899999999996 0 0 0 0 0
39 1 3 31.1018 -5307.05999999999949 0 0 0 0 0
40 1 3 31.1018 -5303.43000000000029 0 0 0 0 0
41 1 3 31.1018 -5299.80000000000018 0 0 0 0 0
42 1 3 31.1018 -5296.17000000000007 0 0 0 0 0
43 1 3 31.1018 -5292.53999999999996 0 0 0 0 0
44 1 3 31.1018 -5288.90999999999985 0 0 0 0 0
45 1 3 31.1018 -5285.27999999999975 0 0 0 0 0
46 1 3 31.1018 -5281.64999999999964 0 0 0 0 0
47 1 3 31.1018 -5278.01999999999953 0 0 0 0 0
48 1 3 31.1018 -5274.38999999999942 0 0 0 0 0
49 1 3 31.1018 -5270.76000000000022 0 0 0 0 0
50 1 3 31.1018 -5267.13000000000011 0 0 0 0 0
51 1 3 31.1018 -5263.5 0 0 0 0 0
52 1 3 31.1018 -5259.86999999999989 0 0 0 0 0
53 1 3 31.1018 -5256.23999999999978 0 0 0 0 0
54 1 3 31.1018 -5252.60999999999967 0 0 0 0 0
55 1 3 31.1018 -5248.97999999999956 0 0 0 0 0
56 1 3 31.1018 -5245.34999999999945 0 0 0 0 0
57 1 3 31.1018 -5241.72000000000025 0 0 0 0 0
58 1 3 31.1018 -5238.09000000000015 0 0 0 0 0
59 1 3 31.1018 -5234.46000000000004 0 0 0 0 0
60 1 3 31.1018 -5230.82999999999993 0 0 0 0 0
61 1 3 31.1018 -5227.19999999999982 0 0 0 0 0
62 1 3 31.1018 -5223.56999999999971 0 0 0 0 0
63 1 3 31.1018 -5219.9399999999996 0 0 0 0 0
64 1 3 31.1018 -5216.30999999999949 0 0 0 0 0
65 1 3 31.1018 -5212.68000000000029 0 0 0 0 0
66 1 3 31.1018 -5209.05000000000018 0 0 0 0 0
67 1 3 31.1018 -5205.42000000000007 0 0 0 0 0
68 1 3 31.1018 -5201.78999999999996 0 0 0 0 0
69 1 3 31.1018 -5198.15999999999985 0 0 0 0 0
70 1 3 31.1018 -5194.52999999999975 0 0 0 0 0
71 1 3 31.1018 -5190.89999999999964 0 0 0 0 0
72 1 3 31.1018 -5187.26999999999953 0 0 0 0 0
73 1 3 31.1018 -5183.63999999999942 0 0 0 0 0
74 1 3 31.1018 -5180.01000000000022 0 0 0 0 0
75 1 3 31.1018 -5176.38000000000011 0 0 0 0 0
76 1 3 31.1018 -5172.75 0 0 0 0 0
77 1 3 31.1018 -5169.11999999999989 0 0 0 0 0
78 1 3 31.1018 -5165.48999999999978 0 0 0 0 0
79 1 3 31.1018 -5161.85999999999967 0 0 0 0 0
80 1 3 31.1018 -5158.22999999999956 0 0 0 0 0
81 1 3 31.1018 -5154.59999999999945 0 0 0 0 0
82 1 3 31.1018 -5150.97000000000025 0 0 0 0 0
83 1 3 31.1018 -5147.34000000000015 0 0 0 0 0
84 1 3 31.1018 -5143.71000000000004 0 0 0 0 0
85 1 3 31.1018 -5140.07999999999993 0 0 0 0 0
86 1 3 31.1018 -5136.44999999999982 0 0 0 0 0
87 1 3 31.1018 -5132.81999999999971 0 0 0 0 0
88 1 3 31.1018 -5129.1899999999996 0 0 0 0 0
89 1 3 31.1018 -5125.55999999999949 0 0 0 0 0
90 1 3 31.1018 -5121.93000000000029 0 0 0 0 0
91 1 3 31.1018 -5118.30000000000018 0 0 0 0 0
92 1 3 31.1018 -5114.67000000000007 0 0 0 0 0
93 1 3 31.1018 -5111.03999999999996 0 0 0 0 0
94 1 3 31.1018 -5107.40999999999985 0 0 0 0 0
95 1 3 31.1018 -5103.77999999999975 0 0 0 0 0
96 1 3 31.1018 -5100.14999999999964 0 0 0 0 0
97 1 3 31.1018 -5096.51999999999953 0 0 0 0 0
98 1 3 31.1018 -5092.88999999999942 0 0 0 0 0
99 1 3 31.1018 -5089.26000000000022 0 0 0 0 0
100 1 3 31.1018 -5085.63000000000011 0 0 0 0 0
101 1 3 31.1018 -5082 0 0 0 0 0
102 1 3 31.1018 -5078.36999999999989 0 0 0 0 0
103 1 3 31.1018 -5074.73999999999978 0 0 0 0 0
104 1 3 31.1018 -5071.10999999999967 0 0 0 0 0
105 1 3 31.1018 -5067.47999999999956 0 0 0 0 0
106 1 3 31.1018 -5063.84999999999945 0 0 0 0 0
107 1 3 31.1018 -5060.22000000000025 0 0 0 0 0
108 1 3 31.1018 -5056.59000000000015 0 0 0 0 0
109 1 3 31.1018 -5052.96000000000004 0 0 0 0 0
110 1 3 31.1018 -5049.32999999999993 0 0 0 0 0
111 1 3 31.1018 -5045.69999999999982 0 0 0 0 0
112 1 3 31.1018 -5042.06999999999971 0 0 0 0 0
113 1 3 31.1018 -5038.4399999999996 0 0 0 0 0
114 1 3 31.1018 -5034.80999999999949 0 0 0 0 0
115 1 3 31.1018 -5031.18000000000029 0 0 0 0 0
116 1 3 31.1018 -5027.55000000000018 0 0 0 0 0
117 1 3 31.1018 -5023.92000000000007 0 0 0 0 0
118 1 3 31.1018 -5020.28999999999996 0 0 0 0 0
119 1 3 31.1018 -5016.65999999999985 0 0 0 0 0
120 1 3 31.1018 -5013.02999999999975 0 0 0 0 0
121 1 3 31.1018 -5009.39999999999964 0 0 0 0 0
122 1 3 31.1018 -5005.76999999999953 0 0 0 0 0
123 1 3 31.1018 -5002.13999999999942 0 0 0 0 0
124 1 3 31.1018 -4998.51000000000022 0 0 0 0 0
125 1 3 31.1018 -4994.88000000000011 0 0 0 0 0
126 1 3 31.1018 -4991.25 0 0 0 0 0
127 1 3 31.1018 -4987.61999999999989 0 0 0 0 0
128 1 3 31.1018 -4983.98999999999978 0 0 0 0 0
129 1 3 31.1018 -4980.35999999999967 0 0 0 0 0
130 1 3 31.1018 -4976.72999999999956 0 0 0 0 0
131 1 3 31.1018 -4973.09999999999945 0 0 0 0 0
132 1 3 31.1018 -4969.47000000000025 0 0 0 0 0
133 1 3 31.1018 -4965.84000000000015 0 0 0 0 0
134 1 3 31.1018 -4962.21000000000004 0 0 0 0 0
135 1 3 31.1018 -4958.57999999999993 0 0 0 0 0
136 1 3 31.1018 -4954.94999999999982 0 0 0 0 0
137 1 3 31.1018 -4951.31999999999971 0 0 0 0 0
138 1 3 31.1018 -4947.6899999999996 0 0 0 0 0
139 1 3 31.1018 -4944.05999999999949 0 0 0 0 0
140 1 3 31.1018 -4940.43000000000029 0 0 0 0 0
141 1 3 31.1018 -4936.80000000000018 0 0 0 0 0
142 1 3 31.1018 -4933.17000000000007 0 0 0 0 0
143 1 3 31.1018 -4929.53999999999996 0 0 0 0 0
144 1 3 31.1018 -4925.90999999999985 0 0 0 0 0
145 1 3 31.1018 -4922.27999999999975 0 0 0 0 0
146 1 3 31.1018 -4918.64999999999964 0 0 0 0 0
147 1 3 31.1018 -4915.01999999999953 0 0 0 0 0
148 1 3 31.1018 -4911.38999999999942 0 0 0 0 0
149 1 3 31.1018 -4907.76000000000022 0 0 0 0 0
150 1 3 31.1018 -4904.13000000000011 0 0 0 0 0
151 1 3 31.1018 -4900.5 0 0 0 0 0
152 1 3 31.1018 -4896.86999999999989 0 0 0 0 0
153 1 3 31.1018 -4893.23999999999978 0 0 0 0 0
154 1 3 31.1018 -4889.60999999999967 0 0 0 0 0
155 1 3 31.1018 -4885.97999999999956 0 0 0 0 0
156 1 3 31.1018 -4882.34999999999945 0 0 0 0 0
157 1 3 31.1018 -4878.72000000000025 0 0 0 0 0
158 1 3 31.1018 -4875.09000000000015 0 0 0 0 0
159 1 3 31.1018 -4871.46000000000004 0 0 0 0 0
160 1 3 31.1018 -4867.82999999999993 0 0 0 0 0
161 1 3 31.1018 -4864.19999999999982 0 0 0 0 0
162 1 3 31.1018 -4860.56999999999971 0 0 0 0 0
163 1 3 31.1018 -4856.9399999999996 0 0 0 0 0
164 1 3 31.1018 -4853.30999999999949 0 0 0 0 0
165 1 3 31.1018 -4849.68000000000029 0 0 0 0 0
166 1 3 31.1018 -4846.05000000000018 0 0 0 0 0
167 1 3 31.1018 -4842.42000000000007 0 0 0 0 0
168 1 3 31.1018 -4838.78999999999996 0 0 0 0 0
169 1 3 31.1018 -4835.15999999999985 0 0 0 0 0
170 1 3 31.1018 -4831.52999999999975 0 0 0 0 0
171 1 3 31.1018 -4827.89999999999964 0 0 0 0 0
172 1 3 31.1018 -4824.26999999999953 0 0 0 0 0
173 1 3 31.1018 -4820.63999999999942 0 0 0 0 0
174 1 3 31.1018 -4817.01000000000022 0 0 0 0 0
175 1 3 31.1018 -4813.38000000000011 0 0 0 0 0
176 1 3 31.1018 -4809.75 0 0 0 0 0
177 1 3 31.1018 -4806.11999999999989 0 0 0 0 0
178 1 3 31.1018 -4802.48999999999978 0 0 0 0 0
179 1 3 31.1018 -4798.85999999999967 0 0 0 0 0
180 1 3 31.1018 -4795.22999999999956 0 0 0 0 0
181 1 3 31.1018 -4791.59999999999945 0 0 0 0 0
182 1 3 31.1018 -4787.97000000000025 0 0 0 0 0
183 1 3 31.1018 -4784.34000000000015 0 0 0 0 0
184 1 3 31.1018 -4780.71000000000004 0 0 0 0 0
185 1 3 31.1018 -4777.07999999999993 0 0 0 0 0
186 1 3 31.1018 -4773.44999999999982 0 0 0 0 0
187 1 3 31.1018 -4769.81999999999971 0 0 0 0 0
188 1 3 31.1018 -4766.1899999999996 0 0 0 0 0
189 1 3 31.1018 -4762.55999999999949 0 0 0 0 0
190 1 3 31.1018 -4758.93000000000029 0 0 0 0 0
191 1 3 31.1018 -4755.30000000000018 0 0 0 0 0
192 1 3 31.1018 -4751.67000000000007 0 0 0 0 0
193 1 3 31.1018 -4748.03999999999996 0 0 0 0 0
194 1 3 31.1018 -4744.40999999999985 0 0 0 0 0
195 1 3 31.1018 -4740.77999999999975 0 0 0 0 0
196 1 3 31.1018 -4737.14999999999964 0 0 0 0 0
197 1 3 31.1018 -4733.51999999999953 0 0 0 0 0
198 1 3 31.1018 -4729.88999999999942 0 0 0 0 0
199 1 3 31.1018 -4726.26000000000022 0 0 0 0 0
200 1 3 31.1018 -4722.63000000000011 0 0 0 0 0
201 1 3 31.1018 -4719 0 0 0 0 0
202 1 3 31.1018 -4715.36999999999989 0 0 0 0 0
203 1 3 31.1018 -4711.73999999999978 0 0 0 0 0
204 1 3 31.1018 -4708.10999999999967 0 0 0 0 0
205 1 3 31.1018 -4704.47999999999956 0 0 0 0 0
206 1 3 31.1018 -4700.84999999999945 0 0 0 0 0
207 1 3 31.1018 -4697.22000000000025 0 0 0 0 0
208 1 3 31.1018 -4693.59000000000015 0 0 0 0 0
209 1 3 31.1018 -4689.96000000000004 0 0 0 0 0
210 1 3 31.1018 -4686.32999999999993 0 0 0 0 0
211 1 3 31.1018 -4682.69999999999982 0 0 0 0 0
212 1 3 31.1018 -4679.06999999999971 0 0 0 0 0
213 1 3 31.1018 -4675.4399999999996 0 0 0 0 0
214 1 3 31.1018 -4671.80999999999949 0 0 0 0 0
215 1 3 31.1018 -4668.18000000000029 0 0 0 0 0
216 1 3 31.1018 -4664.55000000000018 0 0 0 0 0
217 1 3 31.1018 -4660.92000000000007 0 0 0 0 0
218 1 3 31.1018 -4657.28999999999996 0 0 0 0 0
219 1 3 31.1018 -4653.65999999999985 0 0 0 0 0
220 1 3 31.1018 -4650.02999999999975 0 0 0 0 0
221 1 3 31.1018 -4646.39999999999964 0 0 0 0 0
222 1 3 31.1018 -4642.76999999999953 0 0 0 0 0
223 1 3 31.1018 -4639.13999999999942 0 0 0 0 0
224 1 3 31.1018 -4635.51000000000022 0 0 0 0 0
225 1 3 31.1018 -4631.88000000000011 0 0 0 0 0
226 1 3 31.1018 -4628.25 0 0 0 0 0
227 1 3 31.1018 -4624.61999999999989 0 0 0 0 0
228 1 3 31.1018 -4620.98999999999978 0 0 0 0 0
229 1 3 31.1018 -4617.35999999999967 0 0 0 0 0
230 1 3 31.1018 -4613.72999999999956 0 0 0 0 0
231 1 3 31.1018 -4610.09999999999945 0 0 0 0 0
232 1 3 31.1018 -4606.47000000000025 0 0 0 0 0
233 1 3 31.1018 -4602.84000000000015 0 0 0 0 0
234 1 3 31.1018 -4599.21000000000004 0 0 0 0 0
235 1 3 31.1018 -4595.57999999999993 0 0 0 0 0
236 1 3 31.1018 -4591.94999999999982 0 0 0 0 0
237 1 3 31.1018 -4588.31999999999971 0 0 0 0 0
238 1 3 31.1018 -4584.6899999999996 0 0 0 0 0
239 1 3 31.1018 -4581.05999999999949 0 0 0 0 0
240 1 3 31.1018 -4577.43000000000029 0 0 0 0 0
241 1 3 31.1018 -4573.80000000000018 0 0 0 0 0
242 1 3 31.1018 -4570.17000000000007 0 0 0 0 0
243 1 3 31.1018 -4566.53999999999996 0 0 0 0 0
244 1 3 31.1018 -4562.90999999999985 0 0 0 0 0
245 1 3 31.1018 -4559.27999999999975 0 0 0 0 0
246 1 3 31.1018 -4555.64999999999964 0 0 0 0 0
247 1 3 31.1018 -4552.01999999999953 0 0 0 0 0
248 1 3 31.1018 -4548.38999999999942 0 0 0 0 0
249 1 3 31.1018 -4544.76000000000022 0 0 0 0 0
250 1 3 31.1018 -4541.13000000000011 0 0 0 0 0
251 1 3 31.1018 -4537.5 0 0 0 0 0
252 1 3 31.1018 -4533.86999999999989 0 0 0 0 0
253 1 3 31.1018 -4530.23999999999978 0 0 0 0 0
254 1 3 31.1018 -4526.60999999999967 0 0 0 0 0
255 1 3 31.1018 -4522.97999999999956 0 0 0 0 0
256 1 3 31.1018 -4519.34999999999945 0 0 0 0 0
257 1 3 31.1018 -4515.72000000000025 0 0 0 0 0
258 1 3 31.1018 -4512.09000000000015 0 0 0 0 0
259 1 3 31.1018 -4508.46000000000004 0 0 0 0 0
260 1 3 31.1018 -4504.82999999999993 0 0 0 0 0
261 1 3 31.1018 -4501.19999999999982 0 0 0 0 0
262 1 3 31.1018 -4497.56999999999971 0 0 0 0 0
263 1 3 31.1018 -4493.9399999999996 0 0 0 0 0
264 1 3 31.1018 -4490.30999999999949 0 0 0 0 0
265 1 3 31.1018 -4486.68000000000029 0 0 0 0 0
266 1 3 31.1018 -4483.05000000000018 0 0 0 0 0
267 1 3 31.1018 -4479.42000000000007 0 0 0 0 0
268 1 3 31.1018 -4475.78999999999996 0 0 0 0 0
269 1 3 31.1018 -4472.15999999999985 0 0 0 0 0
270 1 3 31.1018 -4468.52999999999975 0 0 0 0 0
271 1 3 31.1018 -4464.89999999999964 0 0 0 0 0
272 1 3 31.1018 -4461.26999999999953 0 0 0 0 0
273 1 3 31.1018 -4457.63999999999942 0 0 0 0 0
274 1 3 31.1018 -4454.01000000000022 0 0 0 0 0
275 1 3 31.1018 -4450.38000000000011 0 0 0 0 0
276 1 3 31.1018 -4446.75 0 0 0 0 0
277 1 3 31.1018 -4443.11999999999989 0 0 0 0 0
278 1 3 31.1018 -4439.48999999999978 0 0 0 0 0
279 1 3 31.1018 -4435.85999999999967 0 0 0 0 0
280 1 3 31.1018 -4432.22999999999956 0 0 0 0 0
281 1 3 31.1018 -4428.59999999999945 0 0 0 0 0
282 1 3 31.1018 -4424.97000000000025 0 0 0 0 0
283 1 3 31.1018 -4421.34000000000015 0 0 0 0 0
284 1 3 31.1018 -4417.71000000000004 0 0 0 0 0
285 1 3 31.1018 -4414.07999999999993 0 0 0 0 0
286 1 3 31.1018 -4410.44999999999982 0 0 0 0 0
287 1 3 31.1018 -4406.81999999999971 0 0 0 0 0
288 1 3 31.1018 -4403.1899999999996 0 0 0 0 0
289 1 3 31.1018 -4399.55999999999949 0 0 0 0 0
290 1 3 31.1018 -4395.93000000000029 0 0 0 0 0
291 1 3 31.1018 -4392.30000000000018 0 0 0 0 0
292 1 3 31.1018 -4388.67000000000007 0 0 0 0 0
293 1 3 31.1018 -4385.03999999999996 0 0 0 0 0
294 1 3 31.1018 -4381.40999999999985 0 0 0 0 0
295 1 3 31.1018 -4377.77999999999975 0 0 0 0 0
296 1 3 31.1018 -4374.14999999999964 0 0 0 0 0
297 1 3 31.1018 -4370.51999999999953 0 0 0 0 0
298 1 3 31.1018 -4366.88999999999942 0 0 0 0 0
299 1 3 31.1018 -4363.26000000000022 0 0 0 0 0
300 1 3 31.1018 -4359.63000000000011 0 0 0 0 0
301 1 3 31.1018 -4356 0 0 0 0 0
302 1 3 31.1018 -4352.36999999999989 0 0 0 0 0
303 1 3 31.1018 -4348.73999999999978 0 0 0 0 0
304 1 3 31.1018 -4345.10999999999967 0 0 0 0 0
305 1 3 31.1018 -4341.47999999999956 0 0 0 0 0
306 1 3 31.1018 -4337.84999999999945 0 0 0 0 0
307 1 3 31.1018 -4334.22000000000025 0 0 0 0 0
308 1 3 31.1018 -4330.59000000000015 0 0 0 0 0
309 1 3 31.1018 -4326.96000000000004 0 0 0 0 0
310 1 3 31.1018 -4323.32999999999993 0 0 0 0 0
311 1 3 31.1018 -4319.69999999999982 0 0 0 0 0
312 1 3 31.1018 -4316.06999999999971 0 0 0 0 0
313 1 3 31.1018 -4312.4399999999996 0 0 0 0 0
314 1 3 31.1018 -4308.80999999999949 0 0 0 0 0
315 1 3 31.1018 -4305.18000000000029 0 0 0 0 0
316 1 3 31.1018 -4301.55000000000018 0 0 0 0 0
317 1 3 31.1018 -4297.92000000000007 0 0 0 0 0
318 1 3 31.1018 -4294.28999999999996 0 0 0 0 0
319 1 3 31.1018 -4290.65999999999985 0 0 0 0 0
320 1 3 31.1018 -4287.02999999999975 0 0 0 0 0
321 1 3 31.1018 -4283.39999999999964 0 0 0 0 0
322 1 3 31.1018 -4279.76999999999953 0 0 0 0 0
323 1 3 31.1018 -4276.14000000000033 0 0 0 0 0
324 1 3 31.1018 -4272.51000000000022 0 0 0 0 0
325 1 3 31.1018 -4268.88000000000011 0 0 0 0 0
326 1 3 31.1018 -4265.25 0 0 0 0 0
327 1 3 31.1018 -4261.61999999999989 0 0 0 0 0
328 1 3 31.1018 -4257.98999999999978 0 0 0 0 0
329 1 3 31.1018 -4254.35999999999967 0 0 0 0 0
330 1 3 31.1018 -4250.72999999999956 0 0 0 0 0
331 1 3 31.1018 -4247.09999999999945 0 0 0 0 0
332 1 3 31.1018 -4243.47000000000025 0 0 0 0 0
333 1 3 31.1018 -4239.84000000000015 0 0 0 0 0
334 1 3 31.1018 -4236.21000000000004 0 0 0 0 0
335 1 3 31.1018 -4232.57999999999993 0 0 0 0 0
336 1 3 31.1018 -4228.94999999999982 0 0 0 0 0
337 1 3 31.1018 -4225.31999999999971 0 0 0 0 0
338 1 3 31.1018 -4221.6899999999996 0 0 0 0 0
339 1 3 31.1018 -4218.05999999999949 0 0 0 0 0
340 1 3 31.1018 -4214.43000000000029 0 0 0 0 0
341 1 3 31.1018 -4210.80000000000018 0 0 0 0 0
342 1 3 31.1018 -4207.17000000000007 0 0 0 0 0
343 1 3 31.1018 -4203.53999999999996 0 0 0 0 0
344 1 3 31.1018 -4199.90999999999985 0 0 0 0 0
345 1 3 31.1018 -4196.27999999999975 0 0 0 0 0
346 1 3 31.1018 -4192.64999999999964 0 0 0 0 0
347 1 3 31.1018 -4189.01999999999953 0 0 0 0 0
348 1 3 31.1018 -4185.39000000000033 0 0 0 0 0
349 1 3 31.1018 -4181.76000000000022 0 0 0 0 0
350 1 3 31.1018 -4178.13000000000011 0 0 0 0 0
351 1 3 31.1018 -4174.5 0 0 0 0 0
352 1 3 31.1018 -4170.86999999999989 0 0 0 0 0
353 1 3 31.1018 -4167.23999999999978 0 0 0 0 0
354 1 3 31.1018 -4163.60999999999967 0 0 0 0 0
355 1 3 31.1018 -4159.97999999999956 0 0 0 0 0
356 1 3 31.1018 -4156.34999999999945 0 0 0 0 0
357 1 3 31.1018 -4152.72000000000025 0 0 0 0 0
358 1 3 31.1018 -4149.09000000000015 0 0 0 0 0
359 1 3 31.1018 -4145.46000000000004 0 0 0 0 0
360 1 3 31.1018 -4141.82999999999993 0 0 0 0 0
361 1 3 31.1018 -4138.19999999999982 0 0 0 0 0
362 1 3 31.1018 -4134.56999999999971 0 0 0 0 0
363 1 3 31.1018 -4130.9399999999996 0 0 0 0 0
364 1 3 31.1018 -4127.30999999999949 0 0 0 0 0
365 1 3 31.1018 -4123.68000000000029 0 0 0 0 0
366 1 3 31.1018 -4120.05000000000018 0 0 0 0 0
367 1 3 31.1018 -4116.42000000000007 0 0 0 0 0
368 1 3 31.1018 -4112.78999999999996 0 0 0 0 0
369 1 3 31.1018 -4109.15999999999985 0 0 0 0 0
370 1 3 31.1018 -4105.52999999999975 0 0 0 0 0
371 1 3 31.1018 -4101.89999999999964 0 0 0 0 0
372 1 3 31.1018 -4098.26999999999953 0 0 0 0 0
373 1 3 31.1018 -4094.63999999999987 0 0 0 0 0
374 1 3 31.1018 -4091.00999999999976 0 0 0 0 0
375 1 3 31.1018 -4087.37999999999965 0 0 0 0 0
376 1 3 31.1018 -4083.75 0 0 0 0 0
377 1 3 31.1018 -4080.11999999999989 0 0 0 0 0
378 1 3 31.1018 -4076.48999999999978 0 0 0 0 0
379 1 3 31.1018 -4072.85999999999967 0 0 0 0 0
380 1 3 31.1018 -4069.23000000000002 0 0 0 0 0
381 1 3 31.1018 -4065.59999999999991 0 0 0 0 0
382 1 3 31.1018 -4061.9699999999998 0 0 0 0 0
383 1 3 31.1018 -4058.33999999999969 0 0 0 0 0
384 1 3 31.1018 -4054.71000000000004 0 0 0 0 0
385 1 3 31.1018 -4051.07999999999993 0 0 0 0 0
386 1 3 31.1018 -4047.44999999999982 0 0 0 0 0
387 1 3 31.1018 -4043.81999999999971 0 0 0 0 0
388 1 3 31.1018 -4040.19000000000005 0 0 0 0 0
389 1 3 31.1018 -4036.55999999999995 0 0 0 0 0
390 1 3 31.1018 -4032.92999999999984 0 0 0 0 0
391 1 3 31.1018 -4029.29999999999973 0 0 0 0 0
392 1 3 31.1018 -4025.67000000000007 0 0 0 0 0
393 1 3 31.1018 -4022.03999999999996 0 0 0 0 0
394 1 3 31.1018 -4018.40999999999985 0 0 0 0 0
395 1 3 31.1018 -4014.77999999999975 0 0 0 0 0
396 1 3 31.1018 -4011.15000000000009 0 0 0 0 0
397 1 3 31.1018 -4007.51999999999998 0 0 0 0 0
398 1 3 31.1018 -4003.88999999999987 0 0 0 0 0
399 1 3 31.1018 -4000.25999999999976 0 0 0 0 0
400 1 3 31.1018 -3996.63000000000011 0 0 0 0 0
401 1 3 31.1018 -3993 0 0 0 0 0
402 1 3 31.1018 -3989.36999999999989 0 0 0 0 0
403 1 3 31.1018 -3985.73999999999978 0 0 0 0 0
404 1 3 31.1018 -3982.10999999999967 0 0 0 0 0
405 1 3 31.1018 -3978.48000000000002 0 0 0 0 0
406 1 3 31.1018 -3974.84999999999991 0 0 0 0 0
407 1 3 31.1018 -3971.2199999999998 0 0 0 0 0
408 1 3 31.1018 -3967.58999999999969 0 0 0 0 0
409 1 3 31.1018 -3963.96000000000004 0 0 0 0 0
410 1 3 31.1018 -3960.32999999999993 0 0 0 0 0
411 1 3 31.1018 -3956.69999999999982 0 0 0 0 0
412 1 3 31.1018 -3953.06999999999971 0 0 0 0 0
413 1 3 31.1018 -3949.44000000000005 0 0 0 0 0
414 1 3 31.1018 -3945.80999999999995 0 0 0 0 0
415 1 3 31.1018 -3942.17999999999984 0 0 0 0 0
416 1 3 31.1018 -3938.54999999999973 0 0 0 0 0
417 1 3 31.1018 -3934.92000000000007 0 0 0 0 0
418 1 3 31.1018 -3931.28999999999996 0 0 0 0 0
419 1 3 31.1018 -3927.65999999999985 0 0 0 0 0
420 1 3 31.1018 -3924.02999999999975 0 0 0 0 0
421 1 3 31.1018 -3920.40000000000009 0 0 0 0 0
422 1 3 31.1018 -3916.76999999999998 0 0 0 0 0
423 1 3 31.1018 -3913.13999999999987 0 0 0 0 0
424 1 3 31.1018 -3909.50999999999976 0 0 0 0 0
425 1 3 31.1018 -3905.88000000000011 0 0 0 0 0
426 1 3 31.1018 -3902.25 0 0 0 0 0
427 1 3 31.1018 -3898.61999999999989 0 0 0 0 0
428 1 3 31.1018 -3894.98999999999978 0 0 0 0 0
429 1 3 31.1018 -3891.35999999999967 0 0 0 0 0
430 1 3 31.1018 -3887.73000000000002 0 0 0 0 0
431 1 3 31.1018 -3884.09999999999991 0 0 0 0 0
432 1 3 31.1018 -3880.4699999999998 0 0 0 0 0
433 1 3 31.1018 -3876.83999999999969 0 0 0 0 0
434 1 3 31.1018 -3873.21000000000004 0 0 0 0 0
435 1 3 31.1018 -3869.57999999999993 0 0 0 0 0
436 1 3 31.1018 -3865.94999999999982 0 0 0 0 0
437 1 3 31.1018 -3862.31999999999971 0 0 0 0 0
438 1 3 31.1018 -3858.69000000000005 0 0 0 0 0
439 1 3 31.1018 -3855.05999999999995 0 0 0 0 0
440 1 3 31.1018 -3851.42999999999984 0 0 0 0 0
441 1 3 31.1018 -3847.79999999999973 0 0 0 0 0
442 1 3 31.1018 -3844.17000000000007 0 0 0 0 0
443 1 3 31.1018 -3840.53999999999996 0 0 0 0 0
444 1 3 31.1018 -3836.90999999999985 0 0 0 0 0
445 1 3 31.1018 -3833.27999999999975 0 0 0 0 0
446 1 3 31.1018 -3829.65000000000009 0 0 0 0 0
447 1 3 31.1018 -3826.01999999999998 0 0 0 0 0
448 1 3 31.1018 -3822.38999999999987 0 0 0 0 0
449 1 3 31.1018 -3818.75999999999976 0 0 0 0 0
450 1 3 31.1018 -3815.13000000000011 0 0 0 0 0
451 1 3 31.1018 -3811.5 0 0 0 0 0
452 1 3 31.1018 -3807.86999999999989 0 0 0 0 0
453 1 3 31.1018 -3804.23999999999978 0 0 0 0 0
454 1 3 31.1018 -3800.60999999999967 0 0 0 0 0
455 1 3 31.1018 -3796.98000000000002 0 0 0 0 0
456 1 3 31.1018 -3793.34999999999991 0 0 0 0 0
457 1 3 31.1018 -3789.7199999999998 0 0 0 0 0
458 1 3 31.1018 -3786.08999999999969 0 0 0 0 0
459 1 3 31.1018 -3782.46000000000004 0 0 0 0 0
460 1 3 31.1018 -3778.82999999999993 0 0 0 0 0
461 1 3 31.1018 -3775.19999999999982 0 0 0 0 0
462 1 3 31.1018 -3771.56999999999971 0 0 0 0 0
463 1 3 31.1018 -3767.94000000000005 0 0 0 0 0
464 1 3 31.1018 -3764.30999999999995 0 0 0 0 0
465 1 3 31.1018 -3760.67999999999984 0 0 0 0 0
466 1 3 31.1018 -3757.04999999999973 0 0 0 0 0
467 1 3 31.1018 -3753.42000000000007 0 0 0 0 0
468 1 3 31.1018 -3749.78999999999996 0 0 0 0 0
469 1 3 31.1018 -3746.15999999999985 0 0 0 0 0
470 1 3 31.1018 -3742.52999999999975 0 0 0 0 0
471 1 3 31.1018 -3738.90000000000009 0 0 0 0 0
472 1 3 31.1018 -3735.26999999999998 0 0 0 0 0
473 1 3 31.1018 -3731.63999999999987 0 0 0 0 0
474 1 3 31.1018 -3728.00999999999976 0 0 0 0 0
475 1 3 31.1018 -3724.38000000000011 0 0 0 0 0
476 1 3 31.1018 -3720.75 0 0 0 0 0
477 1 3 31.1018 -3717.11999999999989 0 0 0 0 0
478 1 3 31.1018 -3713.48999999999978 0 0 0 0 0
479 1 3 31.1018 -3709.85999999999967 0 0 0 0 0
480 1 3 31.1018 -3706.23000000000002 0 0 0 0 0
481 1 3 31.1018 -3702.59999999999991 0 0 0 0 0
482 1 3 31.1018 -3698.9699999999998 0 0 0 0 0
483 1 3 31.1018 -3695.33999999999969 0 0 0 0 0
484 1 3 31.1018 -3691.71000000000004 0 0 0 0 0
485 1 3 31.1018 -3688.07999999999993 0 0 0 0 0
486 1 3 31.1018 -3684.44999999999982 0 0 0 0 0
487 1 3 31.1018 -3680.81999999999971 0 0 0 0 0
488 1 3 31.1018 -3677.19000000000005 0 0 0 0 0
489 1 3 31.1018 -3673.55999999999995 0 0 0 0 0
490 1 3 31.1018 -3669.92999999999984 0 0 0 0 0
491 1 3 31.1018 -3666.29999999999973 0 0 0 0 0
492 1 3 31.1018 -3662.67000000000007 0 0 0 0 0
493 1 3 31.1018 -3659.03999999999996 0 0 0 0 0
494 1 3 31.1018 -3655.40999999999985 0 0 0 0 0
495 1 3 31.1018 -3651.77999999999975 0 0 0 0 0
496 1 3 31.1018 -3648.15000000000009 0 0 0 0 0
497 1 3 31.1018 -3644.51999999999998 0 0 0 0 0
498 1 3 31.1018 -3640.88999999999987 0 0 0 0 0
499 1 3 31.1018 -3637.25999999999976 0 0 0 0 0
500 1 3 31.1018 -3633.63000000000011 0 0 0 0 0
501 1 3 31.1018 -3630 0 0 0 0 0
502 1 3 31.1018 -3626.36999999999989 0 0 0 0 0
503 1 3 31.1018 -3622.73999999999978 0 0 0 0 0
504 1 3 31.1018 -3619.10999999999967 0 0 0 0 0
505 1 3 31.1018 -3615.48000000000002 0 0 0 0 0
506 1 3 31.1018 -3611.84999999999991 0 0 0 0 0
507 1 3 31.1018 -3608.2199999999998 0 0 0 0 0
508 1 3 31.1018 -3604.58999999999969 0 0 0 0 0
509 1 3 31.1018 -3600.96000000000004 0 0 0 0 0
510 1 3 31.1018 -3597.32999999999993 0 0 0 0 0
511 1 3 31.1018 -3593.69999999999982 0 0 0 0 0
512 1 3 31.1018 -3590.06999999999971 0 0 0 0 0
513 1 3 31.1018 -3586.44000000000005 0 0 0 0 0
514 1 3 31.1018 -3582.80999999999995 0 0 0 0 0
515 1 3 31.1018 -3579.17999999999984 0 0 0 0 0
516 1 3 31.1018 -3575.54999999999973 0 0 0 0 0
517 1 3 31.1018 -3571.92000000000007 0 0 0 0 0
518 1 3 31.1018 -3568.28999999999996 0 0 0 0 0
519 1 3 31.1018 -3564.65999999999985 0 0 0 0 0
520 1 3 31.1018 -3561.02999999999975 0 0 0 0 0
521 1 3 31.1018 -3557.40000000000009 0 0 0 0 0
522 1 3 31.1018 -3553.76999999999998 0 0 0 0 0
523 1 3 31.1018 -3550.13999999999987 0 0 0 0 0
524 1 3 31.1018 -3546.50999999999976 0 0 0 0 0
525 1 3 31.1018 -3542.88000000000011 0 0 0 0 0
526 1 3 31.1018 -3539.25 0 0 0 0 0
527 1 3 31.1018 -3535.61999999999989 0 0 0 0 0
528 1 3 31.1018 -3531.98999999999978 0 0 0 0 0
529 1 3 31.1018 -3528.35999999999967 0 0 0 0 0
530 1 3 31.1018 -3524.73000000000002 0 0 0 0 0
531 1 3 31.1018 -3521.09999999999991 0 0 0 0 0
532 1 3 31.1018 -3517.4699999999998 0 0 0 0 0
533 1 3 31.1018 -3513.83999999999969 0 0 0 0 0
534 1 3 31.1018 -3510.21000000000004 0 0 0 0 0
535 1 3 31.1018 -3506.57999999999993 0 0 0 0 0
536 1 3 31.1018 -3502.94999999999982 0 0 0 0 0
537 1 3 31.1018 -3499.31999999999971 0 0 0 0 0
538 1 3 31.1018 -3495.69000000000005 0 0 0 0 0
539 1 3 31.1018 -3492.05999999999995 0 0 0 0 0
540 1 3 31.1018 -3488.42999999999984 0 0 0 0 0
541 1 3 31.1018 -3484.79999999999973 0 0 0 0 0
542 1 3 31.1018 -3481.17000000000007 0 0 0 0 0
543 1 3 31.1018 -3477.53999999999996 0 0 0 0 0
544 1 3 31.1018 -3473.90999999999985 0 0 0 0 0
545 1 3 31.1018 -3470.27999999999975 0 0 0 0 0
546 1 3 31.1018 -3466.65000000000009 0 0 0 0 0
547 1 3 31.1018 -3463.01999999999998 0 0 0 0 0
548 1 3 31.1018 -3459.38999999999987 0 0 0 0 0
549 1 3 31.1018 -3455.75999999999976 0 0 0 0 0
550 1 3 31.1018 -3452.13000000000011 0 0 0 0 0
551 1 3 31.1018 -3448.5 0 0 0 0 0
552 1 3 31.1018 -3444.86999999999989 0 0 0 0 0
553 1 3 31.1018 -3441.23999999999978 0 0 0 0 0
554 1 3 31.1018 -3437.60999999999967 0 0 0 0 0
555 1 3 31.1018 -3433.98000000000002 0 0 0 0 0
556 1 3 31.1018 -3430.34999999999991 0 0 0 0 0
557 1 3 31.1018 -3426.7199999999998 0 0 0 0 0
558 1 3 31.1018 -3423.08999999999969 0 0 0 0 0
559 1 3 31.1018 -3419.46000000000004 0 0 0 0 0
560 1 3 31.1018 -3415.82999999999993 0 0 0 0 0
561 1 3 31.1018 -3412.19999999999982 0 0 0 0 0
562 1 3 31.1018 -3408.56999999999971 0 0 0 0 0
563 1 3 31.1018 -3404.94000000000005 0 0 0 0 0
564 1 3 31.1018 -3401.30999999999995 0 0 0 0 0
565 1 3 31.1018 -3397.67999999999984 0 0 0 0 0
566 1 3 31.1018 -3394.04999999999973 0 0 0 0 0
567 1 3 31.1018 -3390.42000000000007 0 0 0 0 0
568 1 3 31.1018 -3386.78999999999996 0 0 0 0 0
569 1 3 31.1018 -3383.15999999999985 0 0 0 0 0
570 1 3 31.1018 -3379.52999999999975 0 0 0 0 0
571 1 3 31.1018 -3375.90000000000009 0 0 0 0 0
572 1 3 31.1018 -3372.26999999999998 0 0 0 0 0
573 1 3 31.1018 -3368.63999999999987 0 0 0 0 0
574 1 3 31.1018 -3365.00999999999976 0 0 0 0 0
575 1 3 31.1018 -3361.38000000000011 0 0 0 0 0
576 1 3 31.1018 -3357.75 0 0 0 0 0
577 1 3 31.1018 -3354.11999999999989 0 0 0 0 0
578 1 3 31.1018 -3350.48999999999978 0 0 0 0 0
579 1 3 31.1018 -3346.86000000000013 0 0 0 0 0
580 1 3 31.1018 -3343.23000000000002 0 0 0 0 0
581 1 3 31.1018 -3339.59999999999991 0 0 0 0 0
582 1 3 31.1018 -3335.9699999999998 0 0 0 0 0
583 1 3 31.1018 -3332.33999999999969 0 0 0 0 0
584 1 3 31.1018 -3328.71000000000004 0 0 0 0 0
585 1 3 31.1018 -3325.07999999999993 0 0 0 0 0
586 1 3 31.1018 -3321.44999999999982 0 0 0 0 0
587 1 3 31.1018 -3317.81999999999971 0 0 0 0 0
588 1 3 31.1018 -3314.19000000000005 0 0 0 0 0
589 1 3 31.1018 -3310.55999999999995 0 0 0 0 0
590 1 3 31.1018 -3306.92999999999984 0 0 0 0 0
591 1 3 31.1018 -3303.29999999999973 0 0 0 0 0
592 1 3 31.1018 -3299.67000000000007 0 0 0 0 0
593 1 3 31.1018 -3296.03999999999996 0 0 0 0 0
594 1 3 31.1018 -3292.40999999999985 0 0 0 0 0
595 1 3 31.1018 -3288.77999999999975 0 0 0 0 0
596 1 3 31.1018 -3285.15000000000009 0 0 0 0 0
597 1 3 31.1018 -3281.51999999999998 0 0 0 0 0
598 1 3 31.1018 -3277.88999999999987 0 0 0 0 0
599 1 3 31.1018 -3274.25999999999976 0 0 0 0 0
600 1 3 31.1018 -3270.63000000000011 0 0 0 0 0
601 1 3 31.1018 -3267 0 0 0 0 0
602 1 3 31.1018 -3263.36999999999989 0 0 0 0 0
603 1 3 31.1018 -3259.73999999999978 0 0 0 0 0
604 1 3 31.1018 -3256.11000000000013 0 0 0 0 0
605 1 3 31.1018 -3252.48000000000002 0 0 0 0 0
606 1 3 31.1018 -3248.84999999999991 0 0 0 0 0
607 1 3 31.1018 -3245.2199999999998 0 0 0 0 0
608 1 3 31.1018 -3241.58999999999969 0 0 0 0 0
609 1 3 31.1018 -3237.96000000000004 0 0 0 0 0
610 1 3 31.1018 -3234.32999999999993 0 0 0 0 0
611 1 3 31.1018 -3230.69999999999982 0 0 0 0 0
612 1 3 31.1018 -3227.06999999999971 0 0 0 0 0
613 1 3 31.1018 -3223.44000000000005 0 0 0 0 0
614 1 3 31.1018 -3219.80999999999995 0 0 0 0 0
615 1 3 31.1018 -3216.17999999999984 0 0 0 0 0
616 1 3 31.1018 -3212.54999999999973 0 0 0 0 0
617 1 3 31.1018 -3208.92000000000007 0 0 0 0 0
618 1 3 31.1018 -3205.28999999999996 0 0 0 0 0
619 1 3 31.1018 -3201.65999999999985 0 0 0 0 0
620 1 3 31.1018 -3198.02999999999975 0 0 0 0 0
621 1 3 31.1018 -3194.40000000000009 0 0 0 0 0
622 1 3 31.1018 -3190.76999999999998 0 0 0 0 0
623 1 3 31.1018 -3187.13999999999987 0 0 0 0 0
624 1 3 31.1018 -3183.50999999999976 0 0 0 0 0
625 1 3 31.1018 -3179.88000000000011 0 0 0 0 0
626 1 3 31.1018 -3176.25 0 0 0 0 0
627 1 3 31.1018 -3172.61999999999989 0 0 0 0 0
628 1 3 31.1018 -3168.98999999999978 0 0 0 0 0
629 1 3 31.1018 -3165.36000000000013 0 0 0 0 0
630 1 3 31.1018 -3161.73000000000002 0 0 0 0 0
631 1 3 31.1018 -3158.09999999999991 0 0 0 0 0
632 1 3 31.1018 -3154.4699999999998 0 0 0 0 0
633 1 3 31.1018 -3150.83999999999969 0 0 0 0 0
634 1 3 31.1018 -3147.21000000000004 0 0 0 0 0
635 1 3 31.1018 -3143.57999999999993 0 0 0 0 0
636 1 3 31.1018 -3139.94999999999982 0 0 0 0 0
637 1 3 31.1018 -3136.31999999999971 0 0 0 0 0
638 1 3 31.1018 -3132.69000000000005 0 0 0 0 0
639 1 3 31.1018 -3129.05999999999995 0 0 0 0 0
640 1 3 31.1018 -3125.42999999999984 0 0 0 0 0
641 1 3 31.1018 -3121.79999999999973 0 0 0 0 0
642 1 3 31.1018 -3118.17000000000007 0 0 0 0 0