LAMMPS (23 Jun 2022 - Update 1)
  using 1 OpenMP thread(s) per MPI task
Lattice spacing in x,y,z = 3 3 3
Created orthogonal box = (-4500 -100 -100) to (4500 100 100)
  2 by 1 by 1 MPI processor grid
Created 3000 atoms
  using lattice units in orthogonal box = (-4500 -100 -100) to (4500 100 100)
  create_atoms CPU = 0.002 seconds
Lattice spacing in x,y,z = 3 3 3
Created 2001 atoms
  using lattice units in orthogonal box = (-4500 -100 -100) to (4500 100 100)
  create_atoms CPU = 0.001 seconds
Setting atom values ...
  3000 settings made for diameter
Setting atom values ...
  3000 settings made for mass
Setting atom values ...
  2001 settings made for diameter
Setting atom values ...
  2001 settings made for mass
3000 atoms in group substrate
2001 atoms in group slider1
  1 rigid bodies with 2001 atoms
Generated 0 of 1 mixed pair_coeff terms from geometric mixing rule
Neighbor list info ...
  update every 1 steps, delay 0 steps, check yes
  max neighbors/atom: 2000, page size: 100000
  master list distance cutoff = 3.1
  ghost atom cutoff = 3.1
  binsize = 1.55, bins = 5807 130 130
  1 neighbor lists, perpetual/occasional/extra = 1 0 0
  (1) pair granular, perpetual
      attributes: half, newton on, size, history
      pair build: half/size/bin/newton
      stencil: half/bin/3d
      bin: standard
Setting up Verlet run ...
  Unit style    : micro
  Current step  : 0
  Time step     : 1e-05
Per MPI rank memory allocation (min/avg/max) = 215.3 | 215.3 | 215.3 Mbytes
   Step           Lx             Ly             Lz           Press           Pxx            Pyy            Pzz           KinEng         PotEng          Temp          c_1[1]         c_1[2]         c_1[3]    
         0   9000           200            200            0              0              0              0              0              0              0              1.1971759e-13  0              6            
    100000   9000           200            200            0.0046172255  -4.5774968e-34  0              0.013851676    1208664.3      0              5.8362074e+10  1.1971759e-13  0              3.3121217    
    200000   9000           200            200            0.0018437065   1.4360782e-34  0              0.0055311195   355236.68      0              1.7153108e+10  1.1971759e-13  0              3.045564     
    300000   9000           200            200            0.00055411805  1.1359994e-40  0              0.0016623541   53067.813      0              2.5624547e+09  1.1971759e-13  0              3.0294302    
    400000   9000           200            200            0.066696781   -4.308231e-34   0              0.20009034     278.62513      0              13453811       1.1971759e-13  0              2.9967016    
    500000   9000           200            200            7.282541e-06   3.5902044e-35  0              2.1847623e-05  14.106759      0              681164.89      1.1971759e-13  0              3.0024161    
    600000   9000           200            200            0.00054109795  6.2828392e-34  0              0.0016232938   437.23758      0              21112638       1.1971759e-13  0              2.999874     
    700000   9000           200            200            0.0049042615   4.4877442e-36  0              0.014712785    119.59599      0              5774862.3      1.1971759e-13  0              2.9994234    
    800000   9000           200            200            0.0052074061   4.4877421e-36  0              0.015622218    14.613485      0              705632.91      1.1971759e-13  0              2.9993986    
    900000   9000           200            200            0.0056055324   1.7860086e-44  0              0.016816597    2.0876985      0              100807.49      1.1971759e-13  0              2.9993679    
   1000000   9000           200            200            0.0056421056   3.3346689e-46  0              0.016926317    0.17771181     0              8581.0672      1.1971759e-13  0              2.999365     
   1100000   9000           200            200            0.0056041566  -6.3108872e-37  0              0.01681247     0.0057226665   0              276.32709      1.1971759e-13  0              2.9993678    
   1200000   9000           200            200            0.0055754761   1.4024194e-37  0              0.016726428    5.5004951e-05  0              2.6559922      1.1971759e-13  0              2.99937      
   1300000   9000           200            200            0.0055625061  -7.0120969e-38  0              0.016687518    0.00020807943  0              10.047411      1.1971759e-13  0              2.999371     
   1400000   9000           200            200            0.0055581278   7.0120969e-38  0              0.016674383    6.4651701e-05  0              3.1217993      1.1971759e-13  0              2.9993713    
   1500000   9000           200            200            0.0055570757  -2.1036291e-37  0              0.016671227    9.9143937e-06  0              0.47873059     1.1971759e-13  0              2.9993714    
   1600000   9000           200            200            0.0055569863  -7.0120969e-38  0              0.016670959    8.5209485e-07  0              0.041144611    1.1971759e-13  0              2.9993714    
   1700000   9000           200            200            0.0055570669  -7.0120969e-38  0              0.016671201    2.8241894e-08  0              0.0013637      1.1971759e-13  0              2.9993714    
   1800000   9000           200            200            0.0055571287  -2.8048388e-37  0              0.016671386    2.1723339e-10  0              1.0489423e-05  1.1971759e-13  0              2.9993714    
   1900000   9000           200            200            0.0055571569   1.1594749e-51  0              0.016671471    9.5947114e-10  0              4.6329428e-05  1.1971759e-13  0              2.9993714    
   2000000   9000           200            200            0.0055571665   1.4482075e-52  0              0.016671499    3.0346138e-10  0              1.4653064e-05  1.1971759e-13  0              2.9993714    
   2100000   9000           200            200            0.0055571688  -2.1036291e-37  0              0.016671506    4.7028817e-11  0              2.2708533e-06  1.1971759e-13  0              2.9993714    
   2200000   9000           200            200            0.005557169   -3.5060485e-37  0              0.016671507    4.0874108e-12  0              1.9736644e-07  1.1971759e-13  0              2.9993714    
   2300000   9000           200            200            0.0055571688  -5.6096775e-37  0              0.016671506    1.3974313e-13  0              6.7476954e-09  1.1971759e-13  0              2.9993714    
   2400000   9000           200            200            0.0055571687   7.0120969e-38  0              0.016671506    8.8410645e-16  0              4.2690336e-11  1.1971759e-13  0              2.9993714    
   2500000   9000           200            200            0.0055571686   2.462661e-56   0              0.016671506    4.4716027e-15  0              2.1591769e-10  1.1971759e-13  0              2.9993714    
   2600000   9000           200            200            0.0055571686  -2.8048388e-37  0              0.016671506    1.3966041e-15  0              6.7437013e-11  1.1971759e-13  0              2.9993714    
   2700000   9000           200            200            0.0055571686  -1.4024194e-37  0              0.016671506    2.2022142e-16  0              1.0633704e-11  1.1971759e-13  0              2.9993714    
   2800000   9000           200            200            0.0055571686   2.1036291e-37  0              0.016671506    1.429335e-17   0              6.9017473e-13  1.1971759e-13  0              2.9993714    
   2900000   9000           200            200            0.0055571686   1.9772382e-56  0              0.016671506    4.5556053e-18  0              2.1997388e-13  1.1971759e-13  0              2.9993714    
   3000000   9000           200            200            0.0055571686   2.1036291e-37  0              0.016671506    4.3407496e-18  0              2.0959926e-13  1.1971759e-13  0              2.9993714    
Loop time of 1063.42 on 2 procs for 3000000 steps with 5001 atoms

Performance: 2437424.622 ns/day, 0.000 hours/ns, 2821.093 timesteps/s
100.0% CPU use with 2 MPI tasks x 1 OpenMP threads

MPI task timing breakdown:
Section |  min time  |  avg time  |  max time  |%varavg| %total
---------------------------------------------------------------
Pair    | 503.04     | 507.53     | 512.02     |  19.9 | 47.73
Neigh   | 11.817     | 11.817     | 11.817     |   0.0 |  1.11
Comm    | 44.699     | 49.265     | 53.831     |  65.1 |  4.63
Output  | 0.61802    | 0.61807    | 0.61812    |   0.0 |  0.06
Modify  | 433.2      | 433.22     | 433.24     |   0.1 | 40.74
Other   |            | 60.97      |            |       |  5.73

Nlocal:         2500.5 ave        2501 max        2500 min
Histogram: 1 0 0 0 0 0 0 0 0 1
Nghost:            4.5 ave           5 max           4 min
Histogram: 1 0 0 0 0 0 0 0 0 1
Neighs:         3500.5 ave        3501 max        3500 min
Histogram: 1 0 0 0 0 0 0 0 0 1

Total # of neighbors = 7001
Ave neighs/atom = 1.39992
Neighbor list builds = 174
Dangerous builds = 0
  using 1 OpenMP thread(s) per MPI task
Lattice spacing in x,y,z = 3.01 3.01 3.01
Created orthogonal box = (-4515 -100 -100) to (4515 100 100)
  2 by 1 by 1 MPI processor grid
Created 3000 atoms
  using lattice units in orthogonal box = (-4515 -100 -100) to (4515 100 100)
  create_atoms CPU = 0.002 seconds
Lattice spacing in x,y,z = 3 3 3
Created 2001 atoms
  using lattice units in orthogonal box = (-4515 -100 -100) to (4515 100 100)
  create_atoms CPU = 0.002 seconds
Setting atom values ...
  3000 settings made for diameter
Setting atom values ...
  3000 settings made for mass
Setting atom values ...
  2001 settings made for diameter
Setting atom values ...
  2001 settings made for mass
3000 atoms in group substrate
2001 atoms in group slider1
  1 rigid bodies with 2001 atoms
Generated 0 of 1 mixed pair_coeff terms from geometric mixing rule
Neighbor list info ...
  update every 1 steps, delay 0 steps, check yes
  max neighbors/atom: 2000, page size: 100000
  master list distance cutoff = 3.1
  ghost atom cutoff = 3.1
  binsize = 1.55, bins = 5826 130 130
  1 neighbor lists, perpetual/occasional/extra = 1 0 0
  (1) pair granular, perpetual
      attributes: half, newton on, size, history
      pair build: half/size/bin/newton
      stencil: half/bin/3d
      bin: standard
Setting up Verlet run ...
  Unit style    : micro
  Current step  : 0
  Time step     : 1e-05
Per MPI rank memory allocation (min/avg/max) = 215.9 | 215.9 | 215.9 Mbytes
   Step           Lx             Ly             Lz           Press           Pxx            Pyy            Pzz           KinEng         PotEng          Temp          c_1[1]         c_1[2]         c_1[3]    
         0   9030           200            200            0              0              0              0              0              0              0              1.1971759e-13  0              6            
    100000   9030           200            200            0.004519441    2.2890277e-41  0              0.013558323    1176778        0              5.6822396e+10  1.1971759e-13  0              3.3232983    
    200000   9030           200            200            0.0016405391  -1.7891269e-35  0              0.0049216174   297977.9       0              1.4388286e+10  1.1971759e-13  0              3.0683175    
    300000   9030           200            200            0.00018961733 -7.1565133e-35  0              0.000568852    7818.6882      0              3.7753647e+08  1.1971759e-13  0              3.0444647    
    400000   9030           200            200            0.036491682    0.02111847     0              0.088356577    1429.2821      0              69014919       1.1971759e-13  0              2.9908578    
    500000   9030           200            200            0.0050540797   0.00099858578  0              0.014163653    3341.7426      0              1.6136079e+08  1.1971759e-13  0              2.9963959    
    600000   9030           200            200            0.0042257922   0.0011689233   0              0.011508453    245.75615      0              11866685       1.1971759e-13  0              2.9967222    
    700000   9030           200            200            0.0069133265   0.0019294293   0              0.01881055     27.891917      0              1346800.8      1.1971759e-13  0              2.9957955    
    800000   9030           200            200            0.0062767615   0.001858551    0              0.016971733    7.1467035      0              345088.74      1.1971759e-13  0              2.9960014    
    900000   9030           200            200            0.0060118596   0.001825501    0              0.016210078    0.0092074665   0              444.59561      1.1971759e-13  0              2.9960938    
   1000000   9030           200            200            0.0061721533   0.0018403725   0              0.016676088    0.10401475     0              5022.4999      1.1971759e-13  0              2.9960383    
   1100000   9030           200            200            0.0061540766   0.0018389975   0              0.016623232    0.014900695    0              719.50122      1.1971759e-13  0              2.9960443    
   1200000   9030           200            200            0.0061387512   0.0018377371   0              0.016578517    3.1490197e-06  0              0.15205489     1.1971759e-13  0              2.9960497    
   1300000   9030           200            200            0.0061463837   0.0018383541   0              0.016600797    0.00028788073  0              13.90073       1.1971759e-13  0              2.9960471    
   1400000   9030           200            200            0.0061458472   0.0018383142   0              0.016599228    3.0517144e-05  0              1.4735637      1.1971759e-13  0              2.9960472    
   1500000   9030           200            200            0.0061450059   0.0018382452   0              0.016596773    1.5911961e-07  0              0.0076833165   1.1971759e-13  0              2.9960475    
   1600000   9030           200            200            0.0061453636   0.001838274    0              0.016597817    7.6773466e-07  0              0.037071159    1.1971759e-13  0              2.9960474    
   1700000   9030           200            200            0.006145355    0.0018382735   0              0.016597791    5.9579851e-08  0              0.0028768978   1.1971759e-13  0              2.9960474    
   1800000   9030           200            200            0.0061453099   0.0018382698   0              0.01659766     1.1965104e-09  0              5.7775207e-05  1.1971759e-13  0              2.9960474    
   1900000   9030           200            200            0.0061453264   0.0018382711   0              0.016597708    1.9782063e-09  0              9.5520502e-05  1.1971759e-13  0              2.9960474    
   2000000   9030           200            200            0.0061453268   0.0018382712   0              0.016597709    1.0954188e-10  0              5.2893853e-06  1.1971759e-13  0              2.9960474    
   2100000   9030           200            200            0.0061453245   0.001838271    0              0.016597702    5.8048378e-12  0              2.8029484e-07  1.1971759e-13  0              2.9960474    
   2200000   9030           200            200            0.0061453252   0.001838271    0              0.016597705    4.9366922e-12  0              2.383752e-07   1.1971759e-13  0              2.9960474    
   2300000   9030           200            200            0.0061453253   0.0018382711   0              0.016597705    1.8611061e-13  0              8.9866151e-09  1.1971759e-13  0              2.9960474    
   2400000   9030           200            200            0.0061453252   0.001838271    0              0.016597704    2.3462799e-14  0              1.1329346e-09  1.1971759e-13  0              2.9960474    
   2500000   9030           200            200            0.0061453252   0.001838271    0              0.016597705    1.1907768e-14  0              5.7498352e-10  1.1971759e-13  0              2.9960474    
   2600000   9030           200            200            0.0061453252   0.001838271    0              0.016597705    2.3919393e-16  0              1.1549819e-11  1.1971759e-13  0              2.9960474    
   2700000   9030           200            200            0.0061453252   0.001838271    0              0.016597705    6.8488253e-17  0              3.3070526e-12  1.1971759e-13  0              2.9960474    
   2800000   9030           200            200            0.0061453252   0.001838271    0              0.016597705    1.9811258e-17  0              9.5661473e-13  1.1971759e-13  0              2.9960474    
   2900000   9030           200            200            0.0061453252   0.001838271    0              0.016597705    9.2900068e-19  0              4.4858118e-14  1.1971759e-13  0              2.9960474    
   3000000   9030           200            200            0.0061453252   0.001838271    0              0.016597705    8.881439e-18   0              4.288529e-13   1.1971759e-13  0              2.9960474    
Loop time of 794.358 on 2 procs for 3000000 steps with 5001 atoms

Performance: 3263013.726 ns/day, 0.000 hours/ns, 3776.636 timesteps/s
99.9% CPU use with 2 MPI tasks x 1 OpenMP threads

MPI task timing breakdown:
Section |  min time  |  avg time  |  max time  |%varavg| %total
---------------------------------------------------------------
Pair    | 256.5      | 257.28     | 258.05     |   4.8 | 32.39
Neigh   | 11.351     | 11.351     | 11.351     |   0.0 |  1.43
Comm    | 35.292     | 36.16      | 37.029     |  14.4 |  4.55
Output  | 0.66248    | 0.6625     | 0.66253    |   0.0 |  0.08
Modify  | 428.42     | 428.46     | 428.49     |   0.2 | 53.94
Other   |            | 60.45      |            |       |  7.61

Nlocal:         2500.5 ave        2501 max        2500 min
Histogram: 1 0 0 0 0 0 0 0 0 1
Nghost:            4.5 ave           5 max           4 min
Histogram: 1 0 0 0 0 0 0 0 0 1
Neighs:         3049.5 ave        3050 max        3049 min
Histogram: 1 0 0 0 0 0 0 0 0 1

Total # of neighbors = 6099
Ave neighs/atom = 1.2195561
Neighbor list builds = 166
Dangerous builds = 0
  using 1 OpenMP thread(s) per MPI task
Lattice spacing in x,y,z = 3.02 3.02 3.02
Created orthogonal box = (-4530 -100 -100) to (4530 100 100)
  2 by 1 by 1 MPI processor grid
Created 3000 atoms
  using lattice units in orthogonal box = (-4530 -100 -100) to (4530 100 100)
  create_atoms CPU = 0.001 seconds
Lattice spacing in x,y,z = 3 3 3
Created 2001 atoms
  using lattice units in orthogonal box = (-4530 -100 -100) to (4530 100 100)
  create_atoms CPU = 0.001 seconds
Setting atom values ...
  3000 settings made for diameter
Setting atom values ...
  3000 settings made for mass
Setting atom values ...
  2001 settings made for diameter
Setting atom values ...
  2001 settings made for mass
3000 atoms in group substrate
2001 atoms in group slider1
  1 rigid bodies with 2001 atoms
Generated 0 of 1 mixed pair_coeff terms from geometric mixing rule
Neighbor list info ...
  update every 1 steps, delay 0 steps, check yes
  max neighbors/atom: 2000, page size: 100000
  master list distance cutoff = 3.1
  ghost atom cutoff = 3.1
  binsize = 1.55, bins = 5846 130 130
  1 neighbor lists, perpetual/occasional/extra = 1 0 0
  (1) pair granular, perpetual
      attributes: half, newton on, size, history
      pair build: half/size/bin/newton
      stencil: half/bin/3d
      bin: standard
Setting up Verlet run ...
  Unit style    : micro
  Current step  : 0
  Time step     : 1e-05
Per MPI rank memory allocation (min/avg/max) = 216.6 | 216.6 | 216.6 Mbytes
   Step           Lx             Ly             Lz           Press           Pxx            Pyy            Pzz           KinEng         PotEng          Temp          c_1[1]         c_1[2]         c_1[3]    
         0   9060           200            200            0              0              0              0              0              0              0              1.1971759e-13  0              6            
    100000   9060           200            200            0.0045000982  -8.916032e-36   0              0.013500295    1175061.9      0              5.6739532e+10  1.1971759e-13  0              3.3239889    
    200000   9060           200            200            0.0016246423   4.0180221e-41  0              0.004873927    295004.78      0              1.4244725e+10  1.1971759e-13  0              3.0695702    
    300000   9060           200            200            0.00017186862  1.0641541e-40  0              0.00051560587  6550.0677      0              3.1627933e+08  1.1971759e-13  0              3.0447376    
    400000   9060           200            200            0.031661602    0.0098848996   0              0.085099906    1998.0805      0              96480159       1.1971759e-13  0              2.9907005    
    500000   9060           200            200            0.00058910323  3.2622071e-05  0              0.0017346876   367.49412      0              17744976       1.1971759e-13  0              2.9987173    
    600000   9060           200            200            0.0081137739   0.001389176    0              0.022952146    173.37192      0              8371509.4      1.1971759e-13  0              2.9951605    
    700000   9060           200            200            0.0068008387   0.0010330493   0              0.019369467    3.0239986      0              146018.07      1.1971759e-13  0              2.9955608    
    800000   9060           200            200            0.0059666322   0.00096740936  0              0.016932487    6.8995862      0              333156.33      1.1971759e-13  0              2.995852     
    900000   9060           200            200            0.0057640759   0.00095926797  0              0.01633296     0.7337101      0              35428.235      1.1971759e-13  0              2.9959255    
   1000000   9060           200            200            0.0057881813   0.00096037604  0              0.016404168    4.5097856e-07  0              0.02177614     1.1971759e-13  0              2.9959159    
   1100000   9060           200            200            0.0058251086   0.00096194341  0              0.016513382    0.013292954    0              641.86916      1.1971759e-13  0              2.9959022    
   1200000   9060           200            200            0.0058370523   0.0009624347   0              0.016548722    0.0022272742   0              107.5471       1.1971759e-13  0              2.9958978    
   1300000   9060           200            200            0.0058369897   0.00096242856  0              0.01654854     1.5063749e-05  0              0.72737455     1.1971759e-13  0              2.9958978    
   1400000   9060           200            200            0.0058353617   0.00096236032  0              0.016543725    2.2459863e-05  0              1.0845064      1.1971759e-13  0              2.9958984    
   1500000   9060           200            200            0.0058347027   0.00096233315  0              0.016541775    6.0710345e-06  0              0.29314853     1.1971759e-13  0              2.9958987    
   1600000   9060           200            200            0.0058346508   0.00096233116  0              0.016541621    1.4034921e-07  0              0.0067769609   1.1971759e-13  0              2.9958987    
   1700000   9060           200            200            0.0058347179   0.000962334    0              0.01654182     3.1296972e-08  0              0.0015112188   1.1971759e-13  0              2.9958987    
   1800000   9060           200            200            0.0058347524   0.00096233542  0              0.016541922    1.5079875e-08  0              0.00072815321  1.1971759e-13  0              2.9958987    
   1900000   9060           200            200            0.0058347576   0.00096233563  0              0.016541937    7.0882505e-10  0              3.4226625e-05  1.1971759e-13  0              2.9958987    
   2000000   9060           200            200            0.005834755    0.00096233552  0              0.01654193     3.0864287e-11  0              1.490326e-06   1.1971759e-13  0              2.9958987    
   2100000   9060           200            200            0.0058347533   0.00096233545  0              0.016541925    3.4211253e-11  0              1.651939e-06   1.1971759e-13  0              2.9958987    
   2200000   9060           200            200            0.005834753    0.00096233544  0              0.016541923    2.7327512e-12  0              1.3195478e-07  1.1971759e-13  0              2.9958987    
   2300000   9060           200            200            0.005834753    0.00096233544  0              0.016541924    1.1182374e-14  0              5.399568e-10   1.1971759e-13  0              2.9958987    
   2400000   9060           200            200            0.0058347531   0.00096233544  0              0.016541924    7.0414707e-14  0              3.4000742e-09  1.1971759e-13  0              2.9958987    
   2500000   9060           200            200            0.0058347531   0.00096233544  0              0.016541924    8.9267694e-15  0              4.3104175e-10  1.1971759e-13  0              2.9958987    
   2600000   9060           200            200            0.0058347531   0.00096233544  0              0.016541924    3.4726532e-18  0              1.67682e-13    1.1971759e-13  0              2.9958987    
   2700000   9060           200            200            0.0058347531   0.00096233544  0              0.016541924    1.0656673e-16  0              5.1457262e-12  1.1971759e-13  0              2.9958987    
   2800000   9060           200            200            0.0058347531   0.00096233544  0              0.016541924    1.9643732e-17  0              9.4852552e-13  1.1971759e-13  0              2.9958987    
   2900000   9060           200            200            0.0058347531   0.00096233544  0              0.016541924    1.5107258e-17  0              7.2947542e-13  1.1971759e-13  0              2.9958987    
   3000000   9060           200            200            0.0058347531   0.00096233544  0              0.016541924    1.1634587e-17  0              5.6179257e-13  1.1971759e-13  0              2.9958987    
Loop time of 794.904 on 2 procs for 3000000 steps with 5001 atoms

Performance: 3260769.662 ns/day, 0.000 hours/ns, 3774.039 timesteps/s
99.9% CPU use with 2 MPI tasks x 1 OpenMP threads

MPI task timing breakdown:
Section |  min time  |  avg time  |  max time  |%varavg| %total
---------------------------------------------------------------
Pair    | 255.98     | 257.63     | 259.27     |  10.2 | 32.41
Neigh   | 11.271     | 11.271     | 11.271     |   0.0 |  1.42
Comm    | 34.459     | 36.201     | 37.944     |  29.0 |  4.55
Output  | 0.65336    | 0.6534     | 0.65343    |   0.0 |  0.08
Modify  | 429.3      | 429.34     | 429.39     |   0.2 | 54.01
Other   |            | 59.81      |            |       |  7.52

Nlocal:         2500.5 ave        2501 max        2500 min
Histogram: 1 0 0 0 0 0 0 0 0 1
Nghost:            4.5 ave           5 max           4 min
Histogram: 1 0 0 0 0 0 0 0 0 1
Neighs:         3013.5 ave        3014 max        3013 min
Histogram: 1 0 0 0 0 0 0 0 0 1

Total # of neighbors = 6027
Ave neighs/atom = 1.205159
Neighbor list builds = 166
Dangerous builds = 0
  using 1 OpenMP thread(s) per MPI task
Lattice spacing in x,y,z = 3.03 3.03 3.03
Created orthogonal box = (-4545 -100 -100) to (4545 100 100)
  2 by 1 by 1 MPI processor grid
Created 3000 atoms
  using lattice units in orthogonal box = (-4545 -100 -100) to (4545 100 100)
  create_atoms CPU = 0.001 seconds
Lattice spacing in x,y,z = 3 3 3
Created 2001 atoms
  using lattice units in orthogonal box = (-4545 -100 -100) to (4545 100 100)
  create_atoms CPU = 0.001 seconds
Setting atom values ...
  3000 settings made for diameter
Setting atom values ...
  3000 settings made for mass
Setting atom values ...
  2001 settings made for diameter
Setting atom values ...
  2001 settings made for mass
3000 atoms in group substrate
2001 atoms in group slider1
  1 rigid bodies with 2001 atoms
Generated 0 of 1 mixed pair_coeff terms from geometric mixing rule
Neighbor list info ...
  update every 1 steps, delay 0 steps, check yes
  max neighbors/atom: 2000, page size: 100000
  master list distance cutoff = 3.1
  ghost atom cutoff = 3.1
  binsize = 1.55, bins = 5865 130 130
  1 neighbor lists, perpetual/occasional/extra = 1 0 0
  (1) pair granular, perpetual
      attributes: half, newton on, size, history
      pair build: half/size/bin/newton
      stencil: half/bin/3d
      bin: standard
Setting up Verlet run ...
  Unit style    : micro
  Current step  : 0
  Time step     : 1e-05
Per MPI rank memory allocation (min/avg/max) = 217.3 | 217.3 | 217.3 Mbytes
   Step           Lx             Ly             Lz           Press           Pxx            Pyy            Pzz           KinEng         PotEng          Temp          c_1[1]         c_1[2]         c_1[3]    
         0   9090           200            200            0              0              0              0              0              0              0              1.1971759e-13  0              6            
    100000   9090           200            200            0.0044842712   8.8140243e-40  0              0.013452814    1174695.9      0              5.672186e+10   1.1971759e-13  0              3.3240729    
    200000   9090           200            200            0.0016167147   1.4218682e-34  0              0.0048501442   294280.22      0              1.4209739e+10  1.1971759e-13  0              3.069821     
    300000   9090           200            200            0.00016604901  2.0149527e-40  0              0.00049814703  6179.4246      0              2.983823e+08   1.1971759e-13  0              3.0447943    
    400000   9090           200            200            0.027913265    0.0058301511   0              0.077909644    4840.3256      0              2.33722e+08    1.1971759e-13  0              2.9909841    
    500000   9090           200            200            0.00042687387  2.3635089e-05  0              0.0012569865   0.00055466539  0              26.782806      1.1971759e-13  0              2.9988571    
    600000   9090           200            200            0.007992002    0.00085911199  0              0.023116894    153.83606      0              7428192.8      1.1971759e-13  0              2.9950898    
    700000   9090           200            200            0.0054633236   0.00062068539  0              0.015769286    55.930178      0              2700668.1      1.1971759e-13  0              2.9959384    
    800000   9090           200            200            0.0054772261   0.00062804273  0              0.015803636    4.3902578      0              211989.83      1.1971759e-13  0              2.99593      
    900000   9090           200            200            0.0055964248   0.00064053552  0              0.016148739    0.19769669     0              9546.0656      1.1971759e-13  0              2.9958852    
   1000000   9090           200            200            0.0056640601   0.00064278513  0              0.016349395    0.00057629936  0              27.827433      1.1971759e-13  0              2.9958597    
   1100000   9090           200            200            0.0056941887   0.00064373727  0              0.016438829    0.0018728229   0              90.431913      1.1971759e-13  0              2.9958485    
   1200000   9090           200            200            0.0057055996   0.00064408919  0              0.01647271     0.0010668974   0              51.516656      1.1971759e-13  0              2.9958443    
   1300000   9090           200            200            0.0057093179   0.00064420235  0              0.016483751    0.00026946126  0              13.01132       1.1971759e-13  0              2.995843     
   1400000   9090           200            200            0.0057103164   0.00064423235  0              0.016486717    4.6045593e-05  0              2.2233769      1.1971759e-13  0              2.9958426    
   1500000   9090           200            200            0.0057104968   0.00064423761  0              0.016487253    5.8292723e-06  0              0.2814747      1.1971759e-13  0              2.9958425    
   1600000   9090           200            200            0.0057104856   0.00064423717  0              0.01648722     5.3627001e-07  0              0.025894559    1.1971759e-13  0              2.9958425    
   1700000   9090           200            200            0.0057104538   0.00064423616  0              0.016487125    3.0391569e-08  0              0.0014675001   1.1971759e-13  0              2.9958425    
   1800000   9090           200            200            0.0057104336   0.00064423553  0              0.016487065    4.1494276e-10  0              2.0036101e-05  1.1971759e-13  0              2.9958426    
   1900000   9090           200            200            0.0057104242   0.00064423524  0              0.016487037    9.0777556e-11  0              4.3833233e-06  1.1971759e-13  0              2.9958426    
   2000000   9090           200            200            0.0057104205   0.00064423513  0              0.016487026    8.4883462e-11  0              4.0987186e-06  1.1971759e-13  0              2.9958426    
   2100000   9090           200            200            0.0057104192   0.00064423509  0              0.016487023    2.4900133e-11  0              1.2023383e-06  1.1971759e-13  0              2.9958426    
   2200000   9090           200            200            0.0057104189   0.00064423508  0              0.016487022    4.6586115e-12  0              2.2494768e-07  1.1971759e-13  0              2.9958426    
   2300000   9090           200            200            0.0057104188   0.00064423508  0              0.016487021    6.3850906e-13  0              3.0831318e-08  1.1971759e-13  0              2.9958426    
   2400000   9090           200            200            0.0057104188   0.00064423508  0              0.016487021    6.4862144e-14  0              3.1319608e-09  1.1971759e-13  0              2.9958426    
   2500000   9090           200            200            0.0057104188   0.00064423508  0              0.016487021    4.4437092e-15  0              2.1457081e-10  1.1971759e-13  0              2.9958426    
   2600000   9090           200            200            0.0057104188   0.00064423508  0              0.016487021    9.4950516e-17  0              4.5848206e-12  1.1971759e-13  0              2.9958426    
   2700000   9090           200            200            0.0057104188   0.00064423508  0              0.016487021    5.3884342e-20  0              2.601882e-15   1.1971759e-13  0              2.9958426    
   2800000   9090           200            200            0.0057104188   0.00064423508  0              0.016487021    1.5318117e-18  0              7.3965703e-14  1.1971759e-13  0              2.9958426    
   2900000   9090           200            200            0.0057104188   0.00064423508  0              0.016487021    1.2588813e-17  0              6.0786874e-13  1.1971759e-13  0              2.9958426    
   3000000   9090           200            200            0.0057104188   0.00064423508  0              0.016487021    1.7275236e-18  0              8.3415932e-14  1.1971759e-13  0              2.9958426    
Loop time of 799.345 on 2 procs for 3000000 steps with 5001 atoms

Performance: 3242653.895 ns/day, 0.000 hours/ns, 3753.072 timesteps/s
100.0% CPU use with 2 MPI tasks x 1 OpenMP threads

MPI task timing breakdown:
Section |  min time  |  avg time  |  max time  |%varavg| %total
---------------------------------------------------------------
Pair    | 262.03     | 262.68     | 263.33     |   4.0 | 32.86
Neigh   | 11.39      | 11.39      | 11.391     |   0.0 |  1.42
Comm    | 35.427     | 36.184     | 36.942     |  12.6 |  4.53
Output  | 0.66478    | 0.66478    | 0.66478    |   0.0 |  0.08
Modify  | 429.71     | 430.08     | 430.45     |   1.8 | 53.80
Other   |            | 58.34      |            |       |  7.30

Nlocal:         2500.5 ave        2501 max        2500 min
Histogram: 1 0 0 0 0 0 0 0 0 1
Nghost:            4.5 ave           5 max           4 min
Histogram: 1 0 0 0 0 0 0 0 0 1
Neighs:         3020.5 ave        3021 max        3020 min
Histogram: 1 0 0 0 0 0 0 0 0 1

Total # of neighbors = 6041
Ave neighs/atom = 1.2079584
Neighbor list builds = 166
Dangerous builds = 0
  using 1 OpenMP thread(s) per MPI task
Lattice spacing in x,y,z = 3.04 3.04 3.04
Created orthogonal box = (-4560 -100 -100) to (4560 100 100)
  2 by 1 by 1 MPI processor grid
Created 3000 atoms
  using lattice units in orthogonal box = (-4560 -100 -100) to (4560 100 100)
  create_atoms CPU = 0.002 seconds
Lattice spacing in x,y,z = 3 3 3
Created 2001 atoms
  using lattice units in orthogonal box = (-4560 -100 -100) to (4560 100 100)
  create_atoms CPU = 0.001 seconds
Setting atom values ...
  3000 settings made for diameter
Setting atom values ...
  3000 settings made for mass
Setting atom values ...
  2001 settings made for diameter
Setting atom values ...
  2001 settings made for mass
3000 atoms in group substrate
2001 atoms in group slider1
  1 rigid bodies with 2001 atoms
Generated 0 of 1 mixed pair_coeff terms from geometric mixing rule
Neighbor list info ...
  update every 1 steps, delay 0 steps, check yes
  max neighbors/atom: 2000, page size: 100000
  master list distance cutoff = 3.1
  ghost atom cutoff = 3.1
  binsize = 1.55, bins = 5884 130 130
  1 neighbor lists, perpetual/occasional/extra = 1 0 0
  (1) pair granular, perpetual
      attributes: half, newton on, size, history
      pair build: half/size/bin/newton
      stencil: half/bin/3d
      bin: standard
Setting up Verlet run ...
  Unit style    : micro
  Current step  : 0
  Time step     : 1e-05
Per MPI rank memory allocation (min/avg/max) = 217.9 | 217.9 | 217.9 Mbytes
   Step           Lx             Ly             Lz           Press           Pxx            Pyy            Pzz           KinEng         PotEng          Temp          c_1[1]         c_1[2]         c_1[3]    
         0   9120           200            200            0              0              0              0              0              0              0              1.1971759e-13  0              6            
    100000   9120           200            200            0.0044727254   8.1859566e-41  0              0.013418176    1175943.3      0              5.6782094e+10  1.1971759e-13  0              3.323633     
    200000   9120           200            200            0.0016192825   4.1426984e-43  0              0.0048578476   296527.62      0              1.4318257e+10  1.1971759e-13  0              3.0689286    
    300000   9120           200            200            0.00017946788  3.5429644e-35  0              0.00053840363  7189.0695      0              3.4713444e+08  1.1971759e-13  0              3.0446034    
    400000   9120           200            200            0.031641818    0.0053084499   0              0.089617006    11.096932      0              535831.15      1.1971759e-13  0              2.9905868    
    500000   9120           200            200            0.0016946066   5.1082522e-05  0              0.0050327372   1939.2018      0              93637116       1.1971759e-13  0              2.9978359    
    600000   9120           200            200            0.0037629142   0.00035965041  0              0.010929092    197.93621      0              9557631        1.1971759e-13  0              2.9967121    
    700000   9120           200            200            0.0055187816   0.00047236653  0              0.016083978    58.905023      0              2844312.8      1.1971759e-13  0              2.996014     
    800000   9120           200            200            0.0059403751   0.00047526237  0              0.017345863    1.640341       0              79206.198      1.1971759e-13  0              2.9958602    
    900000   9120           200            200            0.005729207    0.00047158933  0              0.016716032    0.47186298     0              22784.574      1.1971759e-13  0              2.9959402    
   1000000   9120           200            200            0.0056196541   0.00046957785  0              0.016389385    0.12850003     0              6204.8067      1.1971759e-13  0              2.9959811    
   1100000   9120           200            200            0.005617681    0.00046955349  0              0.016383489    5.1903595e-05  0              2.5062389      1.1971759e-13  0              2.9959816    
   1200000   9120           200            200            0.0056317978   0.0004698223   0              0.016425571    0.0021258282   0              102.64864      1.1971759e-13  0              2.9959763    
   1300000   9120           200            200            0.0056359769   0.00046989976  0              0.016438031    0.00018845481  0              9.0998082      1.1971759e-13  0              2.9959747    
   1400000   9120           200            200            0.0056352387   0.00046988528  0              0.016435831    5.6956035e-06  0              0.27502031     1.1971759e-13  0              2.995975     
   1500000   9120           200            200            0.0056344739   0.00046987089  0              0.016433551    6.2600892e-06  0              0.3022773      1.1971759e-13  0              2.9959753    
   1600000   9120           200            200            0.0056343612   0.00046986885  0              0.016433215    1.3860108e-07  0              0.0066925501   1.1971759e-13  0              2.9959753    
   1700000   9120           200            200            0.0056344327   0.00046987021  0              0.016433428    5.4109473e-08  0              0.0026127528   1.1971759e-13  0              2.9959753    
   1800000   9120           200            200            0.0056344675   0.00046987087  0              0.016433532    1.3068998e-08  0              0.00063105515  1.1971759e-13  0              2.9959753    
   1900000   9120           200            200            0.0056344676   0.00046987086  0              0.016433532    1.8706746e-13  0              9.0328184e-09  1.1971759e-13  0              2.9959753    
   2000000   9120           200            200            0.0056344629   0.00046987077  0              0.016433518    2.3152894e-10  0              1.1179704e-05  1.1971759e-13  0              2.9959753    
   2100000   9120           200            200            0.0056344616   0.00046987075  0              0.016433514    1.8228253e-11  0              8.8017712e-07  1.1971759e-13  0              2.9959753    
   2200000   9120           200            200            0.0056344619   0.00046987076  0              0.016433515    7.3884557e-13  0              3.5676208e-08  1.1971759e-13  0              2.9959753    
   2300000   9120           200            200            0.0056344622   0.00046987076  0              0.016433516    6.5733663e-13  0              3.1740433e-08  1.1971759e-13  0              2.9959753    
   2400000   9120           200            200            0.0056344622   0.00046987076  0              0.016433516    1.1508868e-14  0              5.5572205e-10  1.1971759e-13  0              2.9959753    
   2500000   9120           200            200            0.0056344622   0.00046987076  0              0.016433516    6.3236322e-15  0              3.0534557e-10  1.1971759e-13  0              2.9959753    
   2600000   9120           200            200            0.0056344622   0.00046987076  0              0.016433516    1.2832151e-15  0              6.1961863e-11  1.1971759e-13  0              2.9959753    
   2700000   9120           200            200            0.0056344622   0.00046987076  0              0.016433516    1.9414391e-20  0              9.3745148e-16  1.1971759e-13  0              2.9959753    
   2800000   9120           200            200            0.0056344622   0.00046987076  0              0.016433516    6.7854084e-18  0              3.2764309e-13  1.1971759e-13  0              2.9959753    
   2900000   9120           200            200            0.0056344622   0.00046987076  0              0.016433516    3.9438396e-18  0              1.904339e-13   1.1971759e-13  0              2.9959753    
   3000000   9120           200            200            0.0056344622   0.00046987076  0              0.016433516    1.2914507e-17  0              6.2359533e-13  1.1971759e-13  0              2.9959753    
Loop time of 801.282 on 2 procs for 3000000 steps with 5001 atoms

Performance: 3234814.659 ns/day, 0.000 hours/ns, 3743.998 timesteps/s
99.9% CPU use with 2 MPI tasks x 1 OpenMP threads

MPI task timing breakdown:
Section |  min time  |  avg time  |  max time  |%varavg| %total
---------------------------------------------------------------
Pair    | 262.71     | 264.63     | 266.55     |  11.8 | 33.03
Neigh   | 11.458     | 11.458     | 11.458     |   0.0 |  1.43
Comm    | 34.716     | 36.723     | 38.73      |  33.1 |  4.58
Output  | 0.65297    | 0.65298    | 0.653      |   0.0 |  0.08
Modify  | 428.78     | 428.85     | 428.93     |   0.4 | 53.52
Other   |            | 58.96      |            |       |  7.36

Nlocal:         2500.5 ave        2501 max        2500 min
Histogram: 1 0 0 0 0 0 0 0 0 1
Nghost:            4.5 ave           5 max           4 min
Histogram: 1 0 0 0 0 0 0 0 0 1
Neighs:         3019.5 ave        3020 max        3019 min
Histogram: 1 0 0 0 0 0 0 0 0 1

Total # of neighbors = 6039
Ave neighs/atom = 1.2075585
Neighbor list builds = 166
Dangerous builds = 0
  using 1 OpenMP thread(s) per MPI task
Lattice spacing in x,y,z = 3.05 3.05 3.05
Created orthogonal box = (-4575 -100 -100) to (4575 100 100)
  2 by 1 by 1 MPI processor grid
Created 3000 atoms
  using lattice units in orthogonal box = (-4575 -100 -100) to (4575 100 100)
  create_atoms CPU = 0.001 seconds
Lattice spacing in x,y,z = 3 3 3
Created 2001 atoms
  using lattice units in orthogonal box = (-4575 -100 -100) to (4575 100 100)
  create_atoms CPU = 0.001 seconds
Setting atom values ...
  3000 settings made for diameter
Setting atom values ...
  3000 settings made for mass
Setting atom values ...
  2001 settings made for diameter
Setting atom values ...
  2001 settings made for mass
3000 atoms in group substrate
2001 atoms in group slider1
  1 rigid bodies with 2001 atoms
Generated 0 of 1 mixed pair_coeff terms from geometric mixing rule
Neighbor list info ...
  update every 1 steps, delay 0 steps, check yes
  max neighbors/atom: 2000, page size: 100000
  master list distance cutoff = 3.1
  ghost atom cutoff = 3.1
  binsize = 1.55, bins = 5904 130 130
  1 neighbor lists, perpetual/occasional/extra = 1 0 0
  (1) pair granular, perpetual
      attributes: half, newton on, size, history
      pair build: half/size/bin/newton
      stencil: half/bin/3d
      bin: standard
Setting up Verlet run ...
  Unit style    : micro
  Current step  : 0
  Time step     : 1e-05
Per MPI rank memory allocation (min/avg/max) = 218.6 | 218.6 | 218.6 Mbytes
   Step           Lx             Ly             Lz           Press           Pxx            Pyy            Pzz           KinEng         PotEng          Temp          c_1[1]         c_1[2]         c_1[3]    
         0   9150           200            200            0              0              0              0              0              0              0              1.1971759e-13  0              6            
    100000   9150           200            200            0.0044567277   3.3106296e-36  0              0.013370183    1175415.1      0              5.6756587e+10  1.1971759e-13  0              3.3238474    
    200000   9150           200            200            0.0016108279   2.5227281e-42  0              0.0048324837   295625.56      0              1.42747e+10    1.1971759e-13  0              3.0693075    
    300000   9150           200            200            0.00017368023  5.2484861e-40  0              0.00052104068  6804.14        0              3.2854757e+08  1.1971759e-13  0              3.0446855    
    400000   9150           200            200            0.030521173    0.0042043632   0              0.087359155    781.64779      0              37742974       1.1971759e-13  0              2.9906054    
    500000   9150           200            200            0.00082121914  1.7285512e-05  0              0.0024463719   845.8533       0              40843229       1.1971759e-13  0              2.9984799    
    600000   9150           200            200            0.0058279877   0.00043928024  0              0.017044683    449.80428      0              21719439       1.1971759e-13  0              2.9958189    
    700000   9150           200            200            0.0057016993   0.00038969003  0              0.016715408    60.061401      0              2900150.1      1.1971759e-13  0              2.9958672    
    800000   9150           200            200            0.0052829915   0.00035964291  0              0.015489332    2.1679103      0              104680.63      1.1971759e-13  0              2.9960224    
    900000   9150           200            200            0.0054972185   0.00037088661  0              0.016120769    0.57646176     0              27835.275      1.1971759e-13  0              2.9959454    
   1000000   9150           200            200            0.0056124287   0.00037320711  0              0.016464079    0.093328857    0              4506.5165      1.1971759e-13  0              2.9959032    
   1100000   9150           200            200            0.0055992588   0.00037297366  0              0.016424803    0.0040130444   0              193.77555      1.1971759e-13  0              2.9959077    
   1200000   9150           200            200            0.0055821002   0.00037264553  0              0.016373655    0.002392754    0              115.53753      1.1971759e-13  0              2.9959139    
   1300000   9150           200            200            0.0055817074   0.00037263601  0              0.016372486    5.3941175e-06  0              0.26046263     1.1971759e-13  0              2.9959141    
   1400000   9150           200            200            0.0055839576   0.00037267922  0              0.016379194    4.6962752e-05  0              2.2676632      1.1971759e-13  0              2.9959133    
   1500000   9150           200            200            0.0055842942   0.00037268593  0              0.016380197    3.0514799e-07  0              0.014734505    1.1971759e-13  0              2.9959132    
   1600000   9150           200            200            0.0055840348   0.000372681    0              0.016379424    7.2140723e-07  0              0.034834173    1.1971759e-13  0              2.9959132    
   1700000   9150           200            200            0.005583957    0.00037267947  0              0.016379192    3.2813894e-08  0              0.0015844655   1.1971759e-13  0              2.9959133    
   1800000   9150           200            200            0.005583982    0.00037267994  0              0.016379266    8.2926656e-09  0              0.00040042314  1.1971759e-13  0              2.9959133    
   1900000   9150           200            200            0.0055839956   0.00037268021  0              0.016379307    1.279593e-09   0              6.1786968e-05  1.1971759e-13  0              2.9959133    
   2000000   9150           200            200            0.0055839939   0.00037268018  0              0.016379302    5.9332583e-11  0              2.8649581e-06  1.1971759e-13  0              2.9959133    
   2100000   9150           200            200            0.0055839919   0.00037268014  0              0.016379296    3.3267042e-11  0              1.6063464e-06  1.1971759e-13  0              2.9959133    
   2200000   9150           200            200            0.0055839919   0.00037268014  0              0.016379295    9.3756818e-14  0              4.5271812e-09  1.1971759e-13  0              2.9959133    
   2300000   9150           200            200            0.0055839921   0.00037268014  0              0.016379296    6.5954303e-13  0              3.1846972e-08  1.1971759e-13  0              2.9959133    
   2400000   9150           200            200            0.0055839922   0.00037268014  0              0.016379296    4.0114494e-15  0              1.9369854e-10  1.1971759e-13  0              2.9959133    
   2500000   9150           200            200            0.0055839921   0.00037268014  0              0.016379296    1.0208222e-14  0              4.9291853e-10  1.1971759e-13  0              2.9959133    
   2600000   9150           200            200            0.0055839921   0.00037268014  0              0.016379296    4.5153762e-16  0              2.1803136e-11  1.1971759e-13  0              2.9959133    
   2700000   9150           200            200            0.0055839921   0.00037268014  0              0.016379296    1.3504867e-16  0              6.5210171e-12  1.1971759e-13  0              2.9959133    
   2800000   9150           200            200            0.0055839921   0.00037268014  0              0.016379296    8.4733052e-20  0              4.0914558e-15  1.1971759e-13  0              2.9959133    
   2900000   9150           200            200            0.0055839921   0.00037268014  0              0.016379296    9.9748983e-18  0              4.8165214e-13  1.1971759e-13  0              2.9959133    
   3000000   9150           200            200            0.0055839921   0.00037268014  0              0.016379296    5.5817256e-18  0              2.6952156e-13  1.1971759e-13  0              2.9959133    
Loop time of 804.504 on 2 procs for 3000000 steps with 5001 atoms

Performance: 3221862.266 ns/day, 0.000 hours/ns, 3729.007 timesteps/s
99.9% CPU use with 2 MPI tasks x 1 OpenMP threads

MPI task timing breakdown:
Section |  min time  |  avg time  |  max time  |%varavg| %total
---------------------------------------------------------------
Pair    | 266.16     | 267.71     | 269.26     |   9.5 | 33.28
Neigh   | 11.504     | 11.504     | 11.504     |   0.0 |  1.43
Comm    | 34.571     | 36.275     | 37.978     |  28.3 |  4.51
Output  | 0.65529    | 0.65532    | 0.65534    |   0.0 |  0.08
Modify  | 428.05     | 428.19     | 428.32     |   0.7 | 53.22
Other   |            | 60.17      |            |       |  7.48

Nlocal:         2500.5 ave        2501 max        2500 min
Histogram: 1 0 0 0 0 0 0 0 0 1
Nghost:            4.5 ave           5 max           4 min
Histogram: 1 0 0 0 0 0 0 0 0 1
Neighs:         3011.5 ave        3012 max        3011 min
Histogram: 1 0 0 0 0 0 0 0 0 1

Total # of neighbors = 6023
Ave neighs/atom = 1.2043591
Neighbor list builds = 166
Dangerous builds = 0
  using 1 OpenMP thread(s) per MPI task
Lattice spacing in x,y,z = 3.06 3.06 3.06
Created orthogonal box = (-4590 -100 -100) to (4590 100 100)
  2 by 1 by 1 MPI processor grid
Created 3000 atoms
  using lattice units in orthogonal box = (-4590 -100 -100) to (4590 100 100)
  create_atoms CPU = 0.002 seconds
Lattice spacing in x,y,z = 3 3 3
Created 2001 atoms
  using lattice units in orthogonal box = (-4590 -100 -100) to (4590 100 100)
  create_atoms CPU = 0.002 seconds
Setting atom values ...
  3000 settings made for diameter
Setting atom values ...
  3000 settings made for mass
Setting atom values ...
  2001 settings made for diameter
Setting atom values ...
  2001 settings made for mass
3000 atoms in group substrate
2001 atoms in group slider1
  1 rigid bodies with 2001 atoms
Generated 0 of 1 mixed pair_coeff terms from geometric mixing rule
Neighbor list info ...
  update every 1 steps, delay 0 steps, check yes
  max neighbors/atom: 2000, page size: 100000
  master list distance cutoff = 3.1
  ghost atom cutoff = 3.1
  binsize = 1.55, bins = 5923 130 130
  1 neighbor lists, perpetual/occasional/extra = 1 0 0
  (1) pair granular, perpetual
      attributes: half, newton on, size, history
      pair build: half/size/bin/newton
      stencil: half/bin/3d
      bin: standard
Setting up Verlet run ...
  Unit style    : micro
  Current step  : 0
  Time step     : 1e-05
Per MPI rank memory allocation (min/avg/max) = 219.3 | 219.3 | 219.3 Mbytes
   Step           Lx             Ly             Lz           Press           Pxx            Pyy            Pzz           KinEng         PotEng          Temp          c_1[1]         c_1[2]         c_1[3]    
         0   9180           200            200            0              0              0              0              0              0              0              1.1971759e-13  0              6            
    100000   9180           200            200            0.0044412766  -7.0395884e-35  0              0.01332383     1175064        0              5.6739634e+10  1.1971759e-13  0              3.3239851    
    200000   9180           200            200            0.0016034697  -7.0395921e-35  0              0.004810409    295023.87      0              1.4245647e+10  1.1971759e-13  0              3.0695566    
    300000   9180           200            200            0.00016960313  7.0396543e-35  0              0.00050880938  6548.7088      0              3.1621371e+08  1.1971759e-13  0              3.0447375    
    400000   9180           200            200            0.02895228     0.0032449932   0              0.083611847    2084.7992      0              1.0066749e+08  1.1971759e-13  0              2.9907148    
    500000   9180           200            200            0.00060181293  1.4597325e-05  0              0.0017908415   384.42881      0              18562691       1.1971759e-13  0              2.9987072    
    600000   9180           200            200            0.0078011932   0.00046448315  0              0.022939096    141.0053       0              6808641.4      1.1971759e-13  0              2.995136     
    700000   9180           200            200            0.0065128533   0.00036046261  0              0.019178097    0.0018630065   0              89.957918      1.1971759e-13  0              2.9955727    
    800000   9180           200            200            0.005889184    0.00035144756  0              0.017316104    0.66115406     0              31924.763      1.1971759e-13  0              2.995797     
    900000   9180           200            200            0.0056662039   0.00034847356  0              0.016650138    0.28312721     0              13671.2        1.1971759e-13  0              2.995879     
   1000000   9180           200            200            0.0055905534   0.00034739416  0              0.016424266    0.071615905    0              3458.0758      1.1971759e-13  0              2.995907     
   1100000   9180           200            200            0.0055664768   0.00034704422  0              0.016352386    0.01413778     0              682.66281      1.1971759e-13  0              2.9959159    
   1200000   9180           200            200            0.0055594819   0.00034694258  0              0.016331503    0.0023680666   0              114.34546      1.1971759e-13  0              2.9959184    
   1300000   9180           200            200            0.0055577358   0.00034691752  0              0.01632629     0.00034805259  0              16.806214      1.1971759e-13  0              2.9959191    
   1400000   9180           200            200            0.0055574324   0.00034691335  0              0.016325384    4.5413739e-05  0              2.1928669      1.1971759e-13  0              2.9959192    
   1500000   9180           200            200            0.0055574508   0.00034691376  0              0.016325439    5.2421081e-06  0              0.25312264     1.1971759e-13  0              2.9959192    
   1600000   9180           200            200            0.0055575047   0.0003469146   0              0.016325599    5.2438937e-07  0              0.025320886    1.1971759e-13  0              2.9959191    
   1700000   9180           200            200            0.0055575405   0.00034691515  0              0.016325706    4.3189704e-08  0              0.0020854762   1.1971759e-13  0              2.9959191    
   1800000   9180           200            200            0.0055575587   0.00034691542  0              0.016325761    2.5649799e-09  0              0.0001238537   1.1971759e-13  0              2.9959191    
   1900000   9180           200            200            0.0055575669   0.00034691555  0              0.016325785    6.6220702e-11  0              3.1975607e-06  1.1971759e-13  0              2.9959191    
   2000000   9180           200            200            0.0055575703   0.0003469156   0              0.016325795    1.0127828e-12  0              4.8903657e-08  1.1971759e-13  0              2.9959191    
   2100000   9180           200            200            0.0055575715   0.00034691562  0              0.016325799    3.2675033e-12  0              1.5777604e-07  1.1971759e-13  0              2.9959191    
   2200000   9180           200            200            0.005557572    0.00034691562  0              0.0163258      1.3228003e-12  0              6.3873291e-08  1.1971759e-13  0              2.9959191    
   2300000   9180           200            200            0.0055575722   0.00034691563  0              0.016325801    3.3154327e-13  0              1.6009038e-08  1.1971759e-13  0              2.9959191    
   2400000   9180           200            200            0.0055575722   0.00034691563  0              0.016325801    6.5040388e-14  0              3.1405676e-09  1.1971759e-13  0              2.9959191    
   2500000   9180           200            200            0.0055575722   0.00034691563  0              0.016325801    1.086683e-14   0              5.2472032e-10  1.1971759e-13  0              2.9959191    
   2600000   9180           200            200            0.0055575722   0.00034691563  0              0.016325801    1.5823356e-15  0              7.6405324e-11  1.1971759e-13  0              2.9959191    
   2700000   9180           200            200            0.0055575722   0.00034691563  0              0.016325801    2.0639383e-16  0              9.9660193e-12  1.1971759e-13  0              2.9959191    
   2800000   9180           200            200            0.0055575722   0.00034691563  0              0.016325801    2.4660991e-17  0              1.190791e-12   1.1971759e-13  0              2.9959191    
   2900000   9180           200            200            0.0055575722   0.00034691563  0              0.016325801    6.799116e-20   0              3.2830498e-15  1.1971759e-13  0              2.9959191    
   3000000   9180           200            200            0.0055575722   0.00034691563  0              0.016325801    1.793524e-18   0              8.6602856e-14  1.1971759e-13  0              2.9959191    
Loop time of 806.667 on 2 procs for 3000000 steps with 5001 atoms

Performance: 3213223.044 ns/day, 0.000 hours/ns, 3719.008 timesteps/s
100.0% CPU use with 2 MPI tasks x 1 OpenMP threads

MPI task timing breakdown:
Section |  min time  |  avg time  |  max time  |%varavg| %total
---------------------------------------------------------------
Pair    | 267.14     | 267.75     | 268.36     |   3.7 | 33.19
Neigh   | 11.451     | 11.451     | 11.451     |   0.0 |  1.42
Comm    | 36.07      | 36.586     | 37.103     |   8.5 |  4.54
Output  | 0.65376    | 0.65377    | 0.65379    |   0.0 |  0.08
Modify  | 429.19     | 429.29     | 429.38     |   0.5 | 53.22
Other   |            | 60.94      |            |       |  7.55

Nlocal:         2500.5 ave        2501 max        2500 min
Histogram: 1 0 0 0 0 0 0 0 0 1
Nghost:            4.5 ave           5 max           4 min
Histogram: 1 0 0 0 0 0 0 0 0 1
Neighs:         3026.5 ave        3027 max        3026 min
Histogram: 1 0 0 0 0 0 0 0 0 1

Total # of neighbors = 6053
Ave neighs/atom = 1.2103579
Neighbor list builds = 166
Dangerous builds = 0
  using 1 OpenMP thread(s) per MPI task
Lattice spacing in x,y,z = 3.07 3.07 3.07
Created orthogonal box = (-4605 -100 -100) to (4605 100 100)
  2 by 1 by 1 MPI processor grid
Created 3000 atoms
  using lattice units in orthogonal box = (-4605 -100 -100) to (4605 100 100)
  create_atoms CPU = 0.002 seconds
Lattice spacing in x,y,z = 3 3 3
Created 2001 atoms
  using lattice units in orthogonal box = (-4605 -100 -100) to (4605 100 100)
  create_atoms CPU = 0.001 seconds
Setting atom values ...
  3000 settings made for diameter
Setting atom values ...
  3000 settings made for mass
Setting atom values ...
  2001 settings made for diameter
Setting atom values ...
  2001 settings made for mass
3000 atoms in group substrate
2001 atoms in group slider1
  1 rigid bodies with 2001 atoms
Generated 0 of 1 mixed pair_coeff terms from geometric mixing rule
Neighbor list info ...
  update every 1 steps, delay 0 steps, check yes
  max neighbors/atom: 2000, page size: 100000
  master list distance cutoff = 3.1
  ghost atom cutoff = 3.1
  binsize = 1.55, bins = 5942 130 130
  1 neighbor lists, perpetual/occasional/extra = 1 0 0
  (1) pair granular, perpetual
      attributes: half, newton on, size, history
      pair build: half/size/bin/newton
      stencil: half/bin/3d
      bin: standard
Setting up Verlet run ...
  Unit style    : micro
  Current step  : 0
  Time step     : 1e-05
Per MPI rank memory allocation (min/avg/max) = 219.9 | 219.9 | 219.9 Mbytes
   Step           Lx             Ly             Lz           Press           Pxx            Pyy            Pzz           KinEng         PotEng          Temp          c_1[1]         c_1[2]         c_1[3]    
         0   9210           200            200            0              0              0              0              0              0              0              1.1971759e-13  0              6            
    100000   9210           200            200            0.004426154    1.7541708e-35  0              0.013278462    1174801.9      0              5.6726978e+10  1.1971759e-13  0              3.3240934    
    200000   9210           200            200            0.0015966293   4.3854168e-36  0              0.0047898878   294557.07      0              1.4223107e+10  1.1971759e-13  0              3.0697581    
    300000   9210           200            200            0.00016654174  4.6731724e-40  0              0.00049962521  6368.1344      0              3.0749442e+08  1.1971759e-13  0              3.0447736    
    400000   9210           200            200            0.028280736    0.0038401293   0              0.081002079    3129.9976      0              1.5113638e+08  1.1971759e-13  0              2.9908059    
    500000   9210           200            200            0.00050563421  0.00014142767  0              0.001375475    119.76686      0              5783112.8      1.1971759e-13  0              2.9988277    
    600000   9210           200            200            0.0084110146   0.00092755436  0              0.024305489    12.163163      0              587315.62      1.1971759e-13  0              2.9949573    
    700000   9210           200            200            0.0063229523   0.00080440049  0              0.018164456    33.589078      0              1621896.4      1.1971759e-13  0              2.9956454    
    800000   9210           200            200            0.0056707364   0.00070695693  0              0.016305252    8.0125055      0              386895.22      1.1971759e-13  0              2.9958724    
    900000   9210           200            200            0.0055894089   0.00072131574  0              0.016046911    0.66820389     0              32265.175      1.1971759e-13  0              2.9959038    
   1000000   9210           200            200            0.00562117     0.00072325336  0              0.016140257    0.0072971128   0              352.35146      1.1971759e-13  0              2.9958913    
   1100000   9210           200            200            0.0056508077   0.00072493781  0              0.016227485    0.0037415338   0              180.66528      1.1971759e-13  0              2.9958802    
   1200000   9210           200            200            0.0056634106   0.00072562855  0              0.016264603    0.0021376507   0              103.2195       1.1971759e-13  0              2.9958755    
   1300000   9210           200            200            0.0056665949   0.00072579892  0              0.016273986    0.00032640337  0              15.760851      1.1971759e-13  0              2.9958743    
   1400000   9210           200            200            0.0056667132   0.00072580386  0              0.016274336    1.6517043e-05  0              0.79754888     1.1971759e-13  0              2.9958743    
   1500000   9210           200            200            0.0056663533   0.00072578385  0              0.016273276    1.2994303e-08  0              0.00062744837  1.1971759e-13  0              2.9958744    
   1600000   9210           200            200            0.005666133    0.00072577181  0              0.016272627    3.7202119e-07  0              0.017963572    1.1971759e-13  0              2.9958745    
   1700000   9210           200            200            0.005666056    0.00072576766  0              0.0162724      1.0976824e-07  0              0.0053003155   1.1971759e-13  0              2.9958745    
   1800000   9210           200            200            0.0056660419   0.00072576691  0              0.016272359    1.1332824e-08  0              0.00054722151  1.1971759e-13  0              2.9958745    
   1900000   9210           200            200            0.0056660441   0.00072576705  0              0.016272365    2.5765381e-10  0              1.244118e-05   1.1971759e-13  0              2.9958745    
   2000000   9210           200            200            0.0056660473   0.00072576722  0              0.016272375    2.6607529e-11  0              1.2847824e-06  1.1971759e-13  0              2.9958745    
   2100000   9210           200            200            0.0056660488   0.0007257673   0              0.016272379    2.5850359e-11  0              1.2482213e-06  1.1971759e-13  0              2.9958745    
   2200000   9210           200            200            0.0056660493   0.00072576733  0              0.01627238     4.8266316e-12  0              2.3306076e-07  1.1971759e-13  0              2.9958745    
   2300000   9210           200            200            0.0056660493   0.00072576733  0              0.016272381    3.2123952e-13  0              1.5511507e-08  1.1971759e-13  0              2.9958745    
   2400000   9210           200            200            0.0056660493   0.00072576733  0              0.01627238     6.9524613e-16  0              3.3570947e-11  1.1971759e-13  0              2.9958745    
   2500000   9210           200            200            0.0056660492   0.00072576733  0              0.01627238     3.7770416e-15  0              1.8237982e-10  1.1971759e-13  0              2.9958745    
   2600000   9210           200            200            0.0056660492   0.00072576733  0              0.01627238     1.468492e-15   0              7.0908224e-11  1.1971759e-13  0              2.9958745    
   2700000   9210           200            200            0.0056660492   0.00072576733  0              0.01627238     1.8796741e-16  0              9.0762735e-12  1.1971759e-13  0              2.9958745    
   2800000   9210           200            200            0.0056660492   0.00072576733  0              0.01627238     2.4881378e-17  0              1.2014327e-12  1.1971759e-13  0              2.9958745    
   2900000   9210           200            200            0.0056660492   0.00072576733  0              0.01627238     1.4378214e-17  0              6.9427248e-13  1.1971759e-13  0              2.9958745    
   3000000   9210           200            200            0.0056660492   0.00072576732  0              0.01627238     8.5957821e-18  0              4.1505956e-13  1.1971759e-13  0              2.9958745    
Loop time of 804.895 on 2 procs for 3000000 steps with 5001 atoms

Performance: 3220295.422 ns/day, 0.000 hours/ns, 3727.194 timesteps/s
99.9% CPU use with 2 MPI tasks x 1 OpenMP threads

MPI task timing breakdown:
Section |  min time  |  avg time  |  max time  |%varavg| %total
---------------------------------------------------------------
Pair    | 267.98     | 268.52     | 269.05     |   3.3 | 33.36
Neigh   | 11.548     | 11.549     | 11.55      |   0.0 |  1.43
Comm    | 36.126     | 36.575     | 37.024     |   7.4 |  4.54
Output  | 0.67169    | 0.6717     | 0.67172    |   0.0 |  0.08
Modify  | 428.12     | 428.43     | 428.73     |   1.5 | 53.23
Other   |            | 59.16      |            |       |  7.35

Nlocal:         2500.5 ave        2501 max        2500 min
Histogram: 1 0 0 0 0 0 0 0 0 1
Nghost:            4.5 ave           5 max           4 min
Histogram: 1 0 0 0 0 0 0 0 0 1
Neighs:         3008.5 ave        3009 max        3008 min
Histogram: 1 0 0 0 0 0 0 0 0 1

Total # of neighbors = 6017
Ave neighs/atom = 1.2031594
Neighbor list builds = 166
Dangerous builds = 0
  using 1 OpenMP thread(s) per MPI task
Lattice spacing in x,y,z = 3.08 3.08 3.08
Created orthogonal box = (-4620 -100 -100) to (4620 100 100)
  2 by 1 by 1 MPI processor grid
Created 3000 atoms
  using lattice units in orthogonal box = (-4620 -100 -100) to (4620 100 100)
  create_atoms CPU = 0.002 seconds
Lattice spacing in x,y,z = 3 3 3
Created 2001 atoms
  using lattice units in orthogonal box = (-4620 -100 -100) to (4620 100 100)
  create_atoms CPU = 0.002 seconds
Setting atom values ...
  3000 settings made for diameter
Setting atom values ...
  3000 settings made for mass
Setting atom values ...
  2001 settings made for diameter
Setting atom values ...
  2001 settings made for mass
3000 atoms in group substrate
2001 atoms in group slider1
  1 rigid bodies with 2001 atoms
Generated 0 of 1 mixed pair_coeff terms from geometric mixing rule
Neighbor list info ...
  update every 1 steps, delay 0 steps, check yes
  max neighbors/atom: 2000, page size: 100000
  master list distance cutoff = 3.1
  ghost atom cutoff = 3.1
  binsize = 1.55, bins = 5962 130 130
  1 neighbor lists, perpetual/occasional/extra = 1 0 0
  (1) pair granular, perpetual
      attributes: half, newton on, size, history
      pair build: half/size/bin/newton
      stencil: half/bin/3d
      bin: standard
Setting up Verlet run ...
  Unit style    : micro
  Current step  : 0
  Time step     : 1e-05
Per MPI rank memory allocation (min/avg/max) = 220.6 | 220.6 | 220.6 Mbytes
   Step           Lx             Ly             Lz           Press           Pxx            Pyy            Pzz           KinEng         PotEng          Temp          c_1[1]         c_1[2]         c_1[3]    
         0   9240           200            200            0              0              0              0              0              0              0              1.1971759e-13  0              6            
    100000   9240           200            200            0.0044122913  -8.7423479e-36  0              0.013236874    1175008.5      0              5.6736953e+10  1.1971759e-13  0              3.3239973    
    200000   9240           200            200            0.001592705    1.748475e-35   0              0.0047781149   294923.16      0              1.4240784e+10  1.1971759e-13  0              3.0695862    
    300000   9240           200            200            0.00016804938  2.6227072e-35  0              0.00050414815  6515.9379      0              3.1463132e+08  1.1971759e-13  0              3.0447278    
    400000   9240           200            200            0.018820169   -0.026257767    0              0.082718275    2284.1259      0              1.1029226e+08  1.1971759e-13  0              2.9907157    
    500000   9240           200            200            0.0004999943  -2.9974411e-05  0              0.0015299573   258.7641       0              12494792       1.1971759e-13  0              2.9987595    
    600000   9240           200            200            0.006142681   -0.0049063571   0              0.0233344      99.627623      0              4810661.4      1.1971759e-13  0              2.9950526    
    700000   9240           200            200            0.0042093563  -0.0038320939   0              0.016460163    58.706127      0              2834708.8      1.1971759e-13  0              2.9958524    
    800000   9240           200            200            0.0039614052  -0.0038034447   0              0.01568766     5.6547579      0              273048.02      1.1971759e-13  0              2.9959468    
    900000   9240           200            200            0.0042187341  -0.0038332099   0              0.016489412    0.48145847     0              23247.906      1.1971759e-13  0              2.9958433    
   1000000   9240           200            200            0.0040937626  -0.0038189579   0              0.016100246    0.027565492    0              1331.0389      1.1971759e-13  0              2.9958938    
   1100000   9240           200            200            0.0041474135  -0.0038251967   0              0.016267437    0.0005759697   0              27.811516      1.1971759e-13  0              2.9958719    
   1200000   9240           200            200            0.004126387   -0.0038227537   0              0.016201915    2.9366411e-05  0              1.4179989      1.1971759e-13  0              2.9958805    
   1300000   9240           200            200            0.0041339767  -0.0038236421   0              0.016225572    4.947118e-05   0              2.3887862      1.1971759e-13  0              2.9958774    
   1400000   9240           200            200            0.0041314553  -0.0038233456   0              0.016217711    1.7828957e-05  0              0.86089652     1.1971759e-13  0              2.9958784    
   1500000   9240           200            200            0.0041322112  -0.0038234352   0              0.016220069    4.1122698e-06  0              0.19856679     1.1971759e-13  0              2.9958781    
   1600000   9240           200            200            0.0041320175  -0.0038234119   0              0.016219464    7.4052811e-07  0              0.035757452    1.1971759e-13  0              2.9958782    
   1700000   9240           200            200            0.0041320524  -0.0038234163   0              0.016219573    1.1122709e-07  0              0.0053707581   1.1971759e-13  0              2.9958782    
   1800000   9240           200            200            0.0041320538  -0.0038234163   0              0.016219578    1.4217685e-08  0              0.00068652111  1.1971759e-13  0              2.9958782    
   1900000   9240           200            200            0.0041320481  -0.0038234157   0              0.01621956     1.5338299e-09  0              7.4063158e-05  1.1971759e-13  0              2.9958782    
   2000000   9240           200            200            0.0041320519  -0.0038234161   0              0.016219572    1.3368453e-10  0              6.4551475e-06  1.1971759e-13  0              2.9958782    
   2100000   9240           200            200            0.00413205    -0.0038234159   0              0.016219566    8.3069629e-12  0              4.0111351e-07  1.1971759e-13  0              2.9958782    
   2200000   9240           200            200            0.0041320509  -0.003823416    0              0.016219569    2.2781671e-13  0              1.1000454e-08  1.1971759e-13  0              2.9958782    
[...]
   2900000   11910          200            200            0.0038250123  -0.0011060744   0              0.012581111    5.96927e-19    0              2.8823468e-14  1.1971759e-13  0              2.9953231    
   3000000   11910          200            200            0.0038250123  -0.0011060744   0              0.012581111    3.6384515e-18  0              1.756878e-13   1.1971759e-13  0              2.9953231    
Loop time of 717.824 on 2 procs for 3000000 steps with 5001 atoms

Performance: 3610913.366 ns/day, 0.000 hours/ns, 4179.298 timesteps/s
100.0% CPU use with 2 MPI tasks x 1 OpenMP threads

MPI task timing breakdown:
Section |  min time  |  avg time  |  max time  |%varavg| %total
---------------------------------------------------------------
Pair    | 179.75     | 181.38     | 183.02     |  12.1 | 25.27
Neigh   | 14.599     | 14.603     | 14.608     |   0.1 |  2.03
Comm    | 37.984     | 39.708     | 41.433     |  27.4 |  5.53
Output  | 0.64917    | 0.64919    | 0.64921    |   0.0 |  0.09
Modify  | 424.46     | 424.52     | 424.58     |   0.3 | 59.14
Other   |            | 56.96      |            |       |  7.94

Nlocal:         2500.5 ave        2501 max        2500 min
Histogram: 1 0 0 0 0 0 0 0 0 1
Nghost:            2.5 ave           3 max           2 min
Histogram: 1 0 0 0 0 0 0 0 0 1
Neighs:         1396.5 ave        1397 max        1396 min
Histogram: 1 0 0 0 0 0 0 0 0 1

Total # of neighbors = 2793
Ave neighs/atom = 0.5584883
Neighbor list builds = 164
Dangerous builds = 0
  using 1 OpenMP thread(s) per MPI task
Lattice spacing in x,y,z = 3.98 3.98 3.98
Created orthogonal box = (-5970 -100 -100) to (5970 100 100)
  2 by 1 by 1 MPI processor grid
Created 3000 atoms
  using lattice units in orthogonal box = (-5970 -100 -100) to (5970 100 100)
  create_atoms CPU = 0.001 seconds
Lattice spacing in x,y,z = 3 3 3
Created 2001 atoms
  using lattice units in orthogonal box = (-5970 -100 -100) to (5970 100 100)
  create_atoms CPU = 0.002 seconds
Setting atom values ...
  3000 settings made for diameter
Setting atom values ...
  3000 settings made for mass
Setting atom values ...
  2001 settings made for diameter
Setting atom values ...
  2001 settings made for mass
3000 atoms in group substrate
2001 atoms in group slider1
  1 rigid bodies with 2001 atoms
Generated 0 of 1 mixed pair_coeff terms from geometric mixing rule
Neighbor list info ...
  update every 1 steps, delay 0 steps, check yes
  max neighbors/atom: 2000, page size: 100000
  master list distance cutoff = 3.1
  ghost atom cutoff = 3.1
  binsize = 1.55, bins = 7704 130 130
  1 neighbor lists, perpetual/occasional/extra = 1 0 0
  (1) pair granular, perpetual
      attributes: half, newton on, size, history
      pair build: half/size/bin/newton
      stencil: half/bin/3d
      bin: standard
Setting up Verlet run ...
  Unit style    : micro
  Current step  : 0
  Time step     : 1e-05
Per MPI rank memory allocation (min/avg/max) = 281.2 | 281.2 | 281.2 Mbytes
   Step           Lx             Ly             Lz           Press           Pxx            Pyy            Pzz           KinEng         PotEng          Temp          c_1[1]         c_1[2]         c_1[3]    
         0   11940          200            200            0              0              0              0              0              0              0              1.1971759e-13  0              6            
    100000   11940          200            200            0.0034026532   3.3827209e-35  0              0.01020796     1168864.1      0              5.6440266e+10  1.1971759e-13  0              3.3265114    
    200000   11940          200            200            0.0012040618   2.7061907e-35  0              0.0036121855   284329.89      0              1.3729273e+10  1.1971759e-13  0              3.0740873    
    300000   11940          200            200            8.4404956e-05 -1.8401995e-33  0              0.00025321487  2879.0806      0              1.390205e+08   1.1971759e-13  0              3.0452936    
    400000   11940          200            200            0.0011701368  -4.5035256e-05  0              0.0035554457   18331.329      0              8.8515428e+08  1.1971759e-13  0              2.9977991    
    500000   11940          200            200            0.008683365    0.0042458064   0              0.021804289    2139.9861      0              1.0333227e+08  1.1971759e-13  0              2.9939374    
    600000   11940          200            200            0.004245369    0.0023328864   0              0.010403221    356.22901      0              17201024       1.1971759e-13  0              2.9957822    
    700000   11940          200            200            0.0055995724   0.0022470074   0              0.01455171     0.71772559     0              34656.4        1.1971759e-13  0              2.9950284    
    800000   11940          200            200            0.0050003582   0.002184766    0              0.012816309    6.6262183      0              319956.37      1.1971759e-13  0              2.9953374    
    900000   11940          200            200            0.0048393494   0.0021646666   0              0.012353382    0.44352764     0              21416.362      1.1971759e-13  0              2.9954208    
   1000000   11940          200            200            0.0048781901   0.0021703108   0              0.01246426     0.030610473    0              1478.0702      1.1971759e-13  0              2.9953996    
   1100000   11940          200            200            0.0049096197   0.0021746031   0              0.012554256    0.018051426    0              871.63874      1.1971759e-13  0              2.9953831    
   1200000   11940          200            200            0.004912454    0.0021749608   0              0.012562401    0.00011825449  0              5.7100862      1.1971759e-13  0              2.9953817    
   1300000   11940          200            200            0.0049089566   0.002174483    0              0.012552387    0.00023271059  0              11.236762      1.1971759e-13  0              2.9953835    
   1400000   11940          200            200            0.0049076815   0.0021743125   0              0.012548732    2.8791465e-05  0              1.3902368      1.1971759e-13  0              2.9953842    
   1500000   11940          200            200            0.0049078245   0.002174333    0              0.01254914     4.5452803e-07  0              0.021947532    1.1971759e-13  0              2.9953841    
   1600000   11940          200            200            0.0049080323   0.0021743612   0              0.012549736    7.9760602e-07  0              0.03851354     1.1971759e-13  0              2.995384     
   1700000   11940          200            200            0.0049080664   0.0021743657   0              0.012549833    1.9087898e-08  0              0.00092168628  1.1971759e-13  0              2.995384     
   1800000   11940          200            200            0.0049080472   0.002174363    0              0.012549778    7.1463473e-09  0              0.00034507154  1.1971759e-13  0              2.995384     
   1900000   11940          200            200            0.0049080377   0.0021743618   0              0.012549751    1.6157039e-09  0              7.8016559e-05  1.1971759e-13  0              2.995384     
   2000000   11940          200            200            0.0049080378   0.0021743618   0              0.012549752    1.1208842e-12  0              5.4123486e-08  1.1971759e-13  0              2.995384     
   2100000   11940          200            200            0.0049080391   0.002174362    0              0.012549755    3.2128049e-11  0              1.5513485e-06  1.1971759e-13  0              2.995384     
   2200000   11940          200            200            0.0049080395   0.002174362    0              0.012549756    1.7139544e-12  0              8.2760725e-08  1.1971759e-13  0              2.995384     
   2300000   11940          200            200            0.0049080394   0.002174362    0              0.012549756    1.8077641e-13  0              8.729046e-09   1.1971759e-13  0              2.995384     
   2400000   11940          200            200            0.0049080393   0.002174362    0              0.012549756    8.0974409e-14  0              3.9099644e-09  1.1971759e-13  0              2.995384     
   2500000   11940          200            200            0.0049080393   0.002174362    0              0.012549756    2.7725055e-16  0              1.3387437e-11  1.1971759e-13  0              2.995384     
   2600000   11940          200            200            0.0049080393   0.002174362    0              0.012549756    1.1847546e-15  0              5.7207558e-11  1.1971759e-13  0              2.995384     
   2700000   11940          200            200            0.0049080393   0.002174362    0              0.012549756    1.3977318e-16  0              6.7491468e-12  1.1971759e-13  0              2.995384     
   2800000   11940          200            200            0.0049080393   0.002174362    0              0.012549756    2.8183404e-18  0              1.3608757e-13  1.1971759e-13  0              2.995384     
   2900000   11940          200            200            0.0049080393   0.002174362    0              0.012549756    3.3493374e-18  0              1.6172752e-13  1.1971759e-13  0              2.995384     
   3000000   11940          200            200            0.0049080393   0.002174362    0              0.012549756    1.9186784e-19  0              9.2646115e-15  1.1971759e-13  0              2.995384     
Loop time of 718.606 on 2 procs for 3000000 steps with 5001 atoms

Performance: 3606982.807 ns/day, 0.000 hours/ns, 4174.749 timesteps/s
99.9% CPU use with 2 MPI tasks x 1 OpenMP threads

MPI task timing breakdown:
Section |  min time  |  avg time  |  max time  |%varavg| %total
---------------------------------------------------------------
Pair    | 178.35     | 179.8      | 181.24     |  10.8 | 25.02
Neigh   | 14.757     | 14.76      | 14.763     |   0.1 |  2.05
Comm    | 38.231     | 39.831     | 41.431     |  25.4 |  5.54
Output  | 0.65364    | 0.65367    | 0.65369    |   0.0 |  0.09
Modify  | 426.6      | 426.62     | 426.65     |   0.1 | 59.37
Other   |            | 56.94      |            |       |  7.92

Nlocal:         2500.5 ave        2501 max        2500 min
Histogram: 1 0 0 0 0 0 0 0 0 1
Nghost:            2.5 ave           3 max           2 min
Histogram: 1 0 0 0 0 0 0 0 0 1
Neighs:         1396.5 ave        1397 max        1396 min
Histogram: 1 0 0 0 0 0 0 0 0 1

Total # of neighbors = 2793
Ave neighs/atom = 0.5584883
Neighbor list builds = 164
Dangerous builds = 0
  using 1 OpenMP thread(s) per MPI task
Lattice spacing in x,y,z = 3.99 3.99 3.99
Created orthogonal box = (-5985 -100 -100) to (5985 100 100)
  2 by 1 by 1 MPI processor grid
Created 3000 atoms
  using lattice units in orthogonal box = (-5985 -100 -100) to (5985 100 100)
  create_atoms CPU = 0.001 seconds
Lattice spacing in x,y,z = 3 3 3
Created 2001 atoms
  using lattice units in orthogonal box = (-5985 -100 -100) to (5985 100 100)
  create_atoms CPU = 0.001 seconds
Setting atom values ...
  3000 settings made for diameter
Setting atom values ...
  3000 settings made for mass
Setting atom values ...
  2001 settings made for diameter
Setting atom values ...
  2001 settings made for mass
3000 atoms in group substrate
2001 atoms in group slider1
  1 rigid bodies with 2001 atoms
Generated 0 of 1 mixed pair_coeff terms from geometric mixing rule
Neighbor list info ...
  update every 1 steps, delay 0 steps, check yes
  max neighbors/atom: 2000, page size: 100000
  master list distance cutoff = 3.1
  ghost atom cutoff = 3.1
  binsize = 1.55, bins = 7723 130 130
  1 neighbor lists, perpetual/occasional/extra = 1 0 0
  (1) pair granular, perpetual
      attributes: half, newton on, size, history
      pair build: half/size/bin/newton
      stencil: half/bin/3d
      bin: standard
Setting up Verlet run ...
  Unit style    : micro
  Current step  : 0
  Time step     : 1e-05
Per MPI rank memory allocation (min/avg/max) = 281.9 | 281.9 | 281.9 Mbytes
   Step           Lx             Ly             Lz           Press           Pxx            Pyy            Pzz           KinEng         PotEng          Temp          c_1[1]         c_1[2]         c_1[3]    
         0   11970          200            200            0              0              0              0              0              0              0              1.1971759e-13  0              6            
    100000   11970          200            200            0.003393687    2.9480215e-40  0              0.010181061    1168650.5      0              5.6429952e+10  1.1971759e-13  0              3.3265502    
    200000   11970          200            200            0.001200089    5.3988305e-35  0              0.0036002671   283982.13      0              1.3712481e+10  1.1971759e-13  0              3.0741702    
    300000   11970          200            200            8.2507563e-05  5.3988051e-35  0              0.00024752269  2770.1607      0              1.3376115e+08  1.1971759e-13  0              3.0452472    
    400000   11970          200            200            0.00085226174 -7.3477203e-05  0              0.0026302624   17655.042      0              8.524988e+08   1.1971759e-13  0              2.9981502    
    500000   11970          200            200            0.0047344907  -0.0026255563   0              0.016829029    2906.6661      0              1.403525e+08   1.1971759e-13  0              2.9946135    
    600000   11970          200            200            0.0038772753  -0.0028686174   0              0.014500443    365.37591      0              17642695       1.1971759e-13  0              2.9949535    
    700000   11970          200            200            0.0036873623  -0.0022827924   0              0.013344879    46.907885      0              2265013.9      1.1971759e-13  0              2.9951799    
    800000   11970          200            200            0.0031990888  -0.002216332    0              0.011813598    0.031488705    0              1520.4769      1.1971759e-13  0              2.9954593    
    900000   11970          200            200            0.0034437135  -0.0022549052   0              0.012586046    0.94139105     0              45456.405      1.1971759e-13  0              2.9953129    
   1000000   11970          200            200            0.0034472759  -0.0022551571   0              0.012596985    0.044697921    0              2158.3026      1.1971759e-13  0              2.9953118    
   1100000   11970          200            200            0.0034131768  -0.0022503475   0              0.012489878    0.0063038919   0              304.39238      1.1971759e-13  0              2.9953316    
   1200000   11970          200            200            0.0034209171  -0.0022514855   0              0.012514237    0.0022503244   0              108.66011      1.1971759e-13  0              2.995327     
   1300000   11970          200            200            0.003423634   -0.0022518633   0              0.012522765    5.292137e-07   0              0.025553836    1.1971759e-13  0              2.9953254    
   1400000   11970          200            200            0.0034219417  -0.0022516205   0              0.012517446    3.8383627e-05  0              1.853408       1.1971759e-13  0              2.9953264    
   1500000   11970          200            200            0.0034219833  -0.0022516281   0              0.012517578    2.5135503e-06  0              0.12137035     1.1971759e-13  0              2.9953264    
   1600000   11970          200            200            0.0034222006  -0.0022516589   0              0.012518261    2.0359463e-07  0              0.009830856    1.1971759e-13  0              2.9953263    
   1700000   11970          200            200            0.0034221428  -0.0022516505   0              0.012518079    1.0319705e-07  0              0.0049830164   1.1971759e-13  0              2.9953263    
   1800000   11970          200            200            0.0034221275  -0.0022516484   0              0.012518031    2.7401617e-10  0              1.323126e-05   1.1971759e-13  0              2.9953263    
   1900000   11970          200            200            0.0034221389  -0.00225165     0              0.012518067    1.5335229e-09  0              7.4048332e-05  1.1971759e-13  0              2.9953263    
   2000000   11970          200            200            0.0034221382  -0.0022516499   0              0.012518065    1.3517956e-10  0              6.527337e-06   1.1971759e-13  0              2.9953263    
   2100000   11970          200            200            0.0034221369  -0.0022516497   0              0.01251806     6.0837933e-12  0              2.9376461e-07  1.1971759e-13  0              2.9953263    
   2200000   11970          200            200            0.0034221373  -0.0022516498   0              0.012518062    4.6393489e-12  0              2.2401755e-07  1.1971759e-13  0              2.9953263    
   2300000   11970          200            200            0.0034221374  -0.0022516498   0              0.012518062    3.4657384e-14  0              1.6734811e-09  1.1971759e-13  0              2.9953263    
   2400000   11970          200            200            0.0034221373  -0.0022516498   0              0.012518062    5.9861466e-14  0              2.890496e-09   1.1971759e-13  0              2.9953263    
   2500000   11970          200            200            0.0034221373  -0.0022516498   0              0.012518062    7.0638153e-15  0              3.4108636e-10  1.1971759e-13  0              2.9953263    
   2600000   11970          200            200            0.0034221373  -0.0022516498   0              0.012518062    1.3351352e-16  0              6.4468901e-12  1.1971759e-13  0              2.9953263    
   2700000   11970          200            200            0.0034221373  -0.0022516498   0              0.012518062    1.9864361e-16  0              9.5917891e-12  1.1971759e-13  0              2.9953263    
   2800000   11970          200            200            0.0034221373  -0.0022516498   0              0.012518062    2.5073746e-18  0              1.2107215e-13  1.1971759e-13  0              2.9953263    
   2900000   11970          200            200            0.0034221373  -0.0022516498   0              0.012518062    7.0920941e-19  0              3.4245184e-14  1.1971759e-13  0              2.9953263    
   3000000   11970          200            200            0.0034221373  -0.0022516498   0              0.012518062    2.8553246e-18  0              1.378734e-13   1.1971759e-13  0              2.9953263    
Loop time of 714.565 on 2 procs for 3000000 steps with 5001 atoms

Performance: 3627384.063 ns/day, 0.000 hours/ns, 4198.361 timesteps/s
99.9% CPU use with 2 MPI tasks x 1 OpenMP threads

MPI task timing breakdown:
Section |  min time  |  avg time  |  max time  |%varavg| %total
---------------------------------------------------------------
Pair    | 173.73     | 175.63     | 177.54     |  14.4 | 24.58
Neigh   | 14.696     | 14.699     | 14.701     |   0.1 |  2.06
Comm    | 38.086     | 40.052     | 42.018     |  31.1 |  5.61
Output  | 0.64984    | 0.64984    | 0.64984    |   0.0 |  0.09
Modify  | 425.76     | 425.87     | 425.98     |   0.5 | 59.60
Other   |            | 57.66      |            |       |  8.07

Nlocal:         2500.5 ave        2501 max        2500 min
Histogram: 1 0 0 0 0 0 0 0 0 1
Nghost:            2.5 ave           3 max           2 min
Histogram: 1 0 0 0 0 0 0 0 0 1
Neighs:         1399.5 ave        1400 max        1399 min
Histogram: 1 0 0 0 0 0 0 0 0 1

Total # of neighbors = 2799
Ave neighs/atom = 0.55968806
Neighbor list builds = 164
Dangerous builds = 0
  using 1 OpenMP thread(s) per MPI task
Total wall time: 20:22:23
