ITEM: TIMESTEP
2300000
ITEM: NUMBER OF ATOMS
2501
ITEM: BOX BOUNDS pp pp pp
-3.1819805153394700e+03 3.1819805153394700e+03
-1.0000000000000000e+02 1.0000000000000000e+02
-1.0000000000000000e+02 1.0000000000000000e+02
ITEM: ATOMS id type diameter mass xu yu zu
1 1 4.13 81.1468 -3181.98051533946773 0 0
2 1 4.13 81.1468 -3177.73787465234818 0 0
3 1 4.13 81.1468 -3173.49523396522909 0 0
4 1 4.13 81.1468 -3169.25259327810954 0 0
5 1 4.13 81.1468 -3165.00995259099045 0 0
6 1 4.13 81.1468 -3160.7673119038709 0 0
7 1 4.13 81.1468 -3156.52467121675181 0 0
8 1 4.13 81.1468 -3152.28203052963272 0 0
9 1 4.13 81.1468 -3148.03938984251317 0 0
10 1 4.13 81.1468 -3143.79674915539408 0 0
11 1 4.13 81.1468 -3139.55410846827453 0 0
12 1 4.13 81.1468 -3135.31146778115544 0 0
13 1 4.13 81.1468 -3131.0688270940359 0 0
14 1 4.13 81.1468 -3126.8261864069168 0 0
15 1 4.13 81.1468 -3122.58354571979771 0 0
16 1 4.13 81.1468 -3118.34090503267817 0 0
17 1 4.13 81.1468 -3114.09826434555907 0 0
18 1 4.13 81.1468 -3109.85562365843953 0 0
19 1 4.13 81.1468 -3105.61298297132043 0 0
20 1 4.13 81.1468 -3101.37034228420089 0 0
21 1 4.13 81.1468 -3097.1277015970818 0 0
22 1 4.13 81.1468 -3092.8850609099627 0 0
23 1 4.13 81.1468 -3088.64242022284316 0 0
24 1 4.13 81.1468 -3084.39977953572406 0 0
25 1 4.13 81.1468 -3080.15713884860452 0 0
26 1 4.13 81.1468 -3075.91449816148543 0 0
27 1 4.13 81.1468 -3071.67185747436588 0 0
28 1 4.13 81.1468 -3067.42921678724679 0 0
29 1 4.13 81.1468 -3063.18657610012724 0 0
30 1 4.13 81.1468 -3058.94393541300815 0 0
31 1 4.13 81.1468 -3054.70129472588906 0 0
32 1 4.13 81.1468 -3050.45865403876951 0 0
33 1 4.13 81.1468 -3046.21601335165042 0 0
34 1 4.13 81.1468 -3041.97337266453087 0 0
35 1 4.13 81.1468 -3037.73073197741178 0 0
36 1 4.13 81.1468 -3033.48809129029223 0 0
37 1 4.13 81.1468 -3029.24545060317314 0 0
38 1 4.13 81.1468 -3025.00280991605405 0 0
39 1 4.13 81.1468 -3020.7601692289345 0 0
40 1 4.13 81.1468 -3016.51752854181541 0 0
41 1 4.13 81.1468 -3012.27488785469586 0 0
42 1 4.13 81.1468 -3008.03224716757677 0 0
43 1 4.13 81.1468 -3003.78960648045722 0 0
44 1 4.13 81.1468 -2999.54696579333813 0 0
45 1 4.13 81.1468 -2995.30432510621858 0 0
46 1 4.13 81.1468 -2991.06168441909949 0 0
47 1 4.13 81.1468 -2986.8190437319804 0 0
48 1 4.13 81.1468 -2982.57640304486085 0 0
49 1 4.13 81.1468 -2978.33376235774176 0 0
50 1 4.13 81.1468 -2974.09112167062221 0 0
51 1 4.13 81.1468 -2969.84848098350312 0 0
52 1 4.13 81.1468 -2965.60584029638358 0 0
53 1 4.13 81.1468 -2961.36319960926448 0 0
54 1 4.13 81.1468 -2957.12055892214539 0 0
55 1 4.13 81.1468 -2952.87791823502585 0 0
56 1 4.13 81.1468 -2948.63527754790675 0 0
57 1 4.13 81.1468 -2944.39263686078721 0 0
58 1 4.13 81.1468 -2940.14999617366811 0 0
59 1 4.13 81.1468 -2935.90735548654857 0 0
60 1 4.13 81.1468 -2931.66471479942948 0 0
61 1 4.13 81.1468 -2927.42207411231038 0 0
62 1 4.13 81.1468 -2923.17943342519084 0 0
63 1 4.13 81.1468 -2918.93679273807174 0 0
64 1 4.13 81.1468 -2914.6941520509522 0 0
65 1 4.13 81.1468 -2910.45151136383311 0 0
66 1 4.13 81.1468 -2906.20887067671356 0 0
67 1 4.13 81.1468 -2901.96622998959447 0 0
68 1 4.13 81.1468 -2897.72358930247492 0 0
69 1 4.13 81.1468 -2893.48094861535583 0 0
70 1 4.13 81.1468 -2889.23830792823674 0 0
71 1 4.13 81.1468 -2884.99566724111719 0 0
72 1 4.13 81.1468 -2880.7530265539981 0 0
73 1 4.13 81.1468 -2876.51038586687855 0 0
74 1 4.13 81.1468 -2872.26774517975946 0 0
75 1 4.13 81.1468 -2868.02510449263991 0 0
76 1 4.13 81.1468 -2863.78246380552082 0 0
77 1 4.13 81.1468 -2859.53982311840173 0 0
78 1 4.13 81.1468 -2855.29718243128218 0 0
79 1 4.13 81.1468 -2851.05454174416309 0 0
80 1 4.13 81.1468 -2846.81190105704354 0 0
81 1 4.13 81.1468 -2842.56926036992445 0 0
82 1 4.13 81.1468 -2838.3266196828049 0 0
83 1 4.13 81.1468 -2834.08397899568581 0 0
84 1 4.13 81.1468 -2829.84133830856672 0 0
85 1 4.13 81.1468 -2825.59869762144717 0 0
86 1 4.13 81.1468 -2821.35605693432808 0 0
87 1 4.13 81.1468 -2817.11341624720853 0 0
88 1 4.13 81.1468 -2812.87077556008944 0 0
89 1 4.13 81.1468 -2808.62813487296989 0 0
90 1 4.13 81.1468 -2804.3854941858508 0 0
91 1 4.13 81.1468 -2800.14285349873126 0 0
92 1 4.13 81.1468 -2795.90021281161216 0 0
93 1 4.13 81.1468 -2791.65757212449307 0 0
94 1 4.13 81.1468 -2787.41493143737353 0 0
95 1 4.13 81.1468 -2783.17229075025443 0 0
96 1 4.13 81.1468 -2778.92965006313489 0 0
97 1 4.13 81.1468 -2774.68700937601579 0 0
98 1 4.13 81.1468 -2770.44436868889625 0 0
99 1 4.13 81.1468 -2766.20172800177716 0 0
100 1 4.13 81.1468 -2761.95908731465806 0 0
101 1 4.13 81.1468 -2757.71644662753852 0 0
102 1 4.13 81.1468 -2753.47380594041942 0 0
103 1 4.13 81.1468 -2749.23116525329988 0 0
104 1 4.13 81.1468 -2744.98852456618079 0 0
105 1 4.13 81.1468 -2740.74588387906124 0 0
106 1 4.13 81.1468 -2736.50324319194215 0 0
107 1 4.13 81.1468 -2732.2606025048226 0 0
108 1 4.13 81.1468 -2728.01796181770351 0 0
109 1 4.13 81.1468 -2723.77532113058442 0 0
110 1 4.13 81.1468 -2719.53268044346487 0 0
111 1 4.13 81.1468 -2715.29003975634578 0 0
112 1 4.13 81.1468 -2711.04739906922623 0 0
113 1 4.13 81.1468 -2706.80475838210714 0 0
114 1 4.13 81.1468 -2702.56211769498759 0 0
115 1 4.13 81.1468 -2698.3194770078685 0 0
116 1 4.13 81.1468 -2694.07683632074941 0 0
117 1 4.13 81.1468 -2689.83419563362986 0 0
118 1 4.13 81.1468 -2685.59155494651077 0 0
119 1 4.13 81.1468 -2681.34891425939122 0 0
120 1 4.13 81.1468 -2677.10627357227213 0 0
121 1 4.13 81.1468 -2672.86363288515258 0 0
122 1 4.13 81.1468 -2668.62099219803349 0 0
123 1 4.13 81.1468 -2664.3783515109144 0 0
124 1 4.13 81.1468 -2660.13571082379485 0 0
125 1 4.13 81.1468 -2655.89307013667576 0 0
126 1 4.13 81.1468 -2651.65042944955621 0 0
127 1 4.13 81.1468 -2647.40778876243712 0 0
128 1 4.13 81.1468 -2643.16514807531757 0 0
129 1 4.13 81.1468 -2638.92250738819848 0 0
130 1 4.13 81.1468 -2634.67986670107894 0 0
131 1 4.13 81.1468 -2630.43722601395984 0 0
132 1 4.13 81.1468 -2626.19458532684075 0 0
133 1 4.13 81.1468 -2621.95194463972121 0 0
134 1 4.13 81.1468 -2617.70930395260211 0 0
135 1 4.13 81.1468 -2613.46666326548257 0 0
136 1 4.13 81.1468 -2609.22402257836347 0 0
137 1 4.13 81.1468 -2604.98138189124393 0 0
138 1 4.13 81.1468 -2600.73874120412484 0 0
139 1 4.13 81.1468 -2596.49610051700574 0 0
140 1 4.13 81.1468 -2592.2534598298862 0 0
141 1 4.13 81.1468 -2588.0108191427671 0 0
142 1 4.13 81.1468 -2583.76817845564756 0 0
143 1 4.13 81.1468 -2579.52553776852847 0 0
144 1 4.13 81.1468 -2575.28289708140892 0 0
145 1 4.13 81.1468 -2571.04025639428983 0 0
146 1 4.13 81.1468 -2566.79761570717073 0 0
147 1 4.13 81.1468 -2562.55497502005119 0 0
148 1 4.13 81.1468 -2558.3123343329321 0 0
149 1 4.13 81.1468 -2554.06969364581255 0 0
150 1 4.13 81.1468 -2549.82705295869346 0 0
151 1 4.13 81.1468 -2545.58441227157391 0 0
152 1 4.13 81.1468 -2541.34177158445482 0 0
153 1 4.13 81.1468 -2537.09913089733527 0 0
154 1 4.13 81.1468 -2532.85649021021618 0 0
155 1 4.13 81.1468 -2528.61384952309709 0 0
156 1 4.13 81.1468 -2524.37120883597754 0 0
157 1 4.13 81.1468 -2520.12856814885845 0 0
158 1 4.13 81.1468 -2515.8859274617389 0 0
159 1 4.13 81.1468 -2511.64328677461981 0 0
160 1 4.13 81.1468 -2507.40064608750026 0 0
161 1 4.13 81.1468 -2503.15800540038117 0 0
162 1 4.13 81.1468 -2498.91536471326208 0 0
163 1 4.13 81.1468 -2494.67272402614253 0 0
164 1 4.13 81.1468 -2490.43008333902344 0 0
165 1 4.13 81.1468 -2486.18744265190389 0 0
166 1 4.13 81.1468 -2481.9448019647848 0 0
167 1 4.13 81.1468 -2477.70216127766525 0 0
168 1 4.13 81.1468 -2473.45952059054616 0 0
169 1 4.13 81.1468 -2469.21687990342662 0 0
170 1 4.13 81.1468 -2464.97423921630752 0 0
171 1 4.13 81.1468 -2460.73159852918843 0 0
172 1 4.13 81.1468 -2456.48895784206888 0 0
173 1 4.13 81.1468 -2452.24631715494979 0 0
174 1 4.13 81.1468 -2448.00367646783025 0 0
175 1 4.13 81.1468 -2443.76103578071115 0 0
176 1 4.13 81.1468 -2439.51839509359161 0 0
177 1 4.13 81.1468 -2435.27575440647252 0 0
178 1 4.13 81.1468 -2431.03311371935342 0 0
179 1 4.13 81.1468 -2426.79047303223388 0 0
180 1 4.13 81.1468 -2422.54783234511478 0 0
181 1 4.13 81.1468 -2418.30519165799524 0 0
182 1 4.13 81.1468 -2414.06255097087615 0 0
183 1 4.13 81.1468 -2409.8199102837566 0 0
184 1 4.13 81.1468 -2405.57726959663751 0 0
185 1 4.13 81.1468 -2401.33462890951841 0 0
186 1 4.13 81.1468 -2397.09198822239887 0 0
187 1 4.13 81.1468 -2392.84934753527978 0 0
188 1 4.13 81.1468 -2388.60670684816023 0 0
189 1 4.13 81.1468 -2384.36406616104114 0 0
190 1 4.13 81.1468 -2380.12142547392159 0 0
191 1 4.13 81.1468 -2375.8787847868025 0 0
192 1 4.13 81.1468 -2371.63614409968295 0 0
193 1 4.13 81.1468 -2367.39350341256386 0 0
194 1 4.13 81.1468 -2363.15086272544477 0 0
195 1 4.13 81.1468 -2358.90822203832522 0 0
196 1 4.13 81.1468 -2354.66558135120613 0 0
197 1 4.13 81.1468 -2350.42294066408658 0 0
198 1 4.13 81.1468 -2346.18029997696749 0 0
199 1 4.13 81.1468 -2341.93765928984794 0 0
200 1 4.13 81.1468 -2337.69501860272885 0 0
201 1 4.13 81.1468 -2333.45237791560976 0 0
202 1 4.13 81.1468 -2329.20973722849021 0 0
203 1 4.13 81.1468 -2324.96709654137112 0 0
204 1 4.13 81.1468 -2320.72445585425157 0 0
205 1 4.13 81.1468 -2316.48181516713248 0 0
206 1 4.13 81.1468 -2312.23917448001293 0 0
207 1 4.13 81.1468 -2307.99653379289384 0 0
208 1 4.13 81.1468 -2303.75389310577475 0 0
209 1 4.13 81.1468 -2299.5112524186552 0 0
210 1 4.13 81.1468 -2295.26861173153611 0 0
211 1 4.13 81.1468 -2291.02597104441656 0 0
212 1 4.13 81.1468 -2286.78333035729747 0 0
213 1 4.13 81.1468 -2282.54068967017793 0 0
214 1 4.13 81.1468 -2278.29804898305883 0 0
215 1 4.13 81.1468 -2274.05540829593929 0 0
216 1 4.13 81.1468 -2269.8127676088202 0 0
217 1 4.13 81.1468 -2265.5701269217011 0 0
218 1 4.13 81.1468 -2261.32748623458156 0 0
219 1 4.13 81.1468 -2257.08484554746246 0 0
220 1 4.13 81.1468 -2252.84220486034292 0 0
221 1 4.13 81.1468 -2248.59956417322383 0 0
222 1 4.13 81.1468 -2244.35692348610428 0 0
223 1 4.13 81.1468 -2240.11428279898519 0 0
224 1 4.13 81.1468 -2235.87164211186609 0 0
225 1 4.13 81.1468 -2231.62900142474655 0 0
226 1 4.13 81.1468 -2227.38636073762746 0 0
227 1 4.13 81.1468 -2223.14372005050791 0 0
228 1 4.13 81.1468 -2218.90107936338882 0 0
229 1 4.13 81.1468 -2214.65843867626927 0 0
230 1 4.13 81.1468 -2210.41579798915018 0 0
231 1 4.13 81.1468 -2206.17315730203063 0 0
232 1 4.13 81.1468 -2201.93051661491154 0 0
233 1 4.13 81.1468 -2197.68787592779245 0 0
234 1 4.13 81.1468 -2193.4452352406729 0 0
235 1 4.13 81.1468 -2189.20259455355381 0 0
236 1 4.13 81.1468 -2184.95995386643426 0 0
237 1 4.13 81.1468 -2180.71731317931517 0 0
238 1 4.13 81.1468 -2176.47467249219562 0 0
239 1 4.13 81.1468 -2172.23203180507653 0 0
240 1 4.13 81.1468 -2167.98939111795744 0 0
241 1 4.13 81.1468 -2163.74675043083789 0 0
242 1 4.13 81.1468 -2159.5041097437188 0 0
243 1 4.13 81.1468 -2155.26146905659925 0 0
244 1 4.13 81.1468 -2151.01882836948016 0 0
245 1 4.13 81.1468 -2146.77618768236061 0 0
246 1 4.13 81.1468 -2142.53354699524152 0 0
247 1 4.13 81.1468 -2138.29090630812243 0 0
248 1 4.13 81.1468 -2134.04826562100288 0 0
249 1 4.13 81.1468 -2129.80562493388379 0 0
250 1 4.13 81.1468 -2125.56298424676424 0 0
251 1 4.13 81.1468 -2121.32034355964515 0 0
252 1 4.13 81.1468 -2117.07770287252561 0 0
253 1 4.13 81.1468 -2112.83506218540651 0 0
254 1 4.13 81.1468 -2108.59242149828697 0 0
255 1 4.13 81.1468 -2104.34978081116788 0 0
256 1 4.13 81.1468 -2100.10714012404878 0 0
257 1 4.13 81.1468 -2095.86449943692924 0 0
258 1 4.13 81.1468 -2091.62185874981014 0 0
259 1 4.13 81.1468 -2087.3792180626906 0 0
260 1 4.13 81.1468 -2083.13657737557151 0 0
261 1 4.13 81.1468 -2078.89393668845196 0 0
262 1 4.13 81.1468 -2074.65129600133287 0 0
263 1 4.13 81.1468 -2070.40865531421377 0 0
264 1 4.13 81.1468 -2066.16601462709423 0 0
265 1 4.13 81.1468 -2061.92337393997514 0 0
266 1 4.13 81.1468 -2057.68073325285559 0 0
267 1 4.13 81.1468 -2053.4380925657365 0 0
268 1 4.13 81.1468 -2049.19545187861695 0 0
269 1 4.13 81.1468 -2044.95281119149786 0 0
270 1 4.13 81.1468 -2040.71017050437854 0 0
271 1 4.13 81.1468 -2036.46752981725922 0 0
272 1 4.13 81.1468 -2032.2248891301399 0 0
273 1 4.13 81.1468 -2027.98224844302058 0 0
274 1 4.13 81.1468 -2023.73960775590149 0 0
275 1 4.13 81.1468 -2019.49696706878217 0 0
276 1 4.13 81.1468 -2015.25432638166285 0 0
277 1 4.13 81.1468 -2011.01168569454353 0 0
278 1 4.13 81.1468 -2006.76904500742421 0 0
279 1 4.13 81.1468 -2002.52640432030489 0 0
280 1 4.13 81.1468 -1998.28376363318557 0 0
281 1 4.13 81.1468 -1994.04112294606625 0 0
282 1 4.13 81.1468 -1989.79848225894716 0 0
283 1 4.13 81.1468 -1985.55584157182784 0 0
284 1 4.13 81.1468 -1981.31320088470852 0 0
285 1 4.13 81.1468 -1977.0705601975892 0 0
286 1 4.13 81.1468 -1972.82791951046988 0 0
287 1 4.13 81.1468 -1968.58527882335056 0 0
288 1 4.13 81.1468 -1964.34263813623124 0 0
289 1 4.13 81.1468 -1960.09999744911192 0 0
290 1 4.13 81.1468 -1955.85735676199283 0 0
291 1 4.13 81.1468 -1951.61471607487351 0 0
292 1 4.13 81.1468 -1947.37207538775419 0 0
293 1 4.13 81.1468 -1943.12943470063487 0 0
294 1 4.13 81.1468 -1938.88679401351555 0 0
295 1 4.13 81.1468 -1934.64415332639624 0 0
296 1 4.13 81.1468 -1930.40151263927692 0 0
297 1 4.13 81.1468 -1926.1588719521576 0 0
298 1 4.13 81.1468 -1921.9162312650385 0 0
299 1 4.13 81.1468 -1917.67359057791919 0 0
300 1 4.13 81.1468 -1913.43094989079987 0 0
301 1 4.13 81.1468 -1909.18830920368055 0 0
302 1 4.13 81.1468 -1904.94566851656123 0 0
303 1 4.13 81.1468 -1900.70302782944191 0 0
304 1 4.13 81.1468 -1896.46038714232259 0 0
305 1 4.13 81.1468 -1892.2177464552035 0 0
306 1 4.13 81.1468 -1887.97510576808418 0 0
307 1 4.13 81.1468 -1883.73246508096486 0 0
308 1 4.13 81.1468 -1879.48982439384554 0 0
309 1 4.13 81.1468 -1875.24718370672622 0 0
310 1 4.13 81.1468 -1871.0045430196069 0 0
311 1 4.13 81.1468 -1866.76190233248758 0 0
312 1 4.13 81.1468 -1862.51926164536826 0 0
313 1 4.13 81.1468 -1858.27662095824917 0 0
314 1 4.13 81.1468 -1854.03398027112985 0 0
315 1 4.13 81.1468 -1849.79133958401053 0 0
316 1 4.13 81.1468 -1845.54869889689121 0 0
317 1 4.13 81.1468 -1841.30605820977189 0 0
318 1 4.13 81.1468 -1837.06341752265257 0 0
319 1 4.13 81.1468 -1832.82077683553325 0 0
320 1 4.13 81.1468 -1828.57813614841393 0 0
321 1 4.13 81.1468 -1824.33549546129484 0 0
322 1 4.13 81.1468 -1820.09285477417552 0 0
323 1 4.13 81.1468 -1815.8502140870562 0 0
324 1 4.13 81.1468 -1811.60757339993688 0 0
325 1 4.13 81.1468 -1807.36493271281756 0 0
326 1 4.13 81.1468 -1803.12229202569824 0 0
327 1 4.13 81.1468 -1798.87965133857892 0 0
328 1 4.13 81.1468 -1794.6370106514596 0 0
329 1 4.13 81.1468 -1790.39436996434051 0 0
330 1 4.13 81.1468 -1786.15172927722119 0 0
331 1 4.13 81.1468 -1781.90908859010187 0 0
332 1 4.13 81.1468 -1777.66644790298255 0 0
333 1 4.13 81.1468 -1773.42380721586323 0 0
334 1 4.13 81.1468 -1769.18116652874392 0 0
335 1 4.13 81.1468 -1764.9385258416246 0 0
336 1 4.13 81.1468 -1760.6958851545055 0 0
337 1 4.13 81.1468 -1756.45324446738618 0 0
338 1 4.13 81.1468 -1752.21060378026687 0 0
339 1 4.13 81.1468 -1747.96796309314755 0 0
340 1 4.13 81.1468 -1743.72532240602823 0 0
341 1 4.13 81.1468 -1739.48268171890891 0 0
342 1 4.13 81.1468 -1735.24004103178959 0 0
343 1 4.13 81.1468 -1730.99740034467027 0 0
344 1 4.13 81.1468 -1726.75475965755118 0 0
345 1 4.13 81.1468 -1722.51211897043186 0 0
346 1 4.13 81.1468 -1718.26947828331254 0 0
347 1 4.13 81.1468 -1714.02683759619322 0 0
348 1 4.13 81.1468 -1709.7841969090739 0 0
349 1 4.13 81.1468 -1705.54155622195458 0 0
350 1 4.13 81.1468 -1701.29891553483526 0 0
351 1 4.13 81.1468 -1697.05627484771594 0 0
352 1 4.13 81.1468 -1692.81363416059685 0 0
353 1 4.13 81.1468 -1688.57099347347753 0 0
354 1 4.13 81.1468 -1684.32835278635821 0 0
355 1 4.13 81.1468 -1680.08571209923889 0 0
356 1 4.13 81.1468 -1675.84307141211957 0 0
357 1 4.13 81.1468 -1671.60043072500025 0 0
358 1 4.13 81.1468 -1667.35779003788093 0 0
359 1 4.13 81.1468 -1663.11514935076161 0 0
360 1 4.13 81.1468 -1658.87250866364252 0 0
361 1 4.13 81.1468 -1654.6298679765232 0 0
362 1 4.13 81.1468 -1650.38722728940388 0 0
363 1 4.13 81.1468 -1646.14458660228456 0 0
364 1 4.13 81.1468 -1641.90194591516524 0 0
365 1 4.13 81.1468 -1637.65930522804592 0 0
366 1 4.13 81.1468 -1633.4166645409266 0 0
367 1 4.13 81.1468 -1629.17402385380728 0 0
368 1 4.13 81.1468 -1624.93138316668819 0 0
369 1 4.13 81.1468 -1620.68874247956887 0 0
370 1 4.13 81.1468 -1616.44610179244955 0 0
371 1 4.13 81.1468 -1612.20346110533023 0 0
372 1 4.13 81.1468 -1607.96082041821091 0 0
373 1 4.13 81.1468 -1603.7181797310916 0 0
374 1 4.13 81.1468 -1599.47553904397228 0 0
375 1 4.13 81.1468 -1595.23289835685318 0 0
376 1 4.13 81.1468 -1590.99025766973386 0 0
377 1 4.13 81.1468 -1586.74761698261455 0 0
378 1 4.13 81.1468 -1582.50497629549523 0 0
379 1 4.13 81.1468 -1578.26233560837591 0 0
380 1 4.13 81.1468 -1574.01969492125659 0 0
381 1 4.13 81.1468 -1569.77705423413727 0 0
382 1 4.13 81.1468 -1565.53441354701795 0 0
383 1 4.13 81.1468 -1561.29177285989886 0 0
384 1 4.13 81.1468 -1557.04913217277954 0 0
385 1 4.13 81.1468 -1552.80649148566022 0 0
386 1 4.13 81.1468 -1548.5638507985409 0 0
387 1 4.13 81.1468 -1544.32121011142158 0 0
388 1 4.13 81.1468 -1540.07856942430226 0 0
389 1 4.13 81.1468 -1535.83592873718294 0 0
390 1 4.13 81.1468 -1531.59328805006362 0 0
391 1 4.13 81.1468 -1527.35064736294453 0 0
392 1 4.13 81.1468 -1523.10800667582521 0 0
393 1 4.13 81.1468 -1518.86536598870589 0 0
394 1 4.13 81.1468 -1514.62272530158657 0 0
395 1 4.13 81.1468 -1510.38008461446725 0 0
396 1 4.13 81.1468 -1506.13744392734793 0 0
397 1 4.13 81.1468 -1501.89480324022861 0 0
398 1 4.13 81.1468 -1497.65216255310929 0 0
399 1 4.13 81.1468 -1493.4095218659902 0 0
400 1 4.13 81.1468 -1489.16688117887088 0 0
401 1 4.13 81.1468 -1484.92424049175156 0 0
402 1 4.13 81.1468 -1480.68159980463224 0 0
403 1 4.13 81.1468 -1476.43895911751292 0 0
404 1 4.13 81.1468 -1472.1963184303936 0 0
405 1 4.13 81.1468 -1467.95367774327428 0 0
406 1 4.13 81.1468 -1463.71103705615519 0 0
407 1 4.13 81.1468 -1459.46839636903587 0 0
408 1 4.13 81.1468 -1455.22575568191655 0 0
409 1 4.13 81.1468 -1450.98311499479723 0 0
410 1 4.13 81.1468 -1446.74047430767791 0 0
411 1 4.13 81.1468 -1442.49783362055859 0 0
412 1 4.13 81.1468 -1438.25519293343928 0 0
413 1 4.13 81.1468 -1434.01255224631996 0 0
414 1 4.13 81.1468 -1429.76991155920086 0 0
415 1 4.13 81.1468 -1425.52727087208154 0 0
416 1 4.13 81.1468 -1421.28463018496223 0 0
417 1 4.13 81.1468 -1417.04198949784291 0 0
418 1 4.13 81.1468 -1412.79934881072359 0 0
419 1 4.13 81.1468 -1408.55670812360427 0 0
420 1 4.13 81.1468 -1404.31406743648495 0 0
421 1 4.13 81.1468 -1400.07142674936563 0 0
422 1 4.13 81.1468 -1395.82878606224654 0 0
423 1 4.13 81.1468 -1391.58614537512722 0 0
424 1 4.13 81.1468 -1387.3435046880079 0 0
425 1 4.13 81.1468 -1383.10086400088858 0 0
426 1 4.13 81.1468 -1378.85822331376926 0 0
427 1 4.13 81.1468 -1374.61558262664994 0 0
428 1 4.13 81.1468 -1370.37294193953062 0 0
429 1 4.13 81.1468 -1366.1303012524113 0 0
430 1 4.13 81.1468 -1361.88766056529221 0 0
431 1 4.13 81.1468 -1357.64501987817289 0 0
432 1 4.13 81.1468 -1353.40237919105357 0 0
433 1 4.13 81.1468 -1349.15973850393425 0 0
434 1 4.13 81.1468 -1344.91709781681493 0 0
435 1 4.13 81.1468 -1340.67445712969561 0 0
436 1 4.13 81.1468 -1336.43181644257629 0 0
437 1 4.13 81.1468 -1332.1891757554572 0 0
438 1 4.13 81.1468 -1327.94653506833788 0 0
439 1 4.13 81.1468 -1323.70389438121856 0 0
440 1 4.13 81.1468 -1319.46125369409924 0 0
441 1 4.13 81.1468 -1315.21861300697992 0 0
442 1 4.13 81.1468 -1310.9759723198606 0 0
443 1 4.13 81.1468 -1306.73333163274128 0 0
444 1 4.13 81.1468 -1302.49069094562196 0 0
445 1 4.13 81.1468 -1298.24805025850287 0 0
446 1 4.13 81.1468 -1294.00540957138355 0 0
447 1 4.13 81.1468 -1289.76276888426423 0 0
448 1 4.13 81.1468 -1285.52012819714491 0 0
449 1 4.13 81.1468 -1281.27748751002559 0 0
450 1 4.13 81.1468 -1277.03484682290627 0 0
451 1 4.13 81.1468 -1272.79220613578696 0 0
452 1 4.13 81.1468 -1268.54956544866764 0 0
453 1 4.13 81.1468 -1264.30692476154854 0 0
454 1 4.13 81.1468 -1260.06428407442922 0 0
455 1 4.13 81.1468 -1255.8216433873099 0 0
456 1 4.13 81.1468 -1251.57900270019059 0 0
457 1 4.13 81.1468 -1247.33636201307127 0 0
458 1 4.13 81.1468 -1243.09372132595195 0 0
459 1 4.13 81.1468 -1238.85108063883263 0 0
460 1 4.13 81.1468 -1234.60843995171331 0 0
461 1 4.13 81.1468 -1230.36579926459422 0 0
462 1 4.13 81.1468 -1226.1231585774749 0 0
463 1 4.13 81.1468 -1221.88051789035558 0 0
464 1 4.13 81.1468 -1217.63787720323626 0 0
465 1 4.13 81.1468 -1213.39523651611694 0 0
466 1 4.13 81.1468 -1209.15259582899762 0 0
467 1 4.13 81.1468 -1204.9099551418783 0 0
468 1 4.13 81.1468 -1200.66731445475921 0 0
469 1 4.13 81.1468 -1196.42467376763989 0 0
470 1 4.13 81.1468 -1192.18203308052057 0 0
471 1 4.13 81.1468 -1187.93939239340125 0 0
472 1 4.13 81.1468 -1183.69675170628193 0 0
473 1 4.13 81.1468 -1179.45411101916261 0 0
474 1 4.13 81.1468 -1175.21147033204329 0 0
475 1 4.13 81.1468 -1170.96882964492397 0 0
476 1 4.13 81.1468 -1166.72618895780488 0 0
477 1 4.13 81.1468 -1162.48354827068556 0 0
478 1 4.13 81.1468 -1158.24090758356624 0 0
479 1 4.13 81.1468 -1153.99826689644692 0 0
480 1 4.13 81.1468 -1149.7556262093276 0 0
481 1 4.13 81.1468 -1145.51298552220828 0 0
482 1 4.13 81.1468 -1141.27034483508896 0 0
483 1 4.13 81.1468 -1137.02770414796964 0 0
484 1 4.13 81.1468 -1132.78506346085055 0 0
485 1 4.13 81.1468 -1128.54242277373123 0 0
486 1 4.13 81.1468 -1124.29978208661191 0 0
487 1 4.13 81.1468 -1120.05714139949259 0 0
488 1 4.13 81.1468 -1115.81450071237327 0 0
489 1 4.13 81.1468 -1111.57186002525395 0 0
490 1 4.13 81.1468 -1107.32921933813464 0 0
491 1 4.13 81.1468 -1103.08657865101532 0 0
492 1 4.13 81.1468 -1098.84393796389622 0 0
493 1 4.13 81.1468 -1094.6012972767769 0 0
494 1 4.13 81.1468 -1090.35865658965758 0 0
495 1 4.13 81.1468 -1086.11601590253827 0 0
496 1 4.13 81.1468 -1081.87337521541895 0 0
497 1 4.13 81.1468 -1077.63073452829963 0 0
498 1 4.13 81.1468 -1073.38809384118031 0 0
499 1 4.13 81.1468 -1069.14545315406122 0 0
500 1 4.13 81.1468 -1064.9028124669419 0 0
501 1 4.13 81.1468 -1060.66017177982258 0 0
502 1 4.13 81.1468 -1056.41753109270326 0 0
503 1 4.13 81.1468 -1052.17489040558394 0 0
504 1 4.13 81.1468 -1047.93224971846462 0 0
505 1 4.13 81.1468 -1043.6896090313453 0 0
506 1 4.13 81.1468 -1039.44696834422598 0 0
507 1 4.13 81.1468 -1035.20432765710689 0 0
508 1 4.13 81.1468 -1030.96168696998757 0 0
509 1 4.13 81.1468 -1026.71904628286825 0 0
510 1 4.13 81.1468 -1022.47640559574893 0 0
511 1 4.13 81.1468 -1018.23376490862961 0 0
512 1 4.13 81.1468 -1013.99112422151029 0 0
513 1 4.13 81.1468 -1009.74848353439108 0 0
514 1 4.13 81.1468 -1005.50584284727177 0 0
515 1 4.13 81.1468 -1001.26320216015245 0 0
516 1 4.13 81.1468 -997.020561473033126 0 0
517 1 4.13 81.1468 -992.777920785913921 0 0
518 1 4.13 81.1468 -988.535280098794601 0 0
519 1 4.13 81.1468 -984.292639411675282 0 0
520 1 4.13 81.1468 -980.049998724555962 0 0
521 1 4.13 81.1468 -975.807358037436757 0 0
522 1 4.13 81.1468 -971.564717350317437 0 0
523 1 4.13 81.1468 -967.322076663198118 0 0
524 1 4.13 81.1468 -963.079435976078798 0 0
525 1 4.13 81.1468 -958.836795288959593 0 0
526 1 4.13 81.1468 -954.594154601840273 0 0
527 1 4.13 81.1468 -950.351513914720954 0 0
528 1 4.13 81.1468 -946.108873227601748 0 0
529 1 4.13 81.1468 -941.866232540482429 0 0
530 1 4.13 81.1468 -937.623591853363109 0 0
531 1 4.13 81.1468 -933.38095116624379 0 0
532 1 4.13 81.1468 -929.138310479124584 0 0
533 1 4.13 81.1468 -924.895669792005265 0 0
534 1 4.13 81.1468 -920.653029104885945 0 0
535 1 4.13 81.1468 -916.410388417766626 0 0
536 1 4.13 81.1468 -912.16774773064742 0 0
537 1 4.13 81.1468 -907.925107043528101 0 0
538 1 4.13 81.1468 -903.682466356408781 0 0
539 1 4.13 81.1468 -899.439825669289462 0 0
540 1 4.13 81.1468 -895.197184982170256 0 0
541 1 4.13 81.1468 -890.954544295050937 0 0
542 1 4.13 81.1468 -886.711903607931617 0 0
543 1 4.13 81.1468 -882.469262920812298 0 0
544 1 4.13 81.1468 -878.226622233693092 0 0
545 1 4.13 81.1468 -873.983981546573773 0 0
546 1 4.13 81.1468 -869.741340859454453 0 0
547 1 4.13 81.1468 -865.498700172335134 0 0
548 1 4.13 81.1468 -861.256059485215928 0 0
549 1 4.13 81.1468 -857.013418798096609 0 0
550 1 4.13 81.1468 -852.77077811097729 0 0
551 1 4.13 81.1468 -848.52813742385797 0 0
552 1 4.13 81.1468 -844.285496736738764 0 0
553 1 4.13 81.1468 -840.042856049619445 0 0
554 1 4.13 81.1468 -835.800215362500126 0 0
555 1 4.13 81.1468 -831.557574675380806 0 0
556 1 4.13 81.1468 -827.3149339882616 0 0
557 1 4.13 81.1468 -823.072293301142281 0 0
558 1 4.13 81.1468 -818.829652614022962 0 0
559 1 4.13 81.1468 -814.587011926903642 0 0
560 1 4.13 81.1468 -810.344371239784437 0 0
561 1 4.13 81.1468 -806.101730552665117 0 0
562 1 4.13 81.1468 -801.859089865545798 0 0
563 1 4.13 81.1468 -797.616449178426592 0 0
564 1 4.13 81.1468 -793.373808491307273 0 0
565 1 4.13 81.1468 -789.131167804187953 0 0
566 1 4.13 81.1468 -784.888527117068634 0 0
567 1 4.13 81.1468 -780.645886429949428 0 0
568 1 4.13 81.1468 -776.403245742830109 0 0
569 1 4.13 81.1468 -772.160605055710789 0 0
570 1 4.13 81.1468 -767.91796436859147 0 0
571 1 4.13 81.1468 -763.675323681472264 0 0
572 1 4.13 81.1468 -759.432682994352945 0 0
573 1 4.13 81.1468 -755.190042307233625 0 0
574 1 4.13 81.1468 -750.947401620114306 0 0
575 1 4.13 81.1468 -746.7047609329951 0 0
576 1 4.13 81.1468 -742.462120245875781 0 0
577 1 4.13 81.1468 -738.219479558756461 0 0
578 1 4.13 81.1468 -733.976838871637142 0 0
579 1 4.13 81.1468 -729.734198184517936 0 0
580 1 4.13 81.1468 -725.491557497398617 0 0
581 1 4.13 81.1468 -721.248916810279297 0 0
582 1 4.13 81.1468 -717.006276123159978 0 0
583 1 4.13 81.1468 -712.763635436040772 0 0
584 1 4.13 81.1468 -708.520994748921453 0 0
585 1 4.13 81.1468 -704.278354061802133 0 0
586 1 4.13 81.1468 -700.035713374682814 0 0
587 1 4.13 81.1468 -695.793072687563608 0 0
588 1 4.13 81.1468 -691.550432000444289 0 0
589 1 4.13 81.1468 -687.307791313324969 0 0
590 1 4.13 81.1468 -683.06515062620565 0 0
591 1 4.13 81.1468 -678.822509939086444 0 0
592 1 4.13 81.1468 -674.579869251967125 0 0
593 1 4.13 81.1468 -670.337228564847806 0 0
594 1 4.13 81.1468 -666.0945878777286 0 0
595 1 4.13 81.1468 -661.85194719060928 0 0
596 1 4.13 81.1468 -657.609306503489961 0 0
597 1 4.13 81.1468 -653.366665816370642 0 0
598 1 4.13 81.1468 -649.124025129251436 0 0
599 1 4.13 81.1468 -644.881384442132116 0 0
600 1 4.13 81.1468 -640.638743755012797 0 0
601 1 4.13 81.1468 -636.396103067893478 0 0
602 1 4.13 81.1468 -632.153462380774272 0 0
603 1 4.13 81.1468 -627.910821693654952 0 0
604 1 4.13 81.1468 -623.668181006535633 0 0
605 1 4.13 81.1468 -619.425540319416314 0 0
606 1 4.13 81.1468 -615.182899632297108 0 0
607 1 4.13 81.1468 -610.940258945177789 0 0
608 1 4.13 81.1468 -606.697618258058469 0 0
609 1 4.13 81.1468 -602.45497757093915 0 0
610 1 4.13 81.1468 -598.212336883819944 0 0
611 1 4.13 81.1468 -593.969696196700625 0 0
612 1 4.13 81.1468 -589.727055509581305 0 0
613 1 4.13 81.1468 -585.484414822461986 0 0
614 1 4.13 81.1468 -581.24177413534278 0 0
615 1 4.13 81.1468 -576.999133448223461 0 0
616 1 4.13 81.1468 -572.756492761104141 0 0
617 1 4.13 81.1468 -568.513852073984822 0 0
618 1 4.13 81.1468 -564.271211386865616 0 0
619 1 4.13 81.1468 -560.028570699746297 0 0
620 1 4.13 81.1468 -555.785930012626977 0 0
621 1 4.13 81.1468 -551.543289325507658 0 0
622 1 4.13 81.1468 -547.300648638388452 0 0
623 1 4.13 81.1468 -543.058007951269133 0 0
624 1 4.13 81.1468 -538.815367264149813 0 0
625 1 4.13 81.1468 -534.572726577030608 0 0
626 1 4.13 81.1468 -530.330085889911288 0 0
627 1 4.13 81.1468 -526.087445202791969 0 0
628 1 4.13 81.1468 -521.844804515672649 0 0
629 1 4.13 81.1468 -517.602163828553444 0 0
630 1 4.13 81.1468 -513.359523141434124 0 0
631 1 4.13 81.1468 -509.116882454314805 0 0
632 1 4.13 81.1468 -504.874241767195542 0 0
633 1 4.13 81.1468 -500.631601080076223 0 0
634 1 4.13 81.1468 -496.38896039295696 0 0
635 1 4.13 81.1468 -492.146319705837641 0 0
636 1 4.13 81.1468 -487.903679018718378 0 0
637 1 4.13 81.1468 -483.661038331599059 0 0
638 1 4.13 81.1468 -479.418397644479796 0 0
639 1 4.13 81.1468 -475.175756957360477 0 0
640 1 4.13 81.1468 -470.933116270241214 0 0
641 1 4.13 81.1468 -466.690475583121895 0 0
642 1 4.13 81.1468 -462.447834896002632 0 0
643 1 4.13 81.1468 -458.205194208883313 0 0
644 1 4.13 81.1468 -453.96255352176405 0 0
645 1 4.13 81.1468 -449.719912834644731 0 0
646 1 4.13 81.1468 -445.477272147525468 0 0
647 1 4.13 81.1468 -441.234631460406149 0 0
648 1 4.13 81.1468 -436.991990773286886 0 0
649 1 4.13 81.1468 -432.749350086167567 0 0
650 1 4.13 81.1468 -428.506709399048304 0 0
651 1 4.13 81.1468 -424.264068711928985 0 0
652 1 4.13 81.1468 -420.021428024809723 0 0
653 1 4.13 81.1468 -415.778787337690403 0 0
654 1 4.13 81.1468 -411.536146650571141 0 0
655 1 4.13 81.1468 -407.293505963451821 0 0
656 1 4.13 81.1468 -403.050865276332559 0 0
657 1 4.13 81.1468 -398.808224589213296 0 0
658 1 4.13 81.1468 -394.565583902093977 0 0
659 1 4.13 81.1468 -390.322943214974714 0 0
660 1 4.13 81.1468 -386.080302527855395 0 0
661 1 4.13 81.1468 -381.837661840736132 0 0
662 1 4.13 81.1468 -377.595021153616813 0 0
663 1 4.13 81.1468 -373.35238046649755 0 0
664 1 4.13 81.1468 -369.109739779378231 0 0
665 1 4.13 81.1468 -364.867099092258968 0 0
666 1 4.13 81.1468 -360.624458405139649 0 0
667 1 4.13 81.1468 -356.381817718020386 0 0
668 1 4.13 81.1468 -352.139177030901067 0 0
669 1 4.13 81.1468 -347.896536343781804 0 0
670 1 4.13 81.1468 -343.653895656662485 0 0
671 1 4.13 81.1468 -339.411254969543222 0 0
672 1 4.13 81.1468 -335.168614282423903 0 0
673 1 4.13 81.1468 -330.92597359530464 0 0
674 1 4.13 81.1468 -326.683332908185321 0 0
675 1 4.13 81.1468 -322.440692221066058 0 0
676 1 4.13 81.1468 -318.198051533946739 0 0
677 1 4.13 81.1468 -313.955410846827476 0 0
678 1 4.13 81.1468 -309.712770159708157 0 0
679 1 4.13 81.1468 -305.470129472588894 0 0
680 1 4.13 81.1468 -301.227488785469575 0 0