LAMMPS (23 Jun 2022 - Update 1)
  using 1 OpenMP thread(s) per MPI task
variable num index 0 1 2 3 4 5 6 7 8 9 10 11 12 13 14 15 16 17 18 19 20 21 22 23 24 25 26 27 28 29 30 31 32 33 34 35 36 37 38 39 40 41 42 43 44 45 46 47 48 49 50 51 52 53 54 55 56 57 58 59 60 61 62 63 64 65 66 67 68 69 70 71 72 73 74 75 76 77 78 79 80 81 82 83 84 85 86 87 88 89 90 91 92 93 94 95 96 97 98 99

label startloop

include granular.in
### Simulation of contact between two chain

##################### Simulation setup ####################

units micro                              # units
dimension	3                            # dimension
boundary	p p p                        # boundary condition p: periodic
atom_style	sphere                       # atom style
#processors * * 1

####################### Parameter ##################################

variable ind equal ${num}
variable ind equal 0

#variable lat0 equal 1                    #
variable lat1 equal 3*(2^(1/2))       # Lattice distance of bottom chain
variable lat2 equal 3                   # Lattice distance of top chain
variable d1 equal 3+(100*0.01)+(v_ind*0.01)                      # Diamter of particle at bottom chain
variable d2 equal 3                      # Diamter of particle at top chain
#variable d3 equal 1                      # Diamter of supporting particle

variable n2e1 equal 500*v_lat2              # Half length of top chain. 1500 is number of particles
variable n1e1 equal 1.5*v_n2e1*(v_lat1/v_lat2)               # Half length of bottom chain, which is 1.5 time larger than top chain
variable n1e2 equal -v_n1e1
variable n2e2 equal -v_n2e1
#variable lenspr equal -(v_n2e1+100)           # length of the spring connecting top chain and supporting particle
#variable lenspr1 equal -v_lenspr-0.1         # Position of supporting particle upper bound
#variable lenspr2 equal -v_lenspr+0.1         # Position of supporting particle lower bound

variable den equal 2.2 #grams/cm^3      # micrometer^3=10^-12 cm^3 Density of materials
#variable den2 equal 1.5

variable V1 equal (1/6)*PI*(v_d1^3)     # Volume of particle 1
variable V2 equal (1/6)*PI*(v_d2^3)     # Volume of particle 2
#variable V3 equal (1/6)*PI*(v_d3^3)     # Volume of particle 3

variable mass1 equal v_den*v_V1  # Mass of particle 1 (picograms)
variable mass2 equal v_den*v_V2  # Mass of particle 2
#variable mass3 equal v_den*v_V3  # Mass of particle 3

# E GPa to picogram/(micrometer-microsecond^2)= 10^3 Pa= 10^-6 GPa
# Force unit(picogram-micrometer/microsecond^2)=10^-9 N= 1nN
# Spring stiffness (force/distance) 10^-3 N/m

variable K0 equal (1500/50)*(10^5)             # Spring stiffness conneting top chain and sup particle
variable E equal 100*(10^6)                    # Young's Modulus using for Hertz/material model
variable PR equal 0.3                          # Poisson's ratio using for Hertz/material model
variable Fn equal -1000 #-(v_ind*100)                       # Force apply to each particles in top chain
variable dt equal 0.00001                      # Time step units microsecond
variable lgv equal 0.5                         #damping for langevin thermostat for slider


################### Creating the model #################################
lattice sc ${lat1}                                                               # Bottom chain type1
lattice sc 4.24264068711929                                                               
Lattice spacing in x,y,z = 4.2426407 4.2426407 4.2426407

region box block ${n1e2} ${n1e1} -100 100 -100 100 units box
region box block -3181.98051533947 ${n1e1} -100 100 -100 100 units box
region box block -3181.98051533947 3181.98051533947 -100 100 -100 100 units box
region substrate block ${n1e2} ${n1e1} -0.5 0.5 0 0.5 units box
region substrate block -3181.98051533947 ${n1e1} -0.5 0.5 0 0.5 units box
region substrate block -3181.98051533947 3181.98051533947 -0.5 0.5 0 0.5 units box

create_box 2 box
Created orthogonal box = (-3181.9805 -100 -100) to (3181.9805 100 100)
  4 by 1 by 1 MPI processor grid
create_atoms 1 region substrate
Created 1500 atoms
  using lattice units in orthogonal box = (-3181.9805 -100 -100) to (3181.9805 100 100)
  create_atoms CPU = 0.001 seconds

lattice sc ${lat2}                                                             # Top chain type2
lattice sc 3                                                             
Lattice spacing in x,y,z = 3 3 3

region slider1 block ${n2e2} ${n2e1} -0.1 0.1 5.9 6.1 units box
region slider1 block -1500 ${n2e1} -0.1 0.1 5.9 6.1 units box
region slider1 block -1500 1500 -0.1 0.1 5.9 6.1 units box

create_atoms 2 region slider1
Created 1001 atoms
  using lattice units in orthogonal box = (-3181.9805 -100 -100) to (3181.9805 100 100)
  create_atoms CPU = 0.003 seconds

#lattice sc ${lat0}                                                             # Supporting particle type3

#region support block ${lenspr1} ${lenspr2} -0.1 0.1 7.9 8.1 units box

#create_atoms 3 region support

set type 1 diameter ${d1}                    # Set mass and diameter for each particles type
set type 1 diameter 4                    
Setting atom values ...
  1500 settings made for diameter
set type 1 mass ${mass1}
set type 1 mass 73.7227076042404
Setting atom values ...
  1500 settings made for mass
set type 2 diameter ${d2}
set type 2 diameter 3
Setting atom values ...
  1001 settings made for diameter
set type 2 mass ${mass2}
set type 2 mass 31.101767270539
Setting atom values ...
  1001 settings made for mass
#set type 3 diameter ${d3}
#set type 3 mass ${mass3}

group substrate region substrate           # Define gorup
1500 atoms in group substrate
group slider1 region slider1
1001 atoms in group slider1
#group support region support
group substrate_slider union substrate slider1
2501 atoms in group substrate_slider

########################## Potential ###################################
pair_style granular
pair_coeff 1 1 hertz/material 0.00000001 0.001 ${PR} tangential mindlin NULL 0.1 0.01 damping viscoelastic              ########### set E between each particle in same type is small to neglect their interaction
pair_coeff 1 1 hertz/material 0.00000001 0.001 0.3 tangential mindlin NULL 0.1 0.01 damping viscoelastic              
pair_coeff 2 2 hertz/material 0.00000001 0.001 ${PR} tangential mindlin NULL 0.1 0.01 damping viscoelastic
pair_coeff 2 2 hertz/material 0.00000001 0.001 0.3 tangential mindlin NULL 0.1 0.01 damping viscoelastic
#pair_coeff 3 3 hertz/material ${E} 0.001 ${PR} tangential mindlin NULL 0.1 0.01 damping viscoelastic
pair_coeff 1 2 hertz/material ${E} 0.001 ${PR} tangential mindlin NULL 0.1 0.01 damping viscoelastic
pair_coeff 1 2 hertz/material 100000000 0.001 ${PR} tangential mindlin NULL 0.1 0.01 damping viscoelastic
pair_coeff 1 2 hertz/material 100000000 0.001 0.3 tangential mindlin NULL 0.1 0.01 damping viscoelastic
#pair_coeff 1 3 hertz/material 0.00000001 0.001 ${PR} tangential mindlin NULL 0.1 0.01 damping viscoelastic
#pair_coeff 2 3 hertz/material 0.00000001 0.001 ${PR} tangential mindlin NULL 0.1 0.01 damping viscoelastic
comm_modify     vel yes
neigh_modify    delay 0 every 1 check yes

### Compute properties ###

compute 1 slider1 com                      # Compute the center of mass of top chain
#compute 2 support com                      # Compute the center of mass of supporting particle

variable p0 equal "step"

variable slider_z equal "c_1[3]"          # output the position of top chain in z-direction

#variable distance equal "c_2[1]-c_1[1]"   # Distance between COM of top chain and supporting particle

thermo 100000
thermo_style custom step lx ly lz press pxx pyy pzz ke pe temp c_1[1] c_1[2] c_1[3] #c_2[1] c_2[2] c_2[3] v_distance

############### Fix ##################


############## Equilibrium the system with apply force ########################

fix force_slider1 slider1 setforce NULL 0 NULL                                # Fix top chain not to move in y-direction

fix f_sub substrate freeze                                                    # Freeze the bottom chain

fix rigid_top slider1 rigid/nve group 1 slider1 langevin 0 0 ${lgv} 6987532   # NVE+langevin
fix rigid_top slider1 rigid/nve group 1 slider1 langevin 0 0 0.5 6987532   
  1 rigid bodies with 1001 atoms

fix add slider1 addforce 0 0 ${Fn} every 1                                    # Add force to top layer
fix add slider1 addforce 0 0 -1000 every 1                                    

timestep ${dt}
timestep 1e-05

# fix  nve_1 slider1 nve

dump 		D1 all custom 100000 Equi_${num}_*.dump id type diameter mass xu yu zu
dump 		D1 all custom 100000 Equi_0_*.dump id type diameter mass xu yu zu
dump_modify D1 format 5 %.18g
dump_modify D1 format 7 %.18g

run 3000000
Generated 0 of 1 mixed pair_coeff terms from geometric mixing rule
Neighbor list info ...
  update every 1 steps, delay 0 steps, check yes
  max neighbors/atom: 2000, page size: 100000
  master list distance cutoff = 4.1
  ghost atom cutoff = 4.1
  binsize = 2.05, bins = 3105 98 98
  1 neighbor lists, perpetual/occasional/extra = 1 0 0
  (1) pair granular, perpetual
      attributes: half, newton on, size, history
      pair build: half/size/bin/newton
      stencil: half/bin/3d
      bin: standard
Per MPI rank memory allocation (min/avg/max) = 44.43 | 44.44 | 44.44 Mbytes
   Step           Lx             Ly             Lz           Press           Pxx            Pyy            Pzz           KinEng         PotEng          Temp          c_1[1]         c_1[2]         c_1[3]    
         0   6363.961       200            200            0              0              0              0              0              0              0              1.1965779e-13  0              6            
    100000   6363.961       200            200           -0.0002965533   5.0774281e-35  0             -0.0008896599   554767.77      0              5.35755e+10    1.1965779e-13  0              3.5939312    
    200000   6363.961       200            200           -0.00023890292  2.5387224e-35  0             -0.00071670877  13133.732      0              1.2683619e+09  1.1965779e-13  0              3.6478593    
    300000   6363.961       200            200            8.9867103e-05  5.0774257e-35  0              0.00026960131  1394.9466      0              1.3471395e+08  1.1965779e-13  0              3.5359843    
    400000   6363.961       200            200            0.00012213693  5.077315e-35   0              0.00036641078  2548.4965      0              2.4611555e+08  1.1965779e-13  0              3.5025951    
    500000   6363.961       200            200            0.00060104645 -0.00063760965  0              0.002440749    6.0801267      0              587175.11      1.1965779e-13  0              3.4981248    
    600000   6363.961       200            200            0.0032422378  -0.0025233948   0              0.012250108    151.16256      0              14598198       1.1965779e-13  0              3.4957684    
    700000   6363.961       200            200            0.003714473   -0.0024029699   0              0.013546389    21.83137       0              2108317.5      1.1965779e-13  0              3.4955583    
    800000   6363.961       200            200            0.0037370664  -0.0024421649   0              0.013653364    2.918748       0              281871.79      1.1965779e-13  0              3.495544     
    900000   6363.961       200            200            0.0037531477  -0.002441925    0              0.013701368    0.38863903     0              37531.976      1.1965779e-13  0              3.4955373    
   1000000   6363.961       200            200            0.0037611158  -0.0024425891   0              0.013725936    0.05170087     0              4992.9         1.1965779e-13  0              3.4955337    
   1100000   6363.961       200            200            0.0037646418  -0.0024428931   0              0.013736819    0.0068330682   0              659.88881      1.1965779e-13  0              3.4955321    
   1200000   6363.961       200            200            0.0037662267  -0.0024430258   0              0.013741706    0.00089709819  0              86.635322      1.1965779e-13  0              3.4955314    
   1300000   6363.961       200            200            0.0037669315  -0.0024430796   0              0.013743874    0.00011714427  0              11.312955      1.1965779e-13  0              3.495531     
   1400000   6363.961       200            200            0.0037672343  -0.0024431052   0              0.013744808    1.5214402e-05  0              1.469298       1.1965779e-13  0              3.4955309    
   1500000   6363.961       200            200            0.0037673617  -0.002443116    0              0.013745201    1.9650176e-06  0              0.18976733     1.1965779e-13  0              3.4955308    
   1600000   6363.961       200            200            0.0037674143  -0.0024431205   0              0.013745363    2.5232311e-07  0              0.02436756     1.1965779e-13  0              3.4955308    
   1700000   6363.961       200            200            0.0037674357  -0.0024431224   0              0.013745429    3.2203425e-08  0              0.0031099763   1.1965779e-13  0              3.4955308    
   1800000   6363.961       200            200            0.0037674443  -0.0024431231   0              0.013745456    4.0836826e-09  0              0.00039437284  1.1965779e-13  0              3.4955308    
   1900000   6363.961       200            200            0.0037674478  -0.0024431234   0              0.013745467    5.1429118e-10  0              4.9666561e-05  1.1965779e-13  0              3.4955308    
   2000000   6363.961       200            200            0.0037674491  -0.0024431235   0              0.013745471    6.4296913e-11  0              6.2093356e-06  1.1965779e-13  0              3.4955308    
   2100000   6363.961       200            200            0.0037674496  -0.0024431236   0              0.013745472    7.9753265e-12  0              7.7019995e-07  1.1965779e-13  0              3.4955308    
   2200000   6363.961       200            200            0.0037674498  -0.0024431236   0              0.013745473    9.8065955e-13  0              9.470508e-08   1.1965779e-13  0              3.4955308    
   2300000   6363.961       200            200            0.0037674499  -0.0024431236   0              0.013745473    1.1936813e-13  0              1.152772e-08   1.1965779e-13  0              3.4955308    
   2400000   6363.961       200            200            0.00376745    -0.0024431236   0              0.013745473    1.4184436e-14  0              1.3698313e-09  1.1965779e-13  0              3.4955308    
   2500000   6363.961       200            200            0.00376745    -0.0024431236   0              0.013745473    1.6629495e-15  0              1.6059576e-10  1.1965779e-13  0              3.4955308    
   2600000   6363.961       200            200            0.00376745    -0.0024431236   0              0.013745474    1.6134319e-16  0              1.5581371e-11  1.1965779e-13  0              3.4955308    
   2700000   6363.961       200            200            0.00376745    -0.0024431236   0              0.013745474    3.5512563e-19  0              3.4295492e-14  1.1965779e-13  0              3.4955308    
   2800000   6363.961       200            200            0.00376745    -0.0024431236   0              0.013745474    6.6141756e-18  0              6.3874973e-13  1.1965779e-13  0              3.4955308    
   2900000   6363.961       200            200            0.00376745    -0.0024431236   0              0.013745474    2.0553947e-18  0              1.9849531e-13  1.1965779e-13  0              3.4955308    
   3000000   6363.961       200            200            0.00376745    -0.0024431236   0              0.013745474    3.7472677e-18  0              3.6188429e-13  1.1965779e-13  0              3.4955308    
Loop time of 304.051 on 4 procs for 3000000 steps with 2501 atoms

Performance: 8524891.796 ns/day, 0.000 hours/ns, 9866.773 timesteps/s
100.0% CPU use with 4 MPI tasks x 1 OpenMP threads

MPI task timing breakdown:
Section |  min time  |  avg time  |  max time  |%varavg| %total
---------------------------------------------------------------
Pair    | 11.861     | 41.981     | 73.294     | 464.3 | 13.81
Neigh   | 1.352      | 1.3718     | 1.389      |   1.2 |  0.45
Comm    | 12.839     | 17.713     | 24.238     | 105.4 |  5.83
Output  | 0.24298    | 0.24335    | 0.24376    |   0.1 |  0.08
Modify  | 180.5      | 184.23     | 188.07     |  21.9 | 60.59
Other   |            | 58.52      |            |       | 19.25

Nlocal:         625.25 ave         877 max         374 min
Histogram: 2 0 0 0 0 0 0 0 0 2
Nghost:           1.75 ave           3 max           1 min
Histogram: 2 0 0 0 0 1 0 0 0 1
Neighs:         350.75 ave         702 max           0 min
Histogram: 2 0 0 0 0 0 0 0 0 2

Total # of neighbors = 1403
Ave neighs/atom = 0.56097561
Neighbor list builds = 146
Dangerous builds = 0

undump D1

############ Add spring between top chain to supp particle and then equilibrium  ###########

#fix sp1 support spring couple slider1 ${K0} ${lenspr} NULL NULL 0                                 # Add spring

#dump 		D2 all custom 100000 add_${num}*.dump id type diameter mass xu yu zu

#fix add1 all print 10 "${p0} ${distance} ${slider_z}" file add_distance_${num}.txt screen no      # out put step, distance(spring length), z-position of top chain

#run 1000000

#undump D2

#unfix add1

########## Pulling the supporting particle with constant velocity #############

#fix m1 support move linear 0.1 0 0 units box                                                      # apply constant velocity to supporting particles along x-direction V=0.1m/s

#fix move1 all print 100 "${p0} ${distance} ${slider_z}" file move_distance_${num}.txt screen no

#dump 		1 all custom 50000 move_${num}_*.dump id type diameter mass xu yu zu

#run 1000000

clear
  using 1 OpenMP thread(s) per MPI task

next num

jump SELF startloop

include granular.in
### Simulation of contact between two chain

##################### Simulation setup ####################

units micro                              # units
dimension	3                            # dimension
boundary	p p p                        # boundary condition p: periodic
atom_style	sphere                       # atom style
#processors * * 1

####################### Parameter ##################################

variable ind equal ${num}
variable ind equal 1

#variable lat0 equal 1                    #
variable lat1 equal 3*(2^(1/2))       # Lattice distance of bottom chain
variable lat2 equal 3                   # Lattice distance of top chain
variable d1 equal 3+(100*0.01)+(v_ind*0.01)                      # Diamter of particle at bottom chain
variable d2 equal 3                      # Diamter of particle at top chain
#variable d3 equal 1                      # Diamter of supporting particle

variable n2e1 equal 500*v_lat2              # Half length of top chain. 1500 is number of particles
variable n1e1 equal 1.5*v_n2e1*(v_lat1/v_lat2)               # Half length of bottom chain, which is 1.5 time larger than top chain
variable n1e2 equal -v_n1e1
variable n2e2 equal -v_n2e1
#variable lenspr equal -(v_n2e1+100)           # length of the spring connecting top chain and supporting particle
#variable lenspr1 equal -v_lenspr-0.1         # Position of supporting particle upper bound
#variable lenspr2 equal -v_lenspr+0.1         # Position of supporting particle lower bound

variable den equal 2.2 #grams/cm^3      # micrometer^3=10^-12 cm^3 Density of materials
#variable den2 equal 1.5

variable V1 equal (1/6)*PI*(v_d1^3)     # Volume of particle 1
variable V2 equal (1/6)*PI*(v_d2^3)     # Volume of particle 2
#variable V3 equal (1/6)*PI*(v_d3^3)     # Volume of particle 3

variable mass1 equal v_den*v_V1  # Mass of particle 1 (picograms)
variable mass2 equal v_den*v_V2  # Mass of particle 2
#variable mass3 equal v_den*v_V3  # Mass of particle 3

# E GPa to picogram/(micrometer-microsecond^2)= 10^3 Pa= 10^-6 GPa
# Force unit(picogram-micrometer/microsecond^2)=10^-9 N= 1nN
# Spring stiffness (force/distance) 10^-3 N/m

variable K0 equal (1500/50)*(10^5)             # Spring stiffness conneting top chain and sup particle
variable E equal 100*(10^6)                    # Young's Modulus using for Hertz/material model
variable PR equal 0.3                          # Poisson's ratio using for Hertz/material model
variable Fn equal -1000 #-(v_ind*100)                       # Force apply to each particles in top chain
variable dt equal 0.00001                      # Time step units microsecond
variable lgv equal 0.5                         #damping for langevin thermostat for slider


################### Creating the model #################################
lattice sc ${lat1}                                                               # Bottom chain type1
lattice sc 4.24264068711929                                                               
Lattice spacing in x,y,z = 4.2426407 4.2426407 4.2426407

region box block ${n1e2} ${n1e1} -100 100 -100 100 units box
region box block -3181.98051533947 ${n1e1} -100 100 -100 100 units box
region box block -3181.98051533947 3181.98051533947 -100 100 -100 100 units box
region substrate block ${n1e2} ${n1e1} -0.5 0.5 0 0.5 units box
region substrate block -3181.98051533947 ${n1e1} -0.5 0.5 0 0.5 units box
region substrate block -3181.98051533947 3181.98051533947 -0.5 0.5 0 0.5 units box

create_box 2 box
Created orthogonal box = (-3181.9805 -100 -100) to (3181.9805 100 100)
  4 by 1 by 1 MPI processor grid
create_atoms 1 region substrate
Created 1500 atoms
  using lattice units in orthogonal box = (-3181.9805 -100 -100) to (3181.9805 100 100)
  create_atoms CPU = 0.001 seconds

lattice sc ${lat2}                                                             # Top chain type2
lattice sc 3                                                             
Lattice spacing in x,y,z = 3 3 3

region slider1 block ${n2e2} ${n2e1} -0.1 0.1 5.9 6.1 units box
region slider1 block -1500 ${n2e1} -0.1 0.1 5.9 6.1 units box
region slider1 block -1500 1500 -0.1 0.1 5.9 6.1 units box

create_atoms 2 region slider1
Created 1001 atoms
  using lattice units in orthogonal box = (-3181.9805 -100 -100) to (3181.9805 100 100)
  create_atoms CPU = 0.001 seconds

#lattice sc ${lat0}                                                             # Supporting particle type3

#region support block ${lenspr1} ${lenspr2} -0.1 0.1 7.9 8.1 units box

#create_atoms 3 region support

set type 1 diameter ${d1}                    # Set mass and diameter for each particles type
set type 1 diameter 4.01                    
Setting atom values ...
  1500 settings made for diameter
set type 1 mass ${mass1}
set type 1 mass 74.2770113639572
Setting atom values ...
  1500 settings made for mass
set type 2 diameter ${d2}
set type 2 diameter 3
Setting atom values ...
  1001 settings made for diameter
set type 2 mass ${mass2}
set type 2 mass 31.101767270539
Setting atom values ...
  1001 settings made for mass
#set type 3 diameter ${d3}
#set type 3 mass ${mass3}

group substrate region substrate           # Define gorup
1500 atoms in group substrate
group slider1 region slider1
1001 atoms in group slider1
#group support region support
group substrate_slider union substrate slider1
2501 atoms in group substrate_slider

########################## Potential ###################################
pair_style granular
pair_coeff 1 1 hertz/material 0.00000001 0.001 ${PR} tangential mindlin NULL 0.1 0.01 damping viscoelastic              ########### set E between each particle in same type is small to neglect their interaction
pair_coeff 1 1 hertz/material 0.00000001 0.001 0.3 tangential mindlin NULL 0.1 0.01 damping viscoelastic              
pair_coeff 2 2 hertz/material 0.00000001 0.001 ${PR} tangential mindlin NULL 0.1 0.01 damping viscoelastic
pair_coeff 2 2 hertz/material 0.00000001 0.001 0.3 tangential mindlin NULL 0.1 0.01 damping viscoelastic
#pair_coeff 3 3 hertz/material ${E} 0.001 ${PR} tangential mindlin NULL 0.1 0.01 damping viscoelastic
pair_coeff 1 2 hertz/material ${E} 0.001 ${PR} tangential mindlin NULL 0.1 0.01 damping viscoelastic
pair_coeff 1 2 hertz/material 100000000 0.001 ${PR} tangential mindlin NULL 0.1 0.01 damping viscoelastic
pair_coeff 1 2 hertz/material 100000000 0.001 0.3 tangential mindlin NULL 0.1 0.01 damping viscoelastic
#pair_coeff 1 3 hertz/material 0.00000001 0.001 ${PR} tangential mindlin NULL 0.1 0.01 damping viscoelastic
#pair_coeff 2 3 hertz/material 0.00000001 0.001 ${PR} tangential mindlin NULL 0.1 0.01 damping viscoelastic
comm_modify     vel yes
neigh_modify    delay 0 every 1 check yes

### Compute properties ###

compute 1 slider1 com                      # Compute the center of mass of top chain
#compute 2 support com                      # Compute the center of mass of supporting particle

variable p0 equal "step"

variable slider_z equal "c_1[3]"          # output the position of top chain in z-direction

#variable distance equal "c_2[1]-c_1[1]"   # Distance between COM of top chain and supporting particle

thermo 100000
thermo_style custom step lx ly lz press pxx pyy pzz ke pe temp c_1[1] c_1[2] c_1[3] #c_2[1] c_2[2] c_2[3] v_distance

############### Fix ##################


############## Equilibrium the system with apply force ########################

fix force_slider1 slider1 setforce NULL 0 NULL                                # Fix top chain not to move in y-direction

fix f_sub substrate freeze                                                    # Freeze the bottom chain

fix rigid_top slider1 rigid/nve group 1 slider1 langevin 0 0 ${lgv} 6987532   # NVE+langevin
fix rigid_top slider1 rigid/nve group 1 slider1 langevin 0 0 0.5 6987532   
  1 rigid bodies with 1001 atoms

fix add slider1 addforce 0 0 ${Fn} every 1                                    # Add force to top layer
fix add slider1 addforce 0 0 -1000 every 1                                    

timestep ${dt}
timestep 1e-05

# fix  nve_1 slider1 nve

dump 		D1 all custom 100000 Equi_${num}_*.dump id type diameter mass xu yu zu
dump 		D1 all custom 100000 Equi_1_*.dump id type diameter mass xu yu zu
dump_modify D1 format 5 %.18g
dump_modify D1 format 7 %.18g

run 3000000
Generated 0 of 1 mixed pair_coeff terms from geometric mixing rule
Neighbor list info ...
  update every 1 steps, delay 0 steps, check yes
  max neighbors/atom: 2000, page size: 100000
  master list distance cutoff = 4.11
  ghost atom cutoff = 4.11
  binsize = 2.055, bins = 3097 98 98
  1 neighbor lists, perpetual/occasional/extra = 1 0 0
  (1) pair granular, perpetual
      attributes: half, newton on, size, history
      pair build: half/size/bin/newton
      stencil: half/bin/3d
      bin: standard
Per MPI rank memory allocation (min/avg/max) = 44.35 | 44.36 | 44.36 Mbytes
   Step           Lx             Ly             Lz           Press           Pxx            Pyy            Pzz           KinEng         PotEng          Temp          c_1[1]         c_1[2]         c_1[3]    
         0   6363.961       200            200            0              0              0              0              0              0              0              1.1965779e-13  0              6            
    100000   6363.961       200            200           -0.00030907303  2.0310434e-34  0             -0.0009272191   547330.33      0              5.2857246e+10  1.1965779e-13  0              3.603874     
    200000   6363.961       200            200           -0.00023011194 -1.5231843e-34  0             -0.00069033581  11983.967      0              1.1573258e+09  1.1965779e-13  0              3.6538707    
    300000   6363.961       200            200            0.00010381356  1.2693303e-35  0              0.00031144067  1834.5035      0              1.7716321e+08  1.1965779e-13  0              3.5405303    
    400000   6363.961       200            200            0.00013754149 -5.0772014e-35  0              0.00041262446  3182.8392      0              3.0737583e+08  1.1965779e-13  0              3.5069466    
    500000   6363.961       200            200            0.00067188306 -0.00065452684  0              0.002670176    64.983795      0              6275669.8      1.1965779e-13  0              3.5030555    
    600000   6363.961       200            200            0.0029109659  -0.0024733093   0              0.011206207    123.4568       0              11922574       1.1965779e-13  0              3.5009596    
    700000   6363.961       200            200            0.0035527441  -0.0024060948   0              0.013064327    19.123025      0              1846764.9      1.1965779e-13  0              3.5006448    
    800000   6363.961       200            200            0.0036844641  -0.0024131781   0              0.01346657     2.438986       0              235539.81      1.1965779e-13  0              3.500581     
    900000   6363.961       200            200            0.0037346819  -0.0024333014   0              0.013637347    0.30328703     0              29289.29       1.1965779e-13  0              3.5005539    
   1000000   6363.961       200            200            0.0037587752  -0.0024354093   0              0.013711735    0.03705856     0              3578.8505      1.1965779e-13  0              3.5005421    
   1100000   6363.961       200            200            0.0037688866  -0.0024363421   0              0.013743002    0.0043687953   0              421.90698      1.1965779e-13  0              3.5005371    
   1200000   6363.961       200            200            0.003773133   -0.0024367306   0              0.01375613     0.00049851389  0              48.142903      1.1965779e-13  0              3.500535     
   1300000   6363.961       200            200            0.0037748848  -0.0024368834   0              0.013761538    5.4910999e-05  0              5.3029112      1.1965779e-13  0              3.5005341    
   1400000   6363.961       200            200            0.0037755928  -0.0024369453   0              0.013763724    5.7953881e-06  0              0.5596771      1.1965779e-13  0              3.5005338    
   1500000   6363.961       200            200            0.0037758742  -0.0024369699   0              0.013764592    5.791529e-07   0              0.055930442    1.1965779e-13  0              3.5005336    
   1600000   6363.961       200            200            0.0037759845  -0.0024369796   0              0.013764933    5.3751298e-08  0              0.0051909156   1.1965779e-13  0              3.5005336    
   1700000   6363.961       200            200            0.0037760272  -0.0024369834   0              0.013765065    4.4766995e-09  0              0.00043232759  1.1965779e-13  0              3.5005336    
   1800000   6363.961       200            200            0.0037760435  -0.0024369848   0              0.013765115    3.1194868e-10  0              3.012577e-05   1.1965779e-13  0              3.5005335    
   1900000   6363.961       200            200            0.0037760497  -0.0024369854   0              0.013765134    1.5154702e-11  0              1.4635326e-06  1.1965779e-13  0              3.5005335    
   2000000   6363.961       200            200            0.003776052   -0.0024369856   0              0.013765142    2.1635196e-13  0              2.0893723e-08  1.1965779e-13  0              3.5005335    
   2100000   6363.961       200            200            0.0037760529  -0.0024369856   0              0.013765144    3.4133116e-14  0              3.296332e-09   1.1965779e-13  0              3.5005335    
   2200000   6363.961       200            200            0.0037760532  -0.0024369857   0              0.013765145    3.9321985e-14  0              3.7974358e-09  1.1965779e-13  0              3.5005335    
   2300000   6363.961       200            200            0.0037760533  -0.0024369857   0              0.013765146    1.4134904e-14  0              1.3650478e-09  1.1965779e-13  0              3.5005335    
   2400000   6363.961       200            200            0.0037760534  -0.0024369857   0              0.013765146    3.6663262e-15  0              3.5406754e-10  1.1965779e-13  0              3.5005335    
   2500000   6363.961       200            200            0.0037760534  -0.0024369857   0              0.013765146    8.3583322e-16  0              8.071879e-11   1.1965779e-13  0              3.5005335    
   2600000   6363.961       200            200            0.0037760534  -0.0024369857   0              0.013765146    1.8268114e-16  0              1.7642037e-11  1.1965779e-13  0              3.5005335    
   2700000   6363.961       200            200            0.0037760534  -0.0024369857   0              0.013765146    6.2199629e-17  0              6.0067949e-12  1.1965779e-13  0              3.5005335    
   2800000   6363.961       200            200            0.0037760534  -0.0024369857   0              0.013765146    5.4935975e-18  0              5.3053233e-13  1.1965779e-13  0              3.5005335    
   2900000   6363.961       200            200            0.0037760534  -0.0024369857   0              0.013765146    6.2460988e-18  0              6.0320351e-13  1.1965779e-13  0              3.5005335    
   3000000   6363.961       200            200            0.0037760534  -0.0024369857   0              0.013765146    6.6037041e-18  0              6.3773847e-13  1.1965779e-13  0              3.5005335    
Loop time of 294.307 on 4 procs for 3000000 steps with 2501 atoms

Performance: 8807124.014 ns/day, 0.000 hours/ns, 10193.431 timesteps/s
100.0% CPU use with 4 MPI tasks x 1 OpenMP threads

MPI task timing breakdown:
Section |  min time  |  avg time  |  max time  |%varavg| %total
---------------------------------------------------------------
Pair    | 11.715     | 40.88      | 70.316     | 451.5 | 13.89
Neigh   | 1.3871     | 1.4046     | 1.4218     |   1.0 |  0.48
Comm    | 12.83      | 17.759     | 21.944     |  88.1 |  6.03
Output  | 0.24107    | 0.24138    | 0.24174    |   0.1 |  0.08
Modify  | 174.55     | 177.83     | 181.06     |  21.1 | 60.42
Other   |            | 56.19      |            |       | 19.09

Nlocal:         625.25 ave         877 max         374 min
Histogram: 2 0 0 0 0 0 0 0 0 2
Nghost:           1.75 ave           3 max           1 min
Histogram: 2 0 0 0 0 1 0 0 0 1
Neighs:         352.75 ave         706 max           0 min
Histogram: 2 0 0 0 0 0 0 0 0 2

Total # of neighbors = 1411
Ave neighs/atom = 0.56417433
Neighbor list builds = 148
Dangerous builds = 0

undump D1

############ Add spring between top chain to supp particle and then equilibrium  ###########

#fix sp1 support spring couple slider1 ${K0} ${lenspr} NULL NULL 0                                 # Add spring

#dump 		D2 all custom 100000 add_${num}*.dump id type diameter mass xu yu zu

#fix add1 all print 10 "${p0} ${distance} ${slider_z}" file add_distance_${num}.txt screen no      # out put step, distance(spring length), z-position of top chain

#run 1000000

#undump D2

#unfix add1

########## Pulling the supporting particle with constant velocity #############

#fix m1 support move linear 0.1 0 0 units box                                                      # apply constant velocity to supporting particles along x-direction V=0.1m/s

#fix move1 all print 100 "${p0} ${distance} ${slider_z}" file move_distance_${num}.txt screen no

#dump 		1 all custom 50000 move_${num}_*.dump id type diameter mass xu yu zu

#run 1000000

clear
  using 1 OpenMP thread(s) per MPI task

next num

jump SELF startloop

include granular.in
### Simulation of contact between two chain

##################### Simulation setup ####################

units micro                              # units
dimension	3                            # dimension
boundary	p p p                        # boundary condition p: periodic
atom_style	sphere                       # atom style
#processors * * 1

####################### Parameter ##################################

variable ind equal ${num}
variable ind equal 2

#variable lat0 equal 1                    #
variable lat1 equal 3*(2^(1/2))       # Lattice distance of bottom chain
variable lat2 equal 3                   # Lattice distance of top chain
variable d1 equal 3+(100*0.01)+(v_ind*0.01)                      # Diamter of particle at bottom chain
variable d2 equal 3                      # Diamter of particle at top chain
#variable d3 equal 1                      # Diamter of supporting particle

variable n2e1 equal 500*v_lat2              # Half length of top chain. 1500 is number of particles
variable n1e1 equal 1.5*v_n2e1*(v_lat1/v_lat2)               # Half length of bottom chain, which is 1.5 time larger than top chain
variable n1e2 equal -v_n1e1
variable n2e2 equal -v_n2e1
#variable lenspr equal -(v_n2e1+100)           # length of the spring connecting top chain and supporting particle
#variable lenspr1 equal -v_lenspr-0.1         # Position of supporting particle upper bound
#variable lenspr2 equal -v_lenspr+0.1         # Position of supporting particle lower bound

variable den equal 2.2 #grams/cm^3      # micrometer^3=10^-12 cm^3 Density of materials
#variable den2 equal 1.5

variable V1 equal (1/6)*PI*(v_d1^3)     # Volume of particle 1
variable V2 equal (1/6)*PI*(v_d2^3)     # Volume of particle 2
#variable V3 equal (1/6)*PI*(v_d3^3)     # Volume of particle 3

variable mass1 equal v_den*v_V1  # Mass of particle 1 (picograms)
variable mass2 equal v_den*v_V2  # Mass of particle 2
#variable mass3 equal v_den*v_V3  # Mass of particle 3

# E GPa to picogram/(micrometer-microsecond^2)= 10^3 Pa= 10^-6 GPa
# Force unit(picogram-micrometer/microsecond^2)=10^-9 N= 1nN
# Spring stiffness (force/distance) 10^-3 N/m

variable K0 equal (1500/50)*(10^5)             # Spring stiffness conneting top chain and sup particle
variable E equal 100*(10^6)                    # Young's Modulus using for Hertz/material model
variable PR equal 0.3                          # Poisson's ratio using for Hertz/material model
variable Fn equal -1000 #-(v_ind*100)                       # Force apply to each particles in top chain
variable dt equal 0.00001                      # Time step units microsecond
variable lgv equal 0.5                         #damping for langevin thermostat for slider


################### Creating the model #################################
lattice sc ${lat1}                                                               # Bottom chain type1
lattice sc 4.24264068711929                                                               
Lattice spacing in x,y,z = 4.2426407 4.2426407 4.2426407

region box block ${n1e2} ${n1e1} -100 100 -100 100 units box
region box block -3181.98051533947 ${n1e1} -100 100 -100 100 units box
region box block -3181.98051533947 3181.98051533947 -100 100 -100 100 units box
region substrate block ${n1e2} ${n1e1} -0.5 0.5 0 0.5 units box
region substrate block -3181.98051533947 ${n1e1} -0.5 0.5 0 0.5 units box
region substrate block -3181.98051533947 3181.98051533947 -0.5 0.5 0 0.5 units box

create_box 2 box
Created orthogonal box = (-3181.9805 -100 -100) to (3181.9805 100 100)
  4 by 1 by 1 MPI processor grid
create_atoms 1 region substrate
Created 1500 atoms
  using lattice units in orthogonal box = (-3181.9805 -100 -100) to (3181.9805 100 100)
  create_atoms CPU = 0.001 seconds

lattice sc ${lat2}                                                             # Top chain type2
lattice sc 3                                                             
Lattice spacing in x,y,z = 3 3 3

region slider1 block ${n2e2} ${n2e1} -0.1 0.1 5.9 6.1 units box
region slider1 block -1500 ${n2e1} -0.1 0.1 5.9 6.1 units box
region slider1 block -1500 1500 -0.1 0.1 5.9 6.1 units box

create_atoms 2 region slider1
Created 1001 atoms
  using lattice units in orthogonal box = (-3181.9805 -100 -100) to (3181.9805 100 100)
  create_atoms CPU = 0.001 seconds

#lattice sc ${lat0}                                                             # Supporting particle type3

#region support block ${lenspr1} ${lenspr2} -0.1 0.1 7.9 8.1 units box

#create_atoms 3 region support

set type 1 diameter ${d1}                    # Set mass and diameter for each particles type
set type 1 diameter 4.02                    
Setting atom values ...
  1500 settings made for diameter
set type 1 mass ${mass1}
set type 1 mass 74.8340866367129
Setting atom values ...
  1500 settings made for mass
set type 2 diameter ${d2}
set type 2 diameter 3
Setting atom values ...
  1001 settings made for diameter
set type 2 mass ${mass2}
set type 2 mass 31.101767270539
Setting atom values ...
  1001 settings made for mass
#set type 3 diameter ${d3}
#set type 3 mass ${mass3}

group substrate region substrate           # Define gorup
1500 atoms in group substrate
group slider1 region slider1
1001 atoms in group slider1
#group support region support
group substrate_slider union substrate slider1
2501 atoms in group substrate_slider

########################## Potential ###################################
pair_style granular
pair_coeff 1 1 hertz/material 0.00000001 0.001 ${PR} tangential mindlin NULL 0.1 0.01 damping viscoelastic              ########### set E between each particle in same type is small to neglect their interaction
pair_coeff 1 1 hertz/material 0.00000001 0.001 0.3 tangential mindlin NULL 0.1 0.01 damping viscoelastic              
pair_coeff 2 2 hertz/material 0.00000001 0.001 ${PR} tangential mindlin NULL 0.1 0.01 damping viscoelastic
pair_coeff 2 2 hertz/material 0.00000001 0.001 0.3 tangential mindlin NULL 0.1 0.01 damping viscoelastic
#pair_coeff 3 3 hertz/material ${E} 0.001 ${PR} tangential mindlin NULL 0.1 0.01 damping viscoelastic
pair_coeff 1 2 hertz/material ${E} 0.001 ${PR} tangential mindlin NULL 0.1 0.01 damping viscoelastic
pair_coeff 1 2 hertz/material 100000000 0.001 ${PR} tangential mindlin NULL 0.1 0.01 damping viscoelastic
pair_coeff 1 2 hertz/material 100000000 0.001 0.3 tangential mindlin NULL 0.1 0.01 damping viscoelastic
#pair_coeff 1 3 hertz/material 0.00000001 0.001 ${PR} tangential mindlin NULL 0.1 0.01 damping viscoelastic
#pair_coeff 2 3 hertz/material 0.00000001 0.001 ${PR} tangential mindlin NULL 0.1 0.01 damping viscoelastic
comm_modify     vel yes
neigh_modify    delay 0 every 1 check yes

### Compute properties ###

compute 1 slider1 com                      # Compute the center of mass of top chain
#compute 2 support com                      # Compute the center of mass of supporting particle

variable p0 equal "step"

variable slider_z equal "c_1[3]"          # output the position of top chain in z-direction

#variable distance equal "c_2[1]-c_1[1]"   # Distance between COM of top chain and supporting particle

thermo 100000
thermo_style custom step lx ly lz press pxx pyy pzz ke pe temp c_1[1] c_1[2] c_1[3] #c_2[1] c_2[2] c_2[3] v_distance

############### Fix ##################


############## Equilibrium the system with apply force ########################

fix force_slider1 slider1 setforce NULL 0 NULL                                # Fix top chain not to move in y-direction

fix f_sub substrate freeze                                                    # Freeze the bottom chain

fix rigid_top slider1 rigid/nve group 1 slider1 langevin 0 0 ${lgv} 6987532   # NVE+langevin
fix rigid_top slider1 rigid/nve group 1 slider1 langevin 0 0 0.5 6987532   
  1 rigid bodies with 1001 atoms

fix add slider1 addforce 0 0 ${Fn} every 1                                    # Add force to top layer
fix add slider1 addforce 0 0 -1000 every 1                                    

timestep ${dt}
timestep 1e-05

# fix  nve_1 slider1 nve

dump 		D1 all custom 100000 Equi_${num}_*.dump id type diameter mass xu yu zu
dump 		D1 all custom 100000 Equi_2_*.dump id type diameter mass xu yu zu
dump_modify D1 format 5 %.18g
dump_modify D1 format 7 %.18g

run 3000000
Generated 0 of 1 mixed pair_coeff terms from geometric mixing rule
Neighbor list info ...
  update every 1 steps, delay 0 steps, check yes
  max neighbors/atom: 2000, page size: 100000
  master list distance cutoff = 4.12
  ghost atom cutoff = 4.12
  binsize = 2.06, bins = 3090 98 98
  1 neighbor lists, perpetual/occasional/extra = 1 0 0
  (1) pair granular, perpetual
      attributes: half, newton on, size, history
      pair build: half/size/bin/newton
      stencil: half/bin/3d
      bin: standard
Per MPI rank memory allocation (min/avg/max) = 44.24 | 44.25 | 44.27 Mbytes
   Step           Lx             Ly             Lz           Press           Pxx            Pyy            Pzz           KinEng         PotEng          Temp          c_1[1]         c_1[2]         c_1[3]    
         0   6363.961       200            200            0              0              0              0              0              0              0              1.1965779e-13  0              6            
    100000   6363.961       200            200           -0.00032137684  6.3466552e-36  0             -0.00096413053  539947.53      0              5.2144268e+10  1.1965779e-13  0              3.6137858    
    200000   6363.961       200            200           -0.00022114822 -6.3465843e-36  0             -0.00066344466  10887.856      0              1.0514712e+09  1.1965779e-13  0              3.6598336    
    300000   6363.961       200            200            0.00011793139  3.4467421e-40  0              0.00035379418  2333.5415      0              2.2535674e+08  1.1965779e-13  0              3.5450142    
    400000   6363.961       200            200            0.00015313829  2.7300204e-40  0              0.00045941488  3886.5151      0              3.7533181e+08  1.1965779e-13  0              3.5112248    
    500000   6363.961       200            200            0.00081153282 -0.00069128464  0              0.0031258831   182.20171      0              17595737       1.1965779e-13  0              3.5079102    
    600000   6363.961       200            200            0.002659888   -0.0023552454   0              0.010334909    87.538519      0              8453843.6      1.1965779e-13  0              3.5061273    
    700000   6363.961       200            200            0.0034030456  -0.0024312979   0              0.012640435    14.104977      0              1362157.7      1.1965779e-13  0              3.5057228    
    800000   6363.961       200            200            0.0036335712  -0.0024080845   0              0.013308798    1.610728       0              155552.59      1.1965779e-13  0              3.5056133    
    900000   6363.961       200            200            0.0037205957  -0.0024268217   0              0.013588609    0.17049909     0              16465.582      1.1965779e-13  0              3.505568     
   1000000   6363.961       200            200            0.0037584624  -0.0024301993   0              0.013705587    0.016582086    0              1601.3792      1.1965779e-13  0              3.5055491    
   1100000   6363.961       200            200            0.0037739141  -0.002431657    0              0.013753399    0.0013952089   0              134.73929      1.1965779e-13  0              3.5055414    
   1200000   6363.961       200            200            0.0037801302  -0.0024322437   0              0.013772634    9.5393505e-05  0              9.2124219      1.1965779e-13  0              3.5055383    
   1300000   6363.961       200            200            0.0037825767  -0.0024324606   0              0.013780191    4.2704883e-06  0              0.41241319     1.1965779e-13  0              3.505537     
   1400000   6363.961       200            200            0.0037835168  -0.002432544    0              0.013783095    3.476228e-08   0              0.0033570922   1.1965779e-13  0              3.5055366    
   1500000   6363.961       200            200            0.0037838709  -0.0024325755   0              0.013784188    2.0432e-08     0              0.0019731763   1.1965779e-13  0              3.5055364    
   1600000   6363.961       200            200            0.0037840017  -0.0024325871   0              0.013784592    1.6667338e-08  0              0.0016096122   1.1965779e-13  0              3.5055363    
   1700000   6363.961       200            200            0.0037840492  -0.0024325913   0              0.013784739    5.5708609e-09  0              0.00053799387  1.1965779e-13  0              3.5055363    
   1800000   6363.961       200            200            0.003784066   -0.0024325928   0              0.013784791    1.3607538e-09  0              0.00013141187  1.1965779e-13  0              3.5055363    
   1900000   6363.961       200            200            0.0037840719  -0.0024325934   0              0.013784809    2.8127223e-10  0              2.7163259e-05  1.1965779e-13  0              3.5055363    
   2000000   6363.961       200            200            0.0037840739  -0.0024325935   0              0.013784815    5.2223807e-11  0              5.0434014e-06  1.1965779e-13  0              3.5055363    
   2100000   6363.961       200            200            0.0037840746  -0.0024325936   0              0.013784817    8.971887e-12   0              8.6644063e-07  1.1965779e-13  0              3.5055363    
   2200000   6363.961       200            200            0.0037840748  -0.0024325936   0              0.013784818    1.4525179e-12  0              1.4027379e-07  1.1965779e-13  0              3.5055363    
   2300000   6363.961       200            200            0.0037840748  -0.0024325936   0              0.013784818    2.2337255e-13  0              2.1571722e-08  1.1965779e-13  0              3.5055363    
   2400000   6363.961       200            200            0.0037840749  -0.0024325936   0              0.013784818    3.2766546e-14  0              3.1643585e-09  1.1965779e-13  0              3.5055363    
   2500000   6363.961       200            200            0.0037840749  -0.0024325936   0              0.013784818    4.6458612e-15  0              4.4866402e-10  1.1965779e-13  0              3.5055363    
   2600000   6363.961       200            200            0.0037840749  -0.0024325936   0              0.013784818    6.355189e-16   0              6.1373867e-11  1.1965779e-13  0              3.5055363    
   2700000   6363.961       200            200            0.0037840749  -0.0024325936   0              0.013784818    5.0440586e-17  0              4.8711908e-12  1.1965779e-13  0              3.5055363    
   2800000   6363.961       200            200            0.0037840749  -0.0024325936   0              0.013784818    6.4391511e-19  0              6.2184712e-14  1.1965779e-13  0              3.5055363    
   2900000   6363.961       200            200            0.0037840749  -0.0024325936   0              0.013784818    1.3683853e-21  0              1.3214886e-16  1.1965779e-13  0              3.5055363    
   3000000   6363.961       200            200            0.0037840749  -0.0024325936   0              0.013784818    1.0051106e-18  0              9.7066392e-14  1.1965779e-13  0              3.5055363    
Loop time of 300.912 on 4 procs for 3000000 steps with 2501 atoms

Performance: 8613825.955 ns/day, 0.000 hours/ns, 9969.706 timesteps/s
100.0% CPU use with 4 MPI tasks x 1 OpenMP threads

MPI task timing breakdown:
Section |  min time  |  avg time  |  max time  |%varavg| %total
---------------------------------------------------------------
Pair    | 11.296     | 41.473     | 74.241     | 460.4 | 13.78
Neigh   | 1.426      | 1.4433     | 1.4604     |   1.0 |  0.48
Comm    | 13.029     | 19.126     | 25.584     | 110.2 |  6.36
Output  | 0.24365    | 0.244      | 0.24438    |   0.1 |  0.08
Modify  | 179.56     | 181.69     | 183.55     |  12.4 | 60.38
Other   |            | 56.93      |            |       | 18.92

Nlocal:         625.25 ave         877 max         374 min
Histogram: 2 0 0 0 0 0 0 0 0 2
Nghost:           1.75 ave           3 max           1 min
Histogram: 2 0 0 0 0 1 0 0 0 1
Neighs:         355.25 ave         711 max           0 min
Histogram: 2 0 0 0 0 0 0 0 0 2

Total # of neighbors = 1421
Ave neighs/atom = 0.56817273
Neighbor list builds = 152
Dangerous builds = 0

undump D1

############ Add spring between top chain to supp particle and then equilibrium  ###########

#fix sp1 support spring couple slider1 ${K0} ${lenspr} NULL NULL 0                                 # Add spring

#dump 		D2 all custom 100000 add_${num}*.dump id type diameter mass xu yu zu

#fix add1 all print 10 "${p0} ${distance} ${slider_z}" file add_distance_${num}.txt screen no      # out put step, distance(spring length), z-position of top chain

#run 1000000

#undump D2

#unfix add1

########## Pulling the supporting particle with constant velocity #############

#fix m1 support move linear 0.1 0 0 units box                                                      # apply constant velocity to supporting particles along x-direction V=0.1m/s

#fix move1 all print 100 "${p0} ${distance} ${slider_z}" file move_distance_${num}.txt screen no

#dump 		1 all custom 50000 move_${num}_*.dump id type diameter mass xu yu zu

#run 1000000

clear
  using 1 OpenMP thread(s) per MPI task

next num

jump SELF startloop

include granular.in
### Simulation of contact between two chain

##################### Simulation setup ####################

units micro                              # units
dimension	3                            # dimension
boundary	p p p                        # boundary condition p: periodic
atom_style	sphere                       # atom style
#processors * * 1

####################### Parameter ##################################

variable ind equal ${num}
variable ind equal 3

#variable lat0 equal 1                    #
variable lat1 equal 3*(2^(1/2))       # Lattice distance of bottom chain
variable lat2 equal 3                   # Lattice distance of top chain
variable d1 equal 3+(100*0.01)+(v_ind*0.01)                      # Diamter of particle at bottom chain
variable d2 equal 3                      # Diamter of particle at top chain
#variable d3 equal 1                      # Diamter of supporting particle

variable n2e1 equal 500*v_lat2              # Half length of top chain. 1500 is number of particles
variable n1e1 equal 1.5*v_n2e1*(v_lat1/v_lat2)               # Half length of bottom chain, which is 1.5 time larger than top chain
variable n1e2 equal -v_n1e1
variable n2e2 equal -v_n2e1
#variable lenspr equal -(v_n2e1+100)           # length of the spring connecting top chain and supporting particle
#variable lenspr1 equal -v_lenspr-0.1         # Position of supporting particle upper bound
#variable lenspr2 equal -v_lenspr+0.1         # Position of supporting particle lower bound

variable den equal 2.2 #grams/cm^3      # micrometer^3=10^-12 cm^3 Density of materials
#variable den2 equal 1.5

variable V1 equal (1/6)*PI*(v_d1^3)     # Volume of particle 1
variable V2 equal (1/6)*PI*(v_d2^3)     # Volume of particle 2
#variable V3 equal (1/6)*PI*(v_d3^3)     # Volume of particle 3

variable mass1 equal v_den*v_V1  # Mass of particle 1 (picograms)
variable mass2 equal v_den*v_V2  # Mass of particle 2
#variable mass3 equal v_den*v_V3  # Mass of particle 3

# E GPa to picogram/(micrometer-microsecond^2)= 10^3 Pa= 10^-6 GPa
# Force unit(picogram-micrometer/microsecond^2)=10^-9 N= 1nN
# Spring stiffness (force/distance) 10^-3 N/m

variable K0 equal (1500/50)*(10^5)             # Spring stiffness conneting top chain and sup particle
variable E equal 100*(10^6)                    # Young's Modulus using for Hertz/material model
variable PR equal 0.3                          # Poisson's ratio using for Hertz/material model
variable Fn equal -1000 #-(v_ind*100)                       # Force apply to each particles in top chain
variable dt equal 0.00001                      # Time step units microsecond
variable lgv equal 0.5                         #damping for langevin thermostat for slider


################### Creating the model #################################
lattice sc ${lat1}                                                               # Bottom chain type1
lattice sc 4.24264068711929                                                               
Lattice spacing in x,y,z = 4.2426407 4.2426407 4.2426407

region box block ${n1e2} ${n1e1} -100 100 -100 100 units box
region box block -3181.98051533947 ${n1e1} -100 100 -100 100 units box
region box block -3181.98051533947 3181.98051533947 -100 100 -100 100 units box
region substrate block ${n1e2} ${n1e1} -0.5 0.5 0 0.5 units box
region substrate block -3181.98051533947 ${n1e1} -0.5 0.5 0 0.5 units box
region substrate block -3181.98051533947 3181.98051533947 -0.5 0.5 0 0.5 units box

create_box 2 box
Created orthogonal box = (-3181.9805 -100 -100) to (3181.9805 100 100)
  4 by 1 by 1 MPI processor grid
create_atoms 1 region substrate
Created 1500 atoms
  using lattice units in orthogonal box = (-3181.9805 -100 -100) to (3181.9805 100 100)
  create_atoms CPU = 0.001 seconds

lattice sc ${lat2}                                                             # Top chain type2
lattice sc 3                                                             
Lattice spacing in x,y,z = 3 3 3

region slider1 block ${n2e2} ${n2e1} -0.1 0.1 5.9 6.1 units box
region slider1 block -1500 ${n2e1} -0.1 0.1 5.9 6.1 units box
region slider1 block -1500 1500 -0.1 0.1 5.9 6.1 units box

create_atoms 2 region slider1
Created 1001 atoms
  using lattice units in orthogonal box = (-3181.9805 -100 -100) to (3181.9805 100 100)
  create_atoms CPU = 0.001 seconds

#lattice sc ${lat0}                                                             # Supporting particle type3

#region support block ${lenspr1} ${lenspr2} -0.1 0.1 7.9 8.1 units box

#create_atoms 3 region support

set type 1 diameter ${d1}                    # Set mass and diameter for each particles type
set type 1 diameter 4.03                    
Setting atom values ...
  1500 settings made for diameter
set type 1 mass ${mass1}
set type 1 mass 75.3939403340114
Setting atom values ...
  1500 settings made for mass
set type 2 diameter ${d2}
set type 2 diameter 3
Setting atom values ...
  1001 settings made for diameter
set type 2 mass ${mass2}
set type 2 mass 31.101767270539
Setting atom values ...
  1001 settings made for mass
#set type 3 diameter ${d3}
#set type 3 mass ${mass3}

group substrate region substrate           # Define gorup
1500 atoms in group substrate
group slider1 region slider1
1001 atoms in group slider1
#group support region support
group substrate_slider union substrate slider1
2501 atoms in group substrate_slider

########################## Potential ###################################
pair_style granular
pair_coeff 1 1 hertz/material 0.00000001 0.001 ${PR} tangential mindlin NULL 0.1 0.01 damping viscoelastic              ########### set E between each particle in same type is small to neglect their interaction
pair_coeff 1 1 hertz/material 0.00000001 0.001 0.3 tangential mindlin NULL 0.1 0.01 damping viscoelastic              
pair_coeff 2 2 hertz/material 0.00000001 0.001 ${PR} tangential mindlin NULL 0.1 0.01 damping viscoelastic
pair_coeff 2 2 hertz/material 0.00000001 0.001 0.3 tangential mindlin NULL 0.1 0.01 damping viscoelastic
#pair_coeff 3 3 hertz/material ${E} 0.001 ${PR} tangential mindlin NULL 0.1 0.01 damping viscoelastic
pair_coeff 1 2 hertz/material ${E} 0.001 ${PR} tangential mindlin NULL 0.1 0.01 damping viscoelastic
pair_coeff 1 2 hertz/material 100000000 0.001 ${PR} tangential mindlin NULL 0.1 0.01 damping viscoelastic
pair_coeff 1 2 hertz/material 100000000 0.001 0.3 tangential mindlin NULL 0.1 0.01 damping viscoelastic
#pair_coeff 1 3 hertz/material 0.00000001 0.001 ${PR} tangential mindlin NULL 0.1 0.01 damping viscoelastic
#pair_coeff 2 3 hertz/material 0.00000001 0.001 ${PR} tangential mindlin NULL 0.1 0.01 damping viscoelastic
comm_modify     vel yes
neigh_modify    delay 0 every 1 check yes

### Compute properties ###

compute 1 slider1 com                      # Compute the center of mass of top chain
#compute 2 support com                      # Compute the center of mass of supporting particle

variable p0 equal "step"

variable slider_z equal "c_1[3]"          # output the position of top chain in z-direction

#variable distance equal "c_2[1]-c_1[1]"   # Distance between COM of top chain and supporting particle

thermo 100000
thermo_style custom step lx ly lz press pxx pyy pzz ke pe temp c_1[1] c_1[2] c_1[3] #c_2[1] c_2[2] c_2[3] v_distance

############### Fix ##################


############## Equilibrium the system with apply force ########################

fix force_slider1 slider1 setforce NULL 0 NULL                                # Fix top chain not to move in y-direction

fix f_sub substrate freeze                                                    # Freeze the bottom chain

fix rigid_top slider1 rigid/nve group 1 slider1 langevin 0 0 ${lgv} 6987532   # NVE+langevin
fix rigid_top slider1 rigid/nve group 1 slider1 langevin 0 0 0.5 6987532   
  1 rigid bodies with 1001 atoms

fix add slider1 addforce 0 0 ${Fn} every 1                                    # Add force to top layer
fix add slider1 addforce 0 0 -1000 every 1                                    

timestep ${dt}
timestep 1e-05

# fix  nve_1 slider1 nve

dump 		D1 all custom 100000 Equi_${num}_*.dump id type diameter mass xu yu zu
dump 		D1 all custom 100000 Equi_3_*.dump id type diameter mass xu yu zu
dump_modify D1 format 5 %.18g
dump_modify D1 format 7 %.18g

run 3000000
Generated 0 of 1 mixed pair_coeff terms from geometric mixing rule
Neighbor list info ...
  update every 1 steps, delay 0 steps, check yes
  max neighbors/atom: 2000, page size: 100000
  master list distance cutoff = 4.13
  ghost atom cutoff = 4.13
  binsize = 2.065, bins = 3082 97 97
  1 neighbor lists, perpetual/occasional/extra = 1 0 0
  (1) pair granular, perpetual
      attributes: half, newton on, size, history
      pair build: half/size/bin/newton
      stencil: half/bin/3d
      bin: standard
Per MPI rank memory allocation (min/avg/max) = 43.55 | 43.57 | 43.58 Mbytes
   Step           Lx             Ly             Lz           Press           Pxx            Pyy            Pzz           KinEng         PotEng          Temp          c_1[1]         c_1[2]         c_1[3]    
         0   6363.961       200            200            0              0              0              0              0              0              0              1.1965779e-13  0              6            
    100000   6363.961       200            200           -0.00033346528  2.5387037e-35  0             -0.0010003959   532619.3       0              5.1436559e+10  1.1965779e-13  0              3.6236667    
    200000   6363.961       200            200           -0.0002120127   7.6159535e-35  0             -0.00063603809  9845.2518      0              9.5078395e+08  1.1965779e-13  0              3.6657479    
    300000   6363.961       200            200            0.00013221934  2.5387046e-35  0              0.00039665802  2891.8486      0              2.7927404e+08  1.1965779e-13  0              3.5494358    
    400000   6363.961       200            200            0.00016892566  7.9303232e-40  0              0.00050677698  4659.216       0              4.4995374e+08  1.1965779e-13  0              3.5154294    
    500000   6363.961       200            200            0.0010394126  -0.00072712848  0              0.0038453662   348.0185       0              33609136       1.1965779e-13  0              3.5126918    
    600000   6363.961       200            200            0.0024966879  -0.0021718328   0              0.0096618965   50.962691      0              4921611.9      1.1965779e-13  0              3.5112632    
    700000   6363.961       200            200            0.0032944     -0.0024210284   0              0.012304228    8.2362941      0              795402.33      1.1965779e-13  0              3.510787     
    800000   6363.961       200            200            0.003597722   -0.0024029281   0              0.013196094    0.73798269     0              71269.086      1.1965779e-13  0              3.5106384    
    900000   6363.961       200            200            0.0037140553  -0.0024210032   0              0.013563169    0.05133819     0              4957.8749      1.1965779e-13  0              3.5105783    
   1000000   6363.961       200            200            0.0037620056  -0.0024253522   0              0.013711369    0.0021155036   0              204.3002       1.1965779e-13  0              3.5105542    
   1100000   6363.961       200            200            0.0037808258  -0.0024271627   0              0.01376964     3.8290093e-06  0              0.36977831     1.1965779e-13  0              3.5105447    
   1200000   6363.961       200            200            0.0037880059  -0.002427845    0              0.013791863    2.3288959e-05  0              2.249081       1.1965779e-13  0              3.5105411    
   1300000   6363.961       200            200            0.0037906606  -0.0024280827   0              0.013800065    1.4084312e-05  0              1.3601621      1.1965779e-13  0              3.5105398    
   1400000   6363.961       200            200            0.003791609   -0.0024281677   0              0.013802995    4.2488024e-06  0              0.41031892     1.1965779e-13  0              3.5105393    
   1500000   6363.961       200            200            0.0037919364  -0.0024281971   0              0.013804006    9.6728788e-07  0              0.09341374     1.1965779e-13  0              3.5105391    
   1600000   6363.961       200            200            0.0037920451  -0.0024282069   0              0.013804342    1.873118e-07   0              0.018089232    1.1965779e-13  0              3.5105391    
   1700000   6363.961       200            200            0.0037920795  -0.00242821     0              0.013804449    3.2453881e-08  0              0.0031341635   1.1965779e-13  0              3.510539     
   1800000   6363.961       200            200            0.0037920898  -0.002428211    0              0.01380448     5.1597544e-09  0              0.00049829215  1.1965779e-13  0              3.510539     
   1900000   6363.961       200            200            0.0037920925  -0.0024282112   0              0.013804489    7.6281822e-10  0              7.3667523e-05  1.1965779e-13  0              3.510539     
   2000000   6363.961       200            200            0.0037920931  -0.0024282113   0              0.013804491    1.0555602e-10  0              1.0193845e-05  1.1965779e-13  0              3.510539     
   2100000   6363.961       200            200            0.0037920932  -0.0024282113   0              0.013804491    1.369923e-11   0              1.3229735e-06  1.1965779e-13  0              3.510539     
   2200000   6363.961       200            200            0.0037920931  -0.0024282113   0              0.013804491    1.6619786e-12  0              1.60502e-07    1.1965779e-13  0              3.510539     
   2300000   6363.961       200            200            0.0037920931  -0.0024282113   0              0.013804491    1.87097e-13    0              1.8068489e-08  1.1965779e-13  0              3.510539     
   2400000   6363.961       200            200            0.0037920931  -0.0024282113   0              0.013804491    1.8914758e-14  0              1.826652e-09   1.1965779e-13  0              3.510539     
   2500000   6363.961       200            200            0.0037920931  -0.0024282113   0              0.013804491    1.7852881e-15  0              1.7241035e-10  1.1965779e-13  0              3.510539     
   2600000   6363.961       200            200            0.0037920931  -0.0024282113   0              0.01380449     1.0568157e-16  0              1.020597e-11   1.1965779e-13  0              3.510539     
   2700000   6363.961       200            200            0.0037920931  -0.0024282113   0              0.01380449     3.3197483e-18  0              3.2059753e-13  1.1965779e-13  0              3.510539     
   2800000   6363.961       200            200            0.0037920931  -0.0024282113   0              0.01380449     1.1916451e-17  0              1.1508055e-12  1.1965779e-13  0              3.510539     
   2900000   6363.961       200            200            0.0037920931  -0.0024282113   0              0.01380449     4.6684121e-20  0              4.5084183e-15  1.1965779e-13  0              3.510539     
   3000000   6363.961       200            200            0.0037920931  -0.0024282113   0              0.01380449     2.047626e-20   0              1.9774506e-15  1.1965779e-13  0              3.510539     
Loop time of 294.109 on 4 procs for 3000000 steps with 2501 atoms

Performance: 8813073.645 ns/day, 0.000 hours/ns, 10200.317 timesteps/s
100.0% CPU use with 4 MPI tasks x 1 OpenMP threads

MPI task timing breakdown:
Section |  min time  |  avg time  |  max time  |%varavg| %total
---------------------------------------------------------------
Pair    | 11.898     | 40.785     | 71.418     | 450.9 | 13.87
Neigh   | 1.3741     | 1.3911     | 1.4077     |   1.0 |  0.47
Comm    | 12.833     | 18.179     | 25.375     | 111.5 |  6.18
Output  | 0.2468     | 0.24712    | 0.24747    |   0.1 |  0.08
Modify  | 173.8      | 176.91     | 179.72     |  19.6 | 60.15
Other   |            | 56.59      |            |       | 19.24

Nlocal:         625.25 ave         877 max         374 min
Histogram: 2 0 0 0 0 0 0 0 0 2
Nghost:           1.75 ave           3 max           1 min
Histogram: 2 0 0 0 0 1 0 0 0 1
Neighs:         331.25 ave         663 max           0 min
Histogram: 2 0 0 0 0 0 0 0 0 2

Total # of neighbors = 1325
Ave neighs/atom = 0.52978808
Neighbor list builds = 151
Dangerous builds = 0

undump D1

############ Add spring between top chain to supp particle and then equilibrium  ###########

#fix sp1 support spring couple slider1 ${K0} ${lenspr} NULL NULL 0                                 # Add spring

#dump 		D2 all custom 100000 add_${num}*.dump id type diameter mass xu yu zu

#fix add1 all print 10 "${p0} ${distance} ${slider_z}" file add_distance_${num}.txt screen no      # out put step, distance(spring length), z-position of top chain

#run 1000000

#undump D2

#unfix add1

########## Pulling the supporting particle with constant velocity #############

#fix m1 support move linear 0.1 0 0 units box                                                      # apply constant velocity to supporting particles along x-direction V=0.1m/s

#fix move1 all print 100 "${p0} ${distance} ${slider_z}" file move_distance_${num}.txt screen no

#dump 		1 all custom 50000 move_${num}_*.dump id type diameter mass xu yu zu

#run 1000000

clear
  using 1 OpenMP thread(s) per MPI task

next num

jump SELF startloop

include granular.in
### Simulation of contact between two chain

##################### Simulation setup ####################

units micro                              # units
dimension	3                            # dimension
boundary	p p p                        # boundary condition p: periodic
atom_style	sphere                       # atom style
#processors * * 1

####################### Parameter ##################################

variable ind equal ${num}
variable ind equal 4

#variable lat0 equal 1                    #
variable lat1 equal 3*(2^(1/2))       # Lattice distance of bottom chain
variable lat2 equal 3                   # Lattice distance of top chain
variable d1 equal 3+(100*0.01)+(v_ind*0.01)                      # Diamter of particle at bottom chain
variable d2 equal 3                      # Diamter of particle at top chain
#variable d3 equal 1                      # Diamter of supporting particle

variable n2e1 equal 500*v_lat2              # Half length of top chain. 1500 is number of particles
variable n1e1 equal 1.5*v_n2e1*(v_lat1/v_lat2)               # Half length of bottom chain, which is 1.5 time larger than top chain
variable n1e2 equal -v_n1e1
variable n2e2 equal -v_n2e1
#variable lenspr equal -(v_n2e1+100)           # length of the spring connecting top chain and supporting particle
#variable lenspr1 equal -v_lenspr-0.1         # Position of supporting particle upper bound
#variable lenspr2 equal -v_lenspr+0.1         # Position of supporting particle lower bound

variable den equal 2.2 #grams/cm^3      # micrometer^3=10^-12 cm^3 Density of materials
#variable den2 equal 1.5

variable V1 equal (1/6)*PI*(v_d1^3)     # Volume of particle 1
variable V2 equal (1/6)*PI*(v_d2^3)     # Volume of particle 2
#variable V3 equal (1/6)*PI*(v_d3^3)     # Volume of particle 3

variable mass1 equal v_den*v_V1  # Mass of particle 1 (picograms)
variable mass2 equal v_den*v_V2  # Mass of particle 2
#variable mass3 equal v_den*v_V3  # Mass of particle 3

# E GPa to picogram/(micrometer-microsecond^2)= 10^3 Pa= 10^-6 GPa
# Force unit(picogram-micrometer/microsecond^2)=10^-9 N= 1nN
# Spring stiffness (force/distance) 10^-3 N/m

variable K0 equal (1500/50)*(10^5)             # Spring stiffness conneting top chain and sup particle
variable E equal 100*(10^6)                    # Young's Modulus using for Hertz/material model
variable PR equal 0.3                          # Poisson's ratio using for Hertz/material model
variable Fn equal -1000 #-(v_ind*100)                       # Force apply to each particles in top chain
variable dt equal 0.00001                      # Time step units microsecond
variable lgv equal 0.5                         #damping for langevin thermostat for slider


################### Creating the model #################################
lattice sc ${lat1}                                                               # Bottom chain type1
lattice sc 4.24264068711929                                                               
Lattice spacing in x,y,z = 4.2426407 4.2426407 4.2426407

region box block ${n1e2} ${n1e1} -100 100 -100 100 units box
region box block -3181.98051533947 ${n1e1} -100 100 -100 100 units box
region box block -3181.98051533947 3181.98051533947 -100 100 -100 100 units box
region substrate block ${n1e2} ${n1e1} -0.5 0.5 0 0.5 units box
region substrate block -3181.98051533947 ${n1e1} -0.5 0.5 0 0.5 units box
region substrate block -3181.98051533947 3181.98051533947 -0.5 0.5 0 0.5 units box

create_box 2 box
Created orthogonal box = (-3181.9805 -100 -100) to (3181.9805 100 100)
  4 by 1 by 1 MPI processor grid
create_atoms 1 region substrate
Created 1500 atoms
  using lattice units in orthogonal box = (-3181.9805 -100 -100) to (3181.9805 100 100)
  create_atoms CPU = 0.001 seconds

lattice sc ${lat2}                                                             # Top chain type2
lattice sc 3                                                             
Lattice spacing in x,y,z = 3 3 3

region slider1 block ${n2e2} ${n2e1} -0.1 0.1 5.9 6.1 units box
region slider1 block -1500 ${n2e1} -0.1 0.1 5.9 6.1 units box
region slider1 block -1500 1500 -0.1 0.1 5.9 6.1 units box

create_atoms 2 region slider1
Created 1001 atoms
  using lattice units in orthogonal box = (-3181.9805 -100 -100) to (3181.9805 100 100)
  create_atoms CPU = 0.001 seconds

#lattice sc ${lat0}                                                             # Supporting particle type3

#region support block ${lenspr1} ${lenspr2} -0.1 0.1 7.9 8.1 units box

#create_atoms 3 region support

set type 1 diameter ${d1}                    # Set mass and diameter for each particles type
set type 1 diameter 4.04                    
Setting atom values ...
  1500 settings made for diameter
set type 1 mass ${mass1}
set type 1 mass 75.9565793673566
Setting atom values ...
  1500 settings made for mass
set type 2 diameter ${d2}
set type 2 diameter 3
Setting atom values ...
  1001 settings made for diameter
set type 2 mass ${mass2}
set type 2 mass 31.101767270539
Setting atom values ...
  1001 settings made for mass
#set type 3 diameter ${d3}
#set type 3 mass ${mass3}

group substrate region substrate           # Define gorup
1500 atoms in group substrate
group slider1 region slider1
1001 atoms in group slider1
#group support region support
group substrate_slider union substrate slider1
2501 atoms in group substrate_slider

########################## Potential ###################################
pair_style granular
pair_coeff 1 1 hertz/material 0.00000001 0.001 ${PR} tangential mindlin NULL 0.1 0.01 damping viscoelastic              ########### set E between each particle in same type is small to neglect their interaction
pair_coeff 1 1 hertz/material 0.00000001 0.001 0.3 tangential mindlin NULL 0.1 0.01 damping viscoelastic              
pair_coeff 2 2 hertz/material 0.00000001 0.001 ${PR} tangential mindlin NULL 0.1 0.01 damping viscoelastic
pair_coeff 2 2 hertz/material 0.00000001 0.001 0.3 tangential mindlin NULL 0.1 0.01 damping viscoelastic
#pair_coeff 3 3 hertz/material ${E} 0.001 ${PR} tangential mindlin NULL 0.1 0.01 damping viscoelastic
pair_coeff 1 2 hertz/material ${E} 0.001 ${PR} tangential mindlin NULL 0.1 0.01 damping viscoelastic
pair_coeff 1 2 hertz/material 100000000 0.001 ${PR} tangential mindlin NULL 0.1 0.01 damping viscoelastic
pair_coeff 1 2 hertz/material 100000000 0.001 0.3 tangential mindlin NULL 0.1 0.01 damping viscoelastic
#pair_coeff 1 3 hertz/material 0.00000001 0.001 ${PR} tangential mindlin NULL 0.1 0.01 damping viscoelastic
#pair_coeff 2 3 hertz/material 0.00000001 0.001 ${PR} tangential mindlin NULL 0.1 0.01 damping viscoelastic
comm_modify     vel yes
neigh_modify    delay 0 every 1 check yes

### Compute properties ###

compute 1 slider1 com                      # Compute the center of mass of top chain
#compute 2 support com                      # Compute the center of mass of supporting particle

variable p0 equal "step"

variable slider_z equal "c_1[3]"          # output the position of top chain in z-direction

#variable distance equal "c_2[1]-c_1[1]"   # Distance between COM of top chain and supporting particle

thermo 100000
thermo_style custom step lx ly lz press pxx pyy pzz ke pe temp c_1[1] c_1[2] c_1[3] #c_2[1] c_2[2] c_2[3] v_distance

############### Fix ##################


############## Equilibrium the system with apply force ########################

fix force_slider1 slider1 setforce NULL 0 NULL                                # Fix top chain not to move in y-direction

fix f_sub substrate freeze                                                    # Freeze the bottom chain

fix rigid_top slider1 rigid/nve group 1 slider1 langevin 0 0 ${lgv} 6987532   # NVE+langevin
fix rigid_top slider1 rigid/nve group 1 slider1 langevin 0 0 0.5 6987532   
  1 rigid bodies with 1001 atoms

fix add slider1 addforce 0 0 ${Fn} every 1                                    # Add force to top layer
fix add slider1 addforce 0 0 -1000 every 1                                    

timestep ${dt}
timestep 1e-05

# fix  nve_1 slider1 nve

dump 		D1 all custom 100000 Equi_${num}_*.dump id type diameter mass xu yu zu
dump 		D1 all custom 100000 Equi_4_*.dump id type diameter mass xu yu zu
dump_modify D1 format 5 %.18g
dump_modify D1 format 7 %.18g

run 3000000
Generated 0 of 1 mixed pair_coeff terms from geometric mixing rule
Neighbor list info ...
  update every 1 steps, delay 0 steps, check yes
  max neighbors/atom: 2000, page size: 100000
  master list distance cutoff = 4.14
  ghost atom cutoff = 4.14
  binsize = 2.07, bins = 3075 97 97
  1 neighbor lists, perpetual/occasional/extra = 1 0 0
  (1) pair granular, perpetual
      attributes: half, newton on, size, history
      pair build: half/size/bin/newton
      stencil: half/bin/3d
      bin: standard
Per MPI rank memory allocation (min/avg/max) = 43.5 | 43.51 | 43.51 Mbytes
[...]
Loop time of 364.503 on 4 procs for 3000000 steps with 2501 atoms

Performance: 7111059.819 ns/day, 0.000 hours/ns, 8230.393 timesteps/s
100.0% CPU use with 4 MPI tasks x 1 OpenMP threads

MPI task timing breakdown:
Section |  min time  |  avg time  |  max time  |%varavg| %total
---------------------------------------------------------------
Pair    | 88.301     | 116.18     | 144.1      | 257.4 | 31.87
Neigh   | 0.62944    | 0.64082    | 0.65209    |   1.1 |  0.18
Comm    | 21.983     | 49.337     | 77.355     | 385.0 | 13.54
Output  | 0.294      | 0.2943     | 0.29462    |   0.1 |  0.08
Modify  | 107.6      | 142.94     | 177.08     | 284.2 | 39.21
Other   |            | 55.12      |            |       | 15.12

Nlocal:         625.25 ave         877 max         374 min
Histogram: 2 0 0 0 0 0 0 0 0 2
Nghost:           3.75 ave           5 max           3 min
Histogram: 2 0 0 0 0 1 0 0 0 1
Neighs:         726.75 ave        1080 max         374 min
Histogram: 2 0 0 0 0 0 0 0 0 2

Total # of neighbors = 2907
Ave neighs/atom = 1.1623351
Neighbor list builds = 122
Dangerous builds = 0

undump D1

############ Add spring between top chain to supp particle and then equilibrium  ###########

#fix sp1 support spring couple slider1 ${K0} ${lenspr} NULL NULL 0                                 # Add spring

#dump 		D2 all custom 100000 add_${num}*.dump id type diameter mass xu yu zu

#fix add1 all print 10 "${p0} ${distance} ${slider_z}" file add_distance_${num}.txt screen no      # out put step, distance(spring length), z-position of top chain

#run 1000000

#undump D2

#unfix add1

########## Pulling the supporting particle with constant velocity #############

#fix m1 support move linear 0.1 0 0 units box                                                      # apply constant velocity to supporting particles along x-direction V=0.1m/s

#fix move1 all print 100 "${p0} ${distance} ${slider_z}" file move_distance_${num}.txt screen no

#dump 		1 all custom 50000 move_${num}_*.dump id type diameter mass xu yu zu

#run 1000000

clear
  using 1 OpenMP thread(s) per MPI task

next num

jump SELF startloop

include granular.in
### Simulation of contact between two chain

##################### Simulation setup ####################

units micro                              # units
dimension	3                            # dimension
boundary	p p p                        # boundary condition p: periodic
atom_style	sphere                       # atom style
#processors * * 1

####################### Parameter ##################################

variable ind equal ${num}
variable ind equal 99

#variable lat0 equal 1                    #
variable lat1 equal 3*(2^(1/2))       # Lattice distance of bottom chain
variable lat2 equal 3                   # Lattice distance of top chain
variable d1 equal 3+(100*0.01)+(v_ind*0.01)                      # Diamter of particle at bottom chain
variable d2 equal 3                      # Diamter of particle at top chain
#variable d3 equal 1                      # Diamter of supporting particle

variable n2e1 equal 500*v_lat2              # Half length of top chain. 1500 is number of particles
variable n1e1 equal 1.5*v_n2e1*(v_lat1/v_lat2)               # Half length of bottom chain, which is 1.5 time larger than top chain
variable n1e2 equal -v_n1e1
variable n2e2 equal -v_n2e1
#variable lenspr equal -(v_n2e1+100)           # length of the spring connecting top chain and supporting particle
#variable lenspr1 equal -v_lenspr-0.1         # Position of supporting particle upper bound
#variable lenspr2 equal -v_lenspr+0.1         # Position of supporting particle lower bound

variable den equal 2.2 #grams/cm^3      # micrometer^3=10^-12 cm^3 Density of materials
#variable den2 equal 1.5

variable V1 equal (1/6)*PI*(v_d1^3)     # Volume of particle 1
variable V2 equal (1/6)*PI*(v_d2^3)     # Volume of particle 2
#variable V3 equal (1/6)*PI*(v_d3^3)     # Volume of particle 3

variable mass1 equal v_den*v_V1  # Mass of particle 1 (picograms)
variable mass2 equal v_den*v_V2  # Mass of particle 2
#variable mass3 equal v_den*v_V3  # Mass of particle 3

# E GPa to picogram/(micrometer-microsecond^2)= 10^3 Pa= 10^-6 GPa
# Force unit(picogram-micrometer/microsecond^2)=10^-9 N= 1nN
# Spring stiffness (force/distance) 10^-3 N/m

variable K0 equal (1500/50)*(10^5)             # Spring stiffness conneting top chain and sup particle
variable E equal 100*(10^6)                    # Young's Modulus using for Hertz/material model
variable PR equal 0.3                          # Poisson's ratio using for Hertz/material model
variable Fn equal -1000 #-(v_ind*100)                       # Force apply to each particles in top chain
variable dt equal 0.00001                      # Time step units microsecond
variable lgv equal 0.5                         #damping for langevin thermostat for slider


################### Creating the model #################################
lattice sc ${lat1}                                                               # Bottom chain type1
lattice sc 4.24264068711929                                                               
Lattice spacing in x,y,z = 4.2426407 4.2426407 4.2426407

region box block ${n1e2} ${n1e1} -100 100 -100 100 units box
region box block -3181.98051533947 ${n1e1} -100 100 -100 100 units box
region box block -3181.98051533947 3181.98051533947 -100 100 -100 100 units box
region substrate block ${n1e2} ${n1e1} -0.5 0.5 0 0.5 units box
region substrate block -3181.98051533947 ${n1e1} -0.5 0.5 0 0.5 units box
region substrate block -3181.98051533947 3181.98051533947 -0.5 0.5 0 0.5 units box

create_box 2 box
Created orthogonal box = (-3181.9805 -100 -100) to (3181.9805 100 100)
  4 by 1 by 1 MPI processor grid
create_atoms 1 region substrate
Created 1500 atoms
  using lattice units in orthogonal box = (-3181.9805 -100 -100) to (3181.9805 100 100)
  create_atoms CPU = 0.000 seconds

lattice sc ${lat2}                                                             # Top chain type2
lattice sc 3                                                             
Lattice spacing in x,y,z = 3 3 3

region slider1 block ${n2e2} ${n2e1} -0.1 0.1 5.9 6.1 units box
region slider1 block -1500 ${n2e1} -0.1 0.1 5.9 6.1 units box
region slider1 block -1500 1500 -0.1 0.1 5.9 6.1 units box

create_atoms 2 region slider1
Created 1001 atoms
  using lattice units in orthogonal box = (-3181.9805 -100 -100) to (3181.9805 100 100)
  create_atoms CPU = 0.001 seconds

#lattice sc ${lat0}                                                             # Supporting particle type3

#region support block ${lenspr1} ${lenspr2} -0.1 0.1 7.9 8.1 units box

#create_atoms 3 region support

set type 1 diameter ${d1}                    # Set mass and diameter for each particles type
set type 1 diameter 4.99                    
Setting atom values ...
  1500 settings made for diameter
set type 1 mass ${mass1}
set type 1 mass 143.127452033837
Setting atom values ...
  1500 settings made for mass
set type 2 diameter ${d2}
set type 2 diameter 3
Setting atom values ...
  1001 settings made for diameter
set type 2 mass ${mass2}
set type 2 mass 31.101767270539
Setting atom values ...
  1001 settings made for mass
#set type 3 diameter ${d3}
#set type 3 mass ${mass3}

group substrate region substrate           # Define gorup
1500 atoms in group substrate
group slider1 region slider1
1001 atoms in group slider1
#group support region support
group substrate_slider union substrate slider1
2501 atoms in group substrate_slider

########################## Potential ###################################
pair_style granular
pair_coeff 1 1 hertz/material 0.00000001 0.001 ${PR} tangential mindlin NULL 0.1 0.01 damping viscoelastic              ########### set E between each particle in same type is small to neglect their interaction
pair_coeff 1 1 hertz/material 0.00000001 0.001 0.3 tangential mindlin NULL 0.1 0.01 damping viscoelastic              
pair_coeff 2 2 hertz/material 0.00000001 0.001 ${PR} tangential mindlin NULL 0.1 0.01 damping viscoelastic
pair_coeff 2 2 hertz/material 0.00000001 0.001 0.3 tangential mindlin NULL 0.1 0.01 damping viscoelastic
#pair_coeff 3 3 hertz/material ${E} 0.001 ${PR} tangential mindlin NULL 0.1 0.01 damping viscoelastic
pair_coeff 1 2 hertz/material ${E} 0.001 ${PR} tangential mindlin NULL 0.1 0.01 damping viscoelastic
pair_coeff 1 2 hertz/material 100000000 0.001 ${PR} tangential mindlin NULL 0.1 0.01 damping viscoelastic
pair_coeff 1 2 hertz/material 100000000 0.001 0.3 tangential mindlin NULL 0.1 0.01 damping viscoelastic
#pair_coeff 1 3 hertz/material 0.00000001 0.001 ${PR} tangential mindlin NULL 0.1 0.01 damping viscoelastic
#pair_coeff 2 3 hertz/material 0.00000001 0.001 ${PR} tangential mindlin NULL 0.1 0.01 damping viscoelastic
comm_modify     vel yes
neigh_modify    delay 0 every 1 check yes

### Compute properties ###

compute 1 slider1 com                      # Compute the center of mass of top chain
#compute 2 support com                      # Compute the center of mass of supporting particle

variable p0 equal "step"

variable slider_z equal "c_1[3]"          # output the position of top chain in z-direction

#variable distance equal "c_2[1]-c_1[1]"   # Distance between COM of top chain and supporting particle

thermo 100000
thermo_style custom step lx ly lz press pxx pyy pzz ke pe temp c_1[1] c_1[2] c_1[3] #c_2[1] c_2[2] c_2[3] v_distance

############### Fix ##################


############## Equilibrium the system with apply force ########################

fix force_slider1 slider1 setforce NULL 0 NULL                                # Fix top chain not to move in y-direction

fix f_sub substrate freeze                                                    # Freeze the bottom chain

fix rigid_top slider1 rigid/nve group 1 slider1 langevin 0 0 ${lgv} 6987532   # NVE+langevin
fix rigid_top slider1 rigid/nve group 1 slider1 langevin 0 0 0.5 6987532   
  1 rigid bodies with 1001 atoms

fix add slider1 addforce 0 0 ${Fn} every 1                                    # Add force to top layer
fix add slider1 addforce 0 0 -1000 every 1                                    

timestep ${dt}
timestep 1e-05

# fix  nve_1 slider1 nve

dump 		D1 all custom 100000 Equi_${num}_*.dump id type diameter mass xu yu zu
dump 		D1 all custom 100000 Equi_99_*.dump id type diameter mass xu yu zu
dump_modify D1 format 5 %.18g
dump_modify D1 format 7 %.18g

run 3000000
Generated 0 of 1 mixed pair_coeff terms from geometric mixing rule
Neighbor list info ...
  update every 1 steps, delay 0 steps, check yes
  max neighbors/atom: 2000, page size: 100000
  master list distance cutoff = 5.09
  ghost atom cutoff = 5.09
  binsize = 2.545, bins = 2501 79 79
  1 neighbor lists, perpetual/occasional/extra = 1 0 0
  (1) pair granular, perpetual
      attributes: half, newton on, size, history
      pair build: half/size/bin/newton
      stencil: half/bin/3d
      bin: standard
Per MPI rank memory allocation (min/avg/max) = 29.74 | 29.75 | 29.75 Mbytes
   Step           Lx             Ly             Lz           Press           Pxx            Pyy            Pzz           KinEng         PotEng          Temp          c_1[1]         c_1[2]         c_1[3]    
         0   6363.961       200            200            4.4055543e-14  1.3216663e-13  0              0              0              0              0              1.1965779e-13  0              6            
    100000   6363.961       200            200           -0.00057839821  1.3216663e-13  0             -0.0017351946   69121.12       0              6.675223e+09   1.1965779e-13  0              4.4193378    
    200000   6363.961       200            200            0.0087561433  -0.0018970505   0              0.02816548     134652.41      0              1.3003766e+10  1.1965779e-13  0              3.9897305    
    300000   6363.961       200            200            0.00081809483 -3.1645471e-05  0              0.00248593     29459.881      0              2.8450245e+09  1.1965779e-13  0              3.9939824    
    400000   6363.961       200            200            0.0087680293  -0.0045751241   0              0.030879212    5190.8084      0              5.0129112e+08  1.1965779e-13  0              3.9889963    
    500000   6363.961       200            200            0.0094995088  -0.0025185472   0              0.031017073    91.825985      0              8867896.4      1.1965779e-13  0              3.9890416    
    600000   6363.961       200            200            0.0038954847  -0.0020214479   0              0.013707902    102.50782      0              9899471.7      1.1965779e-13  0              3.9910363    
    700000   6363.961       200            200            0.004739895   -0.0020062765   0              0.016225961    14.912039      0              1440098        1.1965779e-13  0              3.9907       
    800000   6363.961       200            200            0.0044979372  -0.0019825633   0              0.015476375    1.9672027      0              189978.36      1.1965779e-13  0              3.9907962    
    900000   6363.961       200            200            0.0045963295  -0.001983024    0              0.015772012    0.26549275     0              25639.389      1.1965779e-13  0              3.9907578    
   1000000   6363.961       200            200            0.0045601217  -0.0019810161   0              0.015661381    0.035125276    0              3392.1478      1.1965779e-13  0              3.9907722    
   1100000   6363.961       200            200            0.0045743556  -0.0019822279   0              0.015705295    0.0046485129   0              448.9201       1.1965779e-13  0              3.9907664    
   1200000   6363.961       200            200            0.0045686908  -0.0019819462   0              0.015688019    0.0006133118   0              59.229263      1.1965779e-13  0              3.9907687    
   1300000   6363.961       200            200            0.0045709146  -0.0019820566   0              0.0156948      8.0820998e-05  0              7.8051135      1.1965779e-13  0              3.9907678    
   1400000   6363.961       200            200            0.0045700466  -0.0019820133   0              0.015692153    1.0629989e-05  0              1.0265683      1.1965779e-13  0              3.9907682    
   1500000   6363.961       200            200            0.004570384   -0.0019820301   0              0.015693182    1.3957551e-06  0              0.13479204     1.1965779e-13  0              3.990768     
   1600000   6363.961       200            200            0.0045702534  -0.0019820236   0              0.015692784    1.8293057e-07  0              0.017666125    1.1965779e-13  0              3.9907681    
   1700000   6363.961       200            200            0.0045703038  -0.0019820261   0              0.015692938    2.3930901e-08  0              0.0023110751   1.1965779e-13  0              3.9907681    
   1800000   6363.961       200            200            0.0045702844  -0.0019820251   0              0.015692878    3.124642e-09   0              0.00030175556  1.1965779e-13  0              3.9907681    
   1900000   6363.961       200            200            0.0045702918  -0.0019820255   0              0.015692901    4.0718212e-10  0              3.9322735e-05  1.1965779e-13  0              3.9907681    
   2000000   6363.961       200            200            0.004570289   -0.0019820254   0              0.015692892    5.2950055e-11  0              5.1135373e-06  1.1965779e-13  0              3.9907681    
   2100000   6363.961       200            200            0.0045702901  -0.0019820254   0              0.015692896    6.8724708e-12  0              6.6369404e-07  1.1965779e-13  0              3.9907681    
   2200000   6363.961       200            200            0.0045702897  -0.0019820254   0              0.015692894    8.8953257e-13  0              8.5904688e-08  1.1965779e-13  0              3.9907681    
   2300000   6363.961       200            200            0.0045702898  -0.0019820254   0              0.015692895    1.1508988e-13  0              1.1114557e-08  1.1965779e-13  0              3.9907681    
   2400000   6363.961       200            200            0.0045702898  -0.0019820254   0              0.015692895    1.4782283e-14  0              1.4275671e-09  1.1965779e-13  0              3.9907681    
   2500000   6363.961       200            200            0.0045702898  -0.0019820254   0              0.015692895    1.9047753e-15  0              1.8394957e-10  1.1965779e-13  0              3.9907681    
   2600000   6363.961       200            200            0.0045702898  -0.0019820254   0              0.015692895    2.4828251e-16  0              2.3977348e-11  1.1965779e-13  0              3.9907681    
   2700000   6363.961       200            200            0.0045702898  -0.0019820254   0              0.015692895    3.1037132e-17  0              2.9973441e-12  1.1965779e-13  0              3.9907681    
   2800000   6363.961       200            200            0.0045702898  -0.0019820254   0              0.015692895    3.7593899e-18  0              3.6305497e-13  1.1965779e-13  0              3.9907681    
   2900000   6363.961       200            200            0.0045702898  -0.0019820254   0              0.015692895    6.9951917e-22  0              6.7554555e-17  1.1965779e-13  0              3.9907681    
   3000000   6363.961       200            200            0.0045702898  -0.0019820254   0              0.015692895    1.9106136e-19  0              1.8451339e-14  1.1965779e-13  0              3.9907681    
Loop time of 364.074 on 4 procs for 3000000 steps with 2501 atoms

Performance: 7119425.519 ns/day, 0.000 hours/ns, 8240.076 timesteps/s
100.0% CPU use with 4 MPI tasks x 1 OpenMP threads

MPI task timing breakdown:
Section |  min time  |  avg time  |  max time  |%varavg| %total
---------------------------------------------------------------
Pair    | 88.603     | 116.65     | 144.92     | 257.7 | 32.04
Neigh   | 0.64059    | 0.65256    | 0.66414    |   1.1 |  0.18
Comm    | 22.434     | 49.538     | 77.939     | 383.8 | 13.61
Output  | 0.25998    | 0.26029    | 0.26063    |   0.1 |  0.07
Modify  | 106.8      | 142.03     | 175.93     | 283.3 | 39.01
Other   |            | 54.94      |            |       | 15.09

Nlocal:         625.25 ave         877 max         374 min
Histogram: 2 0 0 0 0 0 0 0 0 2
Nghost:           3.75 ave           5 max           3 min
Histogram: 2 0 0 0 0 1 0 0 0 1
Neighs:         729.25 ave        1085 max         374 min
Histogram: 2 0 0 0 0 0 0 0 0 2

Total # of neighbors = 2917
Ave neighs/atom = 1.1663335
Neighbor list builds = 126
Dangerous builds = 0

undump D1

############ Add spring between top chain to supp particle and then equilibrium  ###########

#fix sp1 support spring couple slider1 ${K0} ${lenspr} NULL NULL 0                                 # Add spring

#dump 		D2 all custom 100000 add_${num}*.dump id type diameter mass xu yu zu

#fix add1 all print 10 "${p0} ${distance} ${slider_z}" file add_distance_${num}.txt screen no      # out put step, distance(spring length), z-position of top chain

#run 1000000

#undump D2

#unfix add1

########## Pulling the supporting particle with constant velocity #############

#fix m1 support move linear 0.1 0 0 units box                                                      # apply constant velocity to supporting particles along x-direction V=0.1m/s

#fix move1 all print 100 "${p0} ${distance} ${slider_z}" file move_distance_${num}.txt screen no

#dump 		1 all custom 50000 move_${num}_*.dump id type diameter mass xu yu zu

#run 1000000

clear
  using 1 OpenMP thread(s) per MPI task

next num

jump SELF startloop
Total wall time: 9:41:03
