LAMMPS (23 Jun 2022 - Update 1)
  using 1 OpenMP thread(s) per MPI task
variable num index 0 1 2 3 4 5 6 7 8 9 10 11 12 13 14 15 16 17 18 19 20 21 22 23 24 25 26 27 28 29 30 31 32 33 34 35 36 37 38 39 40 41 42 43 44 45 46 47 48 49 50 51 52 53 54 55 56 57 58 59 60 61 62 63 64 65 66 67 68 69 70 71 72 73 74 75 76 77 78 79 80 81 82 83 84 85 86 87 88 89 90 91 92 93 94 95 96 97 98 99

label startloop

include granular.in
### Simulation of contact between two chain

##################### Simulation setup ####################

units micro                              # units
dimension	3                            # dimension
boundary	p p p                        # boundary condition p: periodic
atom_style	sphere                       # atom style
#processors * * 1

####################### Parameter ##################################

variable ind equal ${num}
variable ind equal 0

#variable lat0 equal 1                    #
variable lat1 equal 6      # Lattice distance of bottom chain
variable lat2 equal 3                    # Lattice distance of top chain
variable d1 equal 3+(0*0.01)+(v_ind*0.01)                       # Diamter of particle at bottom chain
variable d2 equal 3                      # Diamter of particle at top chain
#variable d3 equal 1                      # Diamter of supporting particle

variable n2e1 equal 1000*v_lat2             # Half length of top chain. 1500 is number of particles
variable n1e1 equal 1.5*v_n2e1*(v_lat1/v_lat2)             # Half length of bottom chain, which is 1.5 time larger than top chain
variable n1e2 equal -v_n1e1
variable n2e2 equal -v_n2e1
#variable lenspr equal -(v_n2e1+100)           # length of the spring connecting top chain and supporting particle
#variable lenspr1 equal -v_lenspr-0.1         # Position of supporting particle upper bound
#variable lenspr2 equal -v_lenspr+0.1         # Position of supporting particle lower bound

variable den equal 2.2 #grams/cm^3      # micrometer^3=10^-12 cm^3 Density of materials

variable V1 equal (1/6)*PI*(v_d1^3)     # Volume of particle 1
variable V2 equal (1/6)*PI*(v_d2^3)     # Volume of particle 2
#variable V3 equal (1/6)*PI*(v_d3^3)     # Volume of particle 3

variable mass1 equal v_den*v_V1  # Mass of particle 1 (picograms)
variable mass2 equal v_den*v_V2  # Mass of particle 2
#variable mass3 equal v_den*v_V3  # Mass of particle 3

# E GPa to picogram/(micrometer-microsecond^2)= 10^3 Pa= 10^-6 GPa
# Force unit(picogram-micrometer/microsecond^2)=10^-9 N= 1nN
# Spring stiffness (force/distance) 10^-3 N/m

variable K0 equal (1500/50)*(10^5)             # Spring stiffness conneting top chain and sup particle
variable E equal 100*(10^6)                    # Young's Modulus using for Hertz/material model
variable PR equal 0.3                          # Poisson's ratio using for Hertz/material model
variable Fn equal -1000                        # Force apply to each particles in top chain
variable dt equal 0.00001                      # Time step units microsecond
variable lgv equal 0.5                         #damping for langevin thermostat for slider


################### Creating the model #################################
lattice sc ${lat1}                                                               # Bottom chain type1
lattice sc 6                                                               
Lattice spacing in x,y,z = 6 6 6

region box block ${n1e2} ${n1e1} -100 100 -100 100 units box
region box block -9000 ${n1e1} -100 100 -100 100 units box
region box block -9000 9000 -100 100 -100 100 units box
region substrate block ${n1e2} ${n1e1} -0.5 0.5 0 0.5 units box
region substrate block -9000 ${n1e1} -0.5 0.5 0 0.5 units box
region substrate block -9000 9000 -0.5 0.5 0 0.5 units box

create_box 2 box
Created orthogonal box = (-9000 -100 -100) to (9000 100 100)
  2 by 1 by 1 MPI processor grid
create_atoms 1 region substrate
Created 3000 atoms
  using lattice units in orthogonal box = (-9000 -100 -100) to (9000 100 100)
  create_atoms CPU = 0.002 seconds

lattice sc ${lat2}                                                             # Top chain type2
lattice sc 3                                                             
Lattice spacing in x,y,z = 3 3 3

region slider1 block ${n2e2} ${n2e1} -0.1 0.1 5.9 6.1 units box
region slider1 block -3000 ${n2e1} -0.1 0.1 5.9 6.1 units box
region slider1 block -3000 3000 -0.1 0.1 5.9 6.1 units box

create_atoms 2 region slider1
Created 2001 atoms
  using lattice units in orthogonal box = (-9000 -100 -100) to (9000 100 100)
  create_atoms CPU = 0.001 seconds

#lattice sc ${lat0}                                                             # Supporting particle type3

#region support block ${lenspr1} ${lenspr2} -0.1 0.1 7.9 8.1 units box

#create_atoms 3 region support

set type 1 diameter ${d1}                    # Set mass and diameter for each particles type
set type 1 diameter 3                    
Setting atom values ...
  3000 settings made for diameter
set type 1 mass ${mass1}
set type 1 mass 31.101767270539
Setting atom values ...
  3000 settings made for mass
set type 2 diameter ${d2}
set type 2 diameter 3
Setting atom values ...
  2001 settings made for diameter
set type 2 mass ${mass2}
set type 2 mass 31.101767270539
Setting atom values ...
  2001 settings made for mass
#set type 3 diameter ${d3}
#set type 3 mass ${mass3}

group substrate region substrate           # Define gorup
3000 atoms in group substrate
group slider1 region slider1
2001 atoms in group slider1
#group support region support
#group substrate_slider union substrate slider1

########################## Potential ###################################
pair_style granular
pair_coeff 1 1 hertz/material 0.00000001 0.001 ${PR} tangential mindlin NULL 0.1 0.01 damping viscoelastic              ########### set E between each particle in same type is small to neglect their interaction
pair_coeff 1 1 hertz/material 0.00000001 0.001 0.3 tangential mindlin NULL 0.1 0.01 damping viscoelastic              
pair_coeff 2 2 hertz/material 0.00000001 0.001 ${PR} tangential mindlin NULL 0.1 0.01 damping viscoelastic
pair_coeff 2 2 hertz/material 0.00000001 0.001 0.3 tangential mindlin NULL 0.1 0.01 damping viscoelastic
#pair_coeff 3 3 hertz/material ${E} 0.001 ${PR} tangential mindlin NULL 0.1 0.01 damping viscoelastic
pair_coeff 1 2 hertz/material ${E} 0.001 ${PR} tangential mindlin NULL 0.1 0.01 damping viscoelastic
pair_coeff 1 2 hertz/material 100000000 0.001 ${PR} tangential mindlin NULL 0.1 0.01 damping viscoelastic
pair_coeff 1 2 hertz/material 100000000 0.001 0.3 tangential mindlin NULL 0.1 0.01 damping viscoelastic
#pair_coeff 1 3 hertz/material 0.00000001 0.001 ${PR} tangential mindlin NULL 0.1 0.01 damping viscoelastic
#pair_coeff 2 3 hertz/material 0.00000001 0.001 ${PR} tangential mindlin NULL 0.1 0.01 damping viscoelastic
comm_modify     vel yes
neigh_modify    delay 0 every 1 check yes

### Compute properties ###

compute 1 slider1 com                      # Compute the center of mass of top chain
#compute 2 support com                      # Compute the center of mass of supporting particle

variable p0 equal "step"

variable slider_z equal "c_1[3]"          # output the position of top chain in z-direction

#variable distance equal "c_2[1]-c_1[1]"   # Distance between COM of top chain and supporting particle

thermo 100000
thermo_style custom step lx ly lz press pxx pyy pzz ke pe temp c_1[1] c_1[2] c_1[3] #c_2[1] c_2[2] c_2[3] v_distance

############### Fix ##################


############## Equilibrium the system with apply force ########################

fix force_slider1 slider1 setforce NULL 0 NULL                                # Fix top chain not to move in y-direction

fix f_sub substrate freeze                                                    # Freeze the bottom chain

fix rigid_top slider1 rigid/nve group 1 slider1 langevin 0 0 ${lgv} 6987532   # NVE+langevin
fix rigid_top slider1 rigid/nve group 1 slider1 langevin 0 0 0.5 6987532   
  1 rigid bodies with 2001 atoms

fix add slider1 addforce 0 0 ${Fn} every 1                                    # Add force to top layer
fix add slider1 addforce 0 0 -1000 every 1                                    

timestep ${dt}
timestep 1e-05

# fix  nve_1 slider1 nve

dump 		D1 all custom 100000 Equi_${num}_*.dump id type diameter mass xu yu zu fx fy fz
dump 		D1 all custom 100000 Equi_0_*.dump id type diameter mass xu yu zu fx fy fz
dump_modify D1 format 5 %.18g
dump_modify D1 format 7 %.18g

run 3000000
Generated 0 of 1 mixed pair_coeff terms from geometric mixing rule
Neighbor list info ...
  update every 1 steps, delay 0 steps, check yes
  max neighbors/atom: 2000, page size: 100000
  master list distance cutoff = 3.1
  ghost atom cutoff = 3.1
  binsize = 1.55, bins = 11613 130 130
  1 neighbor lists, perpetual/occasional/extra = 1 0 0
  (1) pair granular, perpetual
      attributes: half, newton on, size, history
      pair build: half/size/bin/newton
      stencil: half/bin/3d
      bin: standard
Per MPI rank memory allocation (min/avg/max) = 417.1 | 417.1 | 417.1 Mbytes
   Step           Lx             Ly             Lz           Press           Pxx            Pyy            Pzz           KinEng         PotEng          Temp          c_1[1]         c_1[2]         c_1[3]    
         0   18000          200            200            0              0              0              0              0              0              0              1.1971759e-13  0              6            
    100000   18000          200            200            0.00229385    -1.7950951e-35  0              0.0068815499   1196854.7      0              5.7791832e+10  1.1971759e-13  0              3.3177117    
    200000   18000          200            200            0.00088501655  5.4679519e-41  0              0.0026550497   333342.6       0              1.6095921e+10  1.1971759e-13  0              3.0561683    
    300000   18000          200            200            0.00021344295 -3.5901885e-35  0              0.00064032884  33730.854      0              1.6287422e+09  1.1971759e-13  0              3.0379284    
    400000   18000          200            200            9.2395985e-05  1.7951032e-35  0              0.00027718795  7560.4207      0              3.6506566e+08  1.1971759e-13  0              3.0083579    
    500000   18000          200            200           -3.0271267e-05  5.0759102e-41  0             -9.08138e-05    1009.3443      0              48737623       1.1971759e-13  0              3.0014131    
    600000   18000          200            200            0.0047631131  -1.7950949e-35  0              0.014289339    484.64727      0              23401882       1.1971759e-13  0              2.9985754    
    700000   18000          200            200            0.0017338771   4.4877431e-35  0              0.0052016312   0.083289265    0              4021.7405      1.1971759e-13  0              2.9992716    
    800000   18000          200            200            0.0024002859   1.7950978e-35  0              0.0072008576   1.0244052      0              49464.861      1.1971759e-13  0              2.9990949    
    900000   18000          200            200            0.0026428568  -4.4877337e-36  0              0.0079285705   0.21264486     0              10267.859      1.1971759e-13  0              2.999035     
   1000000   18000          200            200            0.0027297054   1.7950975e-35  0              0.0081891161   0.034553785    0              1668.4786      1.1971759e-13  0              2.999014     
   1100000   18000          200            200            0.0027608771  -1.7950964e-35  0              0.0082826314   0.0053717728   0              259.38368      1.1971759e-13  0              2.9990066    
   1200000   18000          200            200            0.0027720417  -2.24387e-36    0              0.0083161251   0.00081977449  0              39.583976      1.1971759e-13  0              2.9990039    
   1300000   18000          200            200            0.0027760321  -7.8535485e-36  0              0.0083280964   0.00012346965  0              5.9619078      1.1971759e-13  0              2.999003     
   1400000   18000          200            200            0.0027774559   7.0120969e-37  0              0.0083323677   1.8393817e-05  0              0.88817157     1.1971759e-13  0              2.9990026    
   1500000   18000          200            200            0.002777963    8.5145732e-45  0              0.0083338891   2.7142069e-06  0              0.13105934     1.1971759e-13  0              2.9990025    
   1600000   18000          200            200            0.0027781434  -2.8048387e-37  0              0.0083344302   3.9713634e-07  0              0.019176293    1.1971759e-13  0              2.9990025    
   1700000   18000          200            200            0.0027782074   1.0292667e-44  0              0.0083346223   5.7668191e-08  0              0.0027845906   1.1971759e-13  0              2.9990024    
   1800000   18000          200            200            0.0027782301  -3.0853226e-36  0              0.0083346904   8.3167811e-09  0              0.00040158759  1.1971759e-13  0              2.9990024    
   1900000   18000          200            200            0.0027782382  -1.9633871e-36  0              0.0083347145   1.1918357e-09  0              5.754948e-05   1.1971759e-13  0              2.9990024    
   2000000   18000          200            200            0.002778241   -3.6462904e-36  0              0.008334723    1.6982624e-10  0              8.2003014e-06  1.1971759e-13  0              2.9990024    
   2100000   18000          200            200            0.002778242    1.4024194e-36  0              0.008334726    2.4073673e-11  0              1.1624315e-06  1.1971759e-13  0              2.9990024    
   2200000   18000          200            200            0.0027782423   8.4145164e-37  0              0.008334727    3.3945963e-12  0              1.6391291e-07  1.1971759e-13  0              2.9990024    
   2300000   18000          200            200            0.0027782425   2.8048389e-37  0              0.0083347274   4.7590157e-13  0              2.2979584e-08  1.1971759e-13  0              2.9990024    
   2400000   18000          200            200            0.0027782425   2.8048389e-37  0              0.0083347275   6.6501708e-14  0              3.2111295e-09  1.1971759e-13  0              2.9990024    
   2500000   18000          200            200            0.0027782425   2.8048389e-37  0              0.0083347276   9.4018142e-15  0              4.5397996e-10  1.1971759e-13  0              2.9990024    
   2600000   18000          200            200            0.0027782425   1.6829033e-36  0              0.0083347276   1.2164432e-15  0              5.8737688e-11  1.1971759e-13  0              2.9990024    
   2700000   18000          200            200            0.0027782425  -1.1219355e-36  0              0.0083347276   2.3974505e-16  0              1.1576431e-11  1.1971759e-13  0              2.9990024    
   2800000   18000          200            200            0.0027782425   1.0303807e-44  0              0.0083347276   9.0660267e-18  0              4.3776598e-13  1.1971759e-13  0              2.9990024    
   2900000   18000          200            200            0.0027782425  -2.8048387e-37  0              0.0083347276   1.047127e-17   0              5.0562014e-13  1.1971759e-13  0              2.9990024    
   3000000   18000          200            200            0.0027782425  -8.4145162e-37  0              0.0083347276   7.7245363e-18  0              3.7299021e-13  1.1971759e-13  0              2.9990024    
Loop time of 869.35 on 2 procs for 3000000 steps with 5001 atoms

Performance: 2981536.338 ns/day, 0.000 hours/ns, 3450.852 timesteps/s
100.0% CPU use with 2 MPI tasks x 1 OpenMP threads

MPI task timing breakdown:
Section |  min time  |  avg time  |  max time  |%varavg| %total
---------------------------------------------------------------
Pair    | 292.89     | 293.97     | 295.05     |   6.3 | 33.81
Neigh   | 23.17      | 23.175     | 23.18      |   0.1 |  2.67
Comm    | 56.255     | 56.96      | 57.665     |   9.3 |  6.55
Output  | 0.60616    | 0.60622    | 0.60628    |   0.0 |  0.07
Modify  | 432.65     | 432.9      | 433.15     |   1.2 | 49.80
Other   |            | 61.74      |            |       |  7.10

Nlocal:         2500.5 ave        2501 max        2500 min
Histogram: 1 0 0 0 0 0 0 0 0 1
Nghost:            2.5 ave           3 max           2 min
Histogram: 1 0 0 0 0 0 0 0 0 1
Neighs:         1500.5 ave        1501 max        1500 min
Histogram: 1 0 0 0 0 0 0 0 0 1

Total # of neighbors = 3001
Ave neighs/atom = 0.60007998
Neighbor list builds = 172
Dangerous builds = 0

undump D1

############ Add spring between top chain to supp particle and then equilibrium  ###########

#fix sp1 support spring couple slider1 ${K0} ${lenspr} NULL NULL 0                                 # Add spring

#dump 		D2 all custom 100000 add_${num}*.dump id type diameter mass xu yu zu

#fix add1 all print 10 "${p0} ${distance} ${slider_z}" file add_distance_${num}.txt screen no      # out put step, distance(spring length), z-position of top chain

#run 1000000

#undump D2

#unfix add1

########## Pulling the supporting particle with constant velocity #############

#fix m1 support move linear 0.1 0 0 units box                                                      # apply constant velocity to supporting particles along x-direction V=0.1m/s

#fix move1 all print 100 "${p0} ${distance} ${slider_z}" file move_distance_${num}.txt screen no

#dump 		1 all custom 50000 move_${num}_*.dump id type diameter mass xu yu zu

#run 1000000

clear
  using 1 OpenMP thread(s) per MPI task

next num

jump SELF startloop

include granular.in
### Simulation of contact between two chain

##################### Simulation setup ####################

units micro                              # units
dimension	3                            # dimension
boundary	p p p                        # boundary condition p: periodic
atom_style	sphere                       # atom style
#processors * * 1

####################### Parameter ##################################

variable ind equal ${num}
variable ind equal 1

#variable lat0 equal 1                    #
variable lat1 equal 6      # Lattice distance of bottom chain
variable lat2 equal 3                    # Lattice distance of top chain
variable d1 equal 3+(0*0.01)+(v_ind*0.01)                       # Diamter of particle at bottom chain
variable d2 equal 3                      # Diamter of particle at top chain
#variable d3 equal 1                      # Diamter of supporting particle

variable n2e1 equal 1000*v_lat2             # Half length of top chain. 1500 is number of particles
variable n1e1 equal 1.5*v_n2e1*(v_lat1/v_lat2)             # Half length of bottom chain, which is 1.5 time larger than top chain
variable n1e2 equal -v_n1e1
variable n2e2 equal -v_n2e1
#variable lenspr equal -(v_n2e1+100)           # length of the spring connecting top chain and supporting particle
#variable lenspr1 equal -v_lenspr-0.1         # Position of supporting particle upper bound
#variable lenspr2 equal -v_lenspr+0.1         # Position of supporting particle lower bound

variable den equal 2.2 #grams/cm^3      # micrometer^3=10^-12 cm^3 Density of materials

variable V1 equal (1/6)*PI*(v_d1^3)     # Volume of particle 1
variable V2 equal (1/6)*PI*(v_d2^3)     # Volume of particle 2
#variable V3 equal (1/6)*PI*(v_d3^3)     # Volume of particle 3

variable mass1 equal v_den*v_V1  # Mass of particle 1 (picograms)
variable mass2 equal v_den*v_V2  # Mass of particle 2
#variable mass3 equal v_den*v_V3  # Mass of particle 3

# E GPa to picogram/(micrometer-microsecond^2)= 10^3 Pa= 10^-6 GPa
# Force unit(picogram-micrometer/microsecond^2)=10^-9 N= 1nN
# Spring stiffness (force/distance) 10^-3 N/m

variable K0 equal (1500/50)*(10^5)             # Spring stiffness conneting top chain and sup particle
variable E equal 100*(10^6)                    # Young's Modulus using for Hertz/material model
variable PR equal 0.3                          # Poisson's ratio using for Hertz/material model
variable Fn equal -1000                        # Force apply to each particles in top chain
variable dt equal 0.00001                      # Time step units microsecond
variable lgv equal 0.5                         #damping for langevin thermostat for slider


################### Creating the model #################################
lattice sc ${lat1}                                                               # Bottom chain type1
lattice sc 6                                                               
Lattice spacing in x,y,z = 6 6 6

region box block ${n1e2} ${n1e1} -100 100 -100 100 units box
region box block -9000 ${n1e1} -100 100 -100 100 units box
region box block -9000 9000 -100 100 -100 100 units box
region substrate block ${n1e2} ${n1e1} -0.5 0.5 0 0.5 units box
region substrate block -9000 ${n1e1} -0.5 0.5 0 0.5 units box
region substrate block -9000 9000 -0.5 0.5 0 0.5 units box

create_box 2 box
Created orthogonal box = (-9000 -100 -100) to (9000 100 100)
  2 by 1 by 1 MPI processor grid
create_atoms 1 region substrate
Created 3000 atoms
  using lattice units in orthogonal box = (-9000 -100 -100) to (9000 100 100)
  create_atoms CPU = 0.002 seconds

lattice sc ${lat2}                                                             # Top chain type2
lattice sc 3                                                             
Lattice spacing in x,y,z = 3 3 3

region slider1 block ${n2e2} ${n2e1} -0.1 0.1 5.9 6.1 units box
region slider1 block -3000 ${n2e1} -0.1 0.1 5.9 6.1 units box
region slider1 block -3000 3000 -0.1 0.1 5.9 6.1 units box

create_atoms 2 region slider1
Created 2001 atoms
  using lattice units in orthogonal box = (-9000 -100 -100) to (9000 100 100)
  create_atoms CPU = 0.001 seconds

#lattice sc ${lat0}                                                             # Supporting particle type3

#region support block ${lenspr1} ${lenspr2} -0.1 0.1 7.9 8.1 units box

#create_atoms 3 region support

set type 1 diameter ${d1}                    # Set mass and diameter for each particles type
set type 1 diameter 3.01                    
Setting atom values ...
  3000 settings made for diameter
set type 1 mass ${mass1}
set type 1 mass 31.4138228207373
Setting atom values ...
  3000 settings made for mass
set type 2 diameter ${d2}
set type 2 diameter 3
Setting atom values ...
  2001 settings made for diameter
set type 2 mass ${mass2}
set type 2 mass 31.101767270539
Setting atom values ...
  2001 settings made for mass
#set type 3 diameter ${d3}
#set type 3 mass ${mass3}

group substrate region substrate           # Define gorup
3000 atoms in group substrate
group slider1 region slider1
2001 atoms in group slider1
#group support region support
#group substrate_slider union substrate slider1

########################## Potential ###################################
pair_style granular
pair_coeff 1 1 hertz/material 0.00000001 0.001 ${PR} tangential mindlin NULL 0.1 0.01 damping viscoelastic              ########### set E between each particle in same type is small to neglect their interaction
pair_coeff 1 1 hertz/material 0.00000001 0.001 0.3 tangential mindlin NULL 0.1 0.01 damping viscoelastic              
pair_coeff 2 2 hertz/material 0.00000001 0.001 ${PR} tangential mindlin NULL 0.1 0.01 damping viscoelastic
pair_coeff 2 2 hertz/material 0.00000001 0.001 0.3 tangential mindlin NULL 0.1 0.01 damping viscoelastic
#pair_coeff 3 3 hertz/material ${E} 0.001 ${PR} tangential mindlin NULL 0.1 0.01 damping viscoelastic
pair_coeff 1 2 hertz/material ${E} 0.001 ${PR} tangential mindlin NULL 0.1 0.01 damping viscoelastic
pair_coeff 1 2 hertz/material 100000000 0.001 ${PR} tangential mindlin NULL 0.1 0.01 damping viscoelastic
pair_coeff 1 2 hertz/material 100000000 0.001 0.3 tangential mindlin NULL 0.1 0.01 damping viscoelastic
#pair_coeff 1 3 hertz/material 0.00000001 0.001 ${PR} tangential mindlin NULL 0.1 0.01 damping viscoelastic
#pair_coeff 2 3 hertz/material 0.00000001 0.001 ${PR} tangential mindlin NULL 0.1 0.01 damping viscoelastic
comm_modify     vel yes
neigh_modify    delay 0 every 1 check yes

### Compute properties ###

compute 1 slider1 com                      # Compute the center of mass of top chain
#compute 2 support com                      # Compute the center of mass of supporting particle

variable p0 equal "step"

variable slider_z equal "c_1[3]"          # output the position of top chain in z-direction

#variable distance equal "c_2[1]-c_1[1]"   # Distance between COM of top chain and supporting particle

thermo 100000
thermo_style custom step lx ly lz press pxx pyy pzz ke pe temp c_1[1] c_1[2] c_1[3] #c_2[1] c_2[2] c_2[3] v_distance

############### Fix ##################


############## Equilibrium the system with apply force ########################

fix force_slider1 slider1 setforce NULL 0 NULL                                # Fix top chain not to move in y-direction

fix f_sub substrate freeze                                                    # Freeze the bottom chain

fix rigid_top slider1 rigid/nve group 1 slider1 langevin 0 0 ${lgv} 6987532   # NVE+langevin
fix rigid_top slider1 rigid/nve group 1 slider1 langevin 0 0 0.5 6987532   
  1 rigid bodies with 2001 atoms

fix add slider1 addforce 0 0 ${Fn} every 1                                    # Add force to top layer
fix add slider1 addforce 0 0 -1000 every 1                                    

timestep ${dt}
timestep 1e-05

# fix  nve_1 slider1 nve

dump 		D1 all custom 100000 Equi_${num}_*.dump id type diameter mass xu yu zu fx fy fz
dump 		D1 all custom 100000 Equi_1_*.dump id type diameter mass xu yu zu fx fy fz
dump_modify D1 format 5 %.18g
dump_modify D1 format 7 %.18g

run 3000000
Generated 0 of 1 mixed pair_coeff terms from geometric mixing rule
Neighbor list info ...
  update every 1 steps, delay 0 steps, check yes
  max neighbors/atom: 2000, page size: 100000
  master list distance cutoff = 3.11
  ghost atom cutoff = 3.11
  binsize = 1.555, bins = 11576 129 129
  1 neighbor lists, perpetual/occasional/extra = 1 0 0
  (1) pair granular, perpetual
      attributes: half, newton on, size, history
      pair build: half/size/bin/newton
      stencil: half/bin/3d
      bin: standard
Per MPI rank memory allocation (min/avg/max) = 409.8 | 409.8 | 409.8 Mbytes
   Step           Lx             Ly             Lz           Press           Pxx            Pyy            Pzz           KinEng         PotEng          Temp          c_1[1]         c_1[2]         c_1[3]    
         0   18000          200            200            0              0              0              0              0              0              0              1.1971759e-13  0              6            
    100000   18000          200            200            0.0023004135  -2.6926434e-35  0              0.0069012404   1201428.9      0              5.80127e+10    1.1971759e-13  0              3.3178921    
    200000   18000          200            200            0.00089471303 -3.5901894e-35  0              0.0026841391   338599.38      0              1.6349752e+10  1.1971759e-13  0              3.0577561    
    300000   18000          200            200            0.00022205806  5.8155895e-41  0              0.00066617419  36070.979      0              1.7417385e+09  1.1971759e-13  0              3.041666     
    400000   18000          200            200            0.00010057537  1.9746071e-34  0              0.0003017261   8825.797       0              4.2616615e+08  1.1971759e-13  0              3.0127046    
    500000   18000          200            200           -2.3142661e-05  5.1949566e-41  0             -6.9427982e-05  578.44579      0              27931077       1.1971759e-13  0              3.0066271    
    600000   18000          200            200            0.0055689124   1.7950985e-35  0              0.016706737    216.37614      0              10448029       1.1971759e-13  0              3.0034194    
    700000   18000          200            200            0.0018156624   2.6926462e-35  0              0.0054469873   15.369742      0              742149.85      1.1971759e-13  0              3.0042511    
    800000   18000          200            200            0.0023957618   1.9746066e-34  0              0.0071872854   0.35236821     0              17014.6        1.1971759e-13  0              3.0040979    
    900000   18000          200            200            0.0026407054   8.9754925e-36  0              0.0079221161   0.041825536    0              2019.6054      1.1971759e-13  0              3.0040373    
   1000000   18000          200            200            0.002731285    3.5901943e-35  0              0.008193855    0.0071751258   0              346.46115      1.1971759e-13  0              3.0040154    
   1100000   18000          200            200            0.002764223    8.9754878e-36  0              0.0082926689   0.0012385404   0              59.804681      1.1971759e-13  0              3.0040075    
   1200000   18000          200            200            0.0027761425   1.1248612e-42  0              0.0083284276   0.00020751697  0              10.020252      1.1971759e-13  0              3.0040046    
   1300000   18000          200            200            0.0027804474   7.4372299e-44  0              0.0083413422   3.3843784e-05  0              1.6341952      1.1971759e-13  0              3.0040036    
   1400000   18000          200            200            0.0027820004   1.4024194e-37  0              0.0083460011   5.3994011e-06  0              0.26071775     1.1971759e-13  0              3.0040032    
   1500000   18000          200            200            0.0027825601  -1.9633871e-36  0              0.0083476804   8.4595066e-07  0              0.04084793     1.1971759e-13  0              3.0040031    
   1600000   18000          200            200            0.0027827617   5.6096776e-37  0              0.0083482852   1.3054188e-07  0              0.0063034001   1.1971759e-13  0              3.004003     
   1700000   18000          200            200            0.0027828343  -2.8048387e-37  0              0.0083485028   1.9885646e-08  0              0.00096020666  1.1971759e-13  0              3.004003     
   1800000   18000          200            200            0.0027828604   1.1219355e-36  0              0.0083485811   2.9954918e-09  0              0.00014464158  1.1971759e-13  0              3.004003     
   1900000   18000          200            200            0.0027828697   2.5243549e-36  0              0.0083486092   4.4681296e-10  0              2.1574999e-05  1.1971759e-13  0              3.004003     
   2000000   18000          200            200            0.0027828731  -1.4024194e-36  0              0.0083486193   6.6086485e-11  0              3.1910799e-06  1.1971759e-13  0              3.004003     
   2100000   18000          200            200            0.0027828743  -2.8048388e-36  0              0.0083486229   9.6948172e-12  0              4.6812803e-07  1.1971759e-13  0              3.004003     
   2200000   18000          200            200            0.0027828747  -1.4024194e-36  0              0.0083486242   1.4133182e-12  0              6.8244079e-08  1.1971759e-13  0              3.004003     
   2300000   18000          200            200            0.0027828749   1.0386022e-44  0              0.0083486247   2.0464718e-13  0              9.8816801e-09  1.1971759e-13  0              3.004003     
   2400000   18000          200            200            0.002782875   -2.8048387e-37  0              0.0083486249   2.9272293e-14  0              1.4134543e-09  1.1971759e-13  0              3.004003     
   2500000   18000          200            200            0.002782875    2.8048389e-37  0              0.0083486249   4.2489322e-15  0              2.0516573e-10  1.1971759e-13  0              3.004003     
   2600000   18000          200            200            0.002782875    1.9633872e-36  0              0.0083486249   6.9763805e-16  0              3.3686445e-11  1.1971759e-13  0              3.004003     
   2700000   18000          200            200            0.002782875   -1.9633871e-36  0              0.008348625    2.1992745e-17  0              1.061951e-12   1.1971759e-13  0              3.004003     
   2800000   18000          200            200            0.002782875    8.4145164e-37  0              0.008348625    1.1862085e-17  0              5.7277761e-13  1.1971759e-13  0              3.004003     
   2900000   18000          200            200            0.002782875    2.8048389e-37  0              0.008348625    1.0681915e-19  0              5.1579143e-15  1.1971759e-13  0              3.004003     
   3000000   18000          200            200            0.002782875    2.8048389e-37  0              0.008348625    4.0883798e-19  0              1.9741323e-14  1.1971759e-13  0              3.004003     
Loop time of 838.168 on 2 procs for 3000000 steps with 5001 atoms

Performance: 3092457.270 ns/day, 0.000 hours/ns, 3579.233 timesteps/s
99.9% CPU use with 2 MPI tasks x 1 OpenMP threads

MPI task timing breakdown:
Section |  min time  |  avg time  |  max time  |%varavg| %total
---------------------------------------------------------------
Pair    | 265.53     | 266.3      | 267.07     |   4.7 | 31.77
Neigh   | 23.102     | 23.106     | 23.11      |   0.1 |  2.76
Comm    | 58.183     | 58.66      | 59.136     |   6.2 |  7.00
Output  | 0.60794    | 0.60797    | 0.608      |   0.0 |  0.07
Modify  | 427.24     | 427.27     | 427.29     |   0.1 | 50.98
Other   |            | 62.23      |            |       |  7.42

Nlocal:         2500.5 ave        2501 max        2500 min
Histogram: 1 0 0 0 0 0 0 0 0 1
Nghost:            2.5 ave           3 max           2 min
Histogram: 1 0 0 0 0 0 0 0 0 1
Neighs:         1500.5 ave        1501 max        1500 min
Histogram: 1 0 0 0 0 0 0 0 0 1

Total # of neighbors = 3001
Ave neighs/atom = 0.60007998
Neighbor list builds = 174
Dangerous builds = 0

undump D1

############ Add spring between top chain to supp particle and then equilibrium  ###########

#fix sp1 support spring couple slider1 ${K0} ${lenspr} NULL NULL 0                                 # Add spring

#dump 		D2 all custom 100000 add_${num}*.dump id type diameter mass xu yu zu

#fix add1 all print 10 "${p0} ${distance} ${slider_z}" file add_distance_${num}.txt screen no      # out put step, distance(spring length), z-position of top chain

#run 1000000

#undump D2

#unfix add1

########## Pulling the supporting particle with constant velocity #############

#fix m1 support move linear 0.1 0 0 units box                                                      # apply constant velocity to supporting particles along x-direction V=0.1m/s

#fix move1 all print 100 "${p0} ${distance} ${slider_z}" file move_distance_${num}.txt screen no

#dump 		1 all custom 50000 move_${num}_*.dump id type diameter mass xu yu zu

#run 1000000

clear
  using 1 OpenMP thread(s) per MPI task

next num

jump SELF startloop

include granular.in
### Simulation of contact between two chain

##################### Simulation setup ####################

units micro                              # units
dimension	3                            # dimension
boundary	p p p                        # boundary condition p: periodic
atom_style	sphere                       # atom style
#processors * * 1

####################### Parameter ##################################

variable ind equal ${num}
variable ind equal 2

#variable lat0 equal 1                    #
variable lat1 equal 6      # Lattice distance of bottom chain
variable lat2 equal 3                    # Lattice distance of top chain
variable d1 equal 3+(0*0.01)+(v_ind*0.01)                       # Diamter of particle at bottom chain
variable d2 equal 3                      # Diamter of particle at top chain
#variable d3 equal 1                      # Diamter of supporting particle

variable n2e1 equal 1000*v_lat2             # Half length of top chain. 1500 is number of particles
variable n1e1 equal 1.5*v_n2e1*(v_lat1/v_lat2)             # Half length of bottom chain, which is 1.5 time larger than top chain
variable n1e2 equal -v_n1e1
variable n2e2 equal -v_n2e1
#variable lenspr equal -(v_n2e1+100)           # length of the spring connecting top chain and supporting particle
#variable lenspr1 equal -v_lenspr-0.1         # Position of supporting particle upper bound
#variable lenspr2 equal -v_lenspr+0.1         # Position of supporting particle lower bound

variable den equal 2.2 #grams/cm^3      # micrometer^3=10^-12 cm^3 Density of materials

variable V1 equal (1/6)*PI*(v_d1^3)     # Volume of particle 1
variable V2 equal (1/6)*PI*(v_d2^3)     # Volume of particle 2
#variable V3 equal (1/6)*PI*(v_d3^3)     # Volume of particle 3

variable mass1 equal v_den*v_V1  # Mass of particle 1 (picograms)
variable mass2 equal v_den*v_V2  # Mass of particle 2
#variable mass3 equal v_den*v_V3  # Mass of particle 3

# E GPa to picogram/(micrometer-microsecond^2)= 10^3 Pa= 10^-6 GPa
# Force unit(picogram-micrometer/microsecond^2)=10^-9 N= 1nN
# Spring stiffness (force/distance) 10^-3 N/m

variable K0 equal (1500/50)*(10^5)             # Spring stiffness conneting top chain and sup particle
variable E equal 100*(10^6)                    # Young's Modulus using for Hertz/material model
variable PR equal 0.3                          # Poisson's ratio using for Hertz/material model
variable Fn equal -1000                        # Force apply to each particles in top chain
variable dt equal 0.00001                      # Time step units microsecond
variable lgv equal 0.5                         #damping for langevin thermostat for slider


################### Creating the model #################################
lattice sc ${lat1}                                                               # Bottom chain type1
lattice sc 6                                                               
Lattice spacing in x,y,z = 6 6 6

region box block ${n1e2} ${n1e1} -100 100 -100 100 units box
region box block -9000 ${n1e1} -100 100 -100 100 units box
region box block -9000 9000 -100 100 -100 100 units box
region substrate block ${n1e2} ${n1e1} -0.5 0.5 0 0.5 units box
region substrate block -9000 ${n1e1} -0.5 0.5 0 0.5 units box
region substrate block -9000 9000 -0.5 0.5 0 0.5 units box

create_box 2 box
Created orthogonal box = (-9000 -100 -100) to (9000 100 100)
  2 by 1 by 1 MPI processor grid
create_atoms 1 region substrate
Created 3000 atoms
  using lattice units in orthogonal box = (-9000 -100 -100) to (9000 100 100)
  create_atoms CPU = 0.002 seconds

lattice sc ${lat2}                                                             # Top chain type2
lattice sc 3                                                             
Lattice spacing in x,y,z = 3 3 3

region slider1 block ${n2e2} ${n2e1} -0.1 0.1 5.9 6.1 units box
region slider1 block -3000 ${n2e1} -0.1 0.1 5.9 6.1 units box
region slider1 block -3000 3000 -0.1 0.1 5.9 6.1 units box

create_atoms 2 region slider1
Created 2001 atoms
  using lattice units in orthogonal box = (-9000 -100 -100) to (9000 100 100)
  create_atoms CPU = 0.001 seconds

#lattice sc ${lat0}                                                             # Supporting particle type3

#region support block ${lenspr1} ${lenspr2} -0.1 0.1 7.9 8.1 units box

#create_atoms 3 region support

set type 1 diameter ${d1}                    # Set mass and diameter for each particles type
set type 1 diameter 3.02                    
Setting atom values ...
  3000 settings made for diameter
set type 1 mass ${mass1}
set type 1 mass 31.7279587335909
Setting atom values ...
  3000 settings made for mass
set type 2 diameter ${d2}
set type 2 diameter 3
Setting atom values ...
  2001 settings made for diameter
set type 2 mass ${mass2}
set type 2 mass 31.101767270539
Setting atom values ...
  2001 settings made for mass
#set type 3 diameter ${d3}
#set type 3 mass ${mass3}

group substrate region substrate           # Define gorup
3000 atoms in group substrate
group slider1 region slider1
2001 atoms in group slider1
#group support region support
#group substrate_slider union substrate slider1

########################## Potential ###################################
pair_style granular
pair_coeff 1 1 hertz/material 0.00000001 0.001 ${PR} tangential mindlin NULL 0.1 0.01 damping viscoelastic              ########### set E between each particle in same type is small to neglect their interaction
pair_coeff 1 1 hertz/material 0.00000001 0.001 0.3 tangential mindlin NULL 0.1 0.01 damping viscoelastic              
pair_coeff 2 2 hertz/material 0.00000001 0.001 ${PR} tangential mindlin NULL 0.1 0.01 damping viscoelastic
pair_coeff 2 2 hertz/material 0.00000001 0.001 0.3 tangential mindlin NULL 0.1 0.01 damping viscoelastic
#pair_coeff 3 3 hertz/material ${E} 0.001 ${PR} tangential mindlin NULL 0.1 0.01 damping viscoelastic
pair_coeff 1 2 hertz/material ${E} 0.001 ${PR} tangential mindlin NULL 0.1 0.01 damping viscoelastic
pair_coeff 1 2 hertz/material 100000000 0.001 ${PR} tangential mindlin NULL 0.1 0.01 damping viscoelastic
pair_coeff 1 2 hertz/material 100000000 0.001 0.3 tangential mindlin NULL 0.1 0.01 damping viscoelastic
#pair_coeff 1 3 hertz/material 0.00000001 0.001 ${PR} tangential mindlin NULL 0.1 0.01 damping viscoelastic
#pair_coeff 2 3 hertz/material 0.00000001 0.001 ${PR} tangential mindlin NULL 0.1 0.01 damping viscoelastic
comm_modify     vel yes
neigh_modify    delay 0 every 1 check yes

### Compute properties ###

compute 1 slider1 com                      # Compute the center of mass of top chain
#compute 2 support com                      # Compute the center of mass of supporting particle

variable p0 equal "step"

variable slider_z equal "c_1[3]"          # output the position of top chain in z-direction

#variable distance equal "c_2[1]-c_1[1]"   # Distance between COM of top chain and supporting particle

thermo 100000
thermo_style custom step lx ly lz press pxx pyy pzz ke pe temp c_1[1] c_1[2] c_1[3] #c_2[1] c_2[2] c_2[3] v_distance

############### Fix ##################


############## Equilibrium the system with apply force ########################

fix force_slider1 slider1 setforce NULL 0 NULL                                # Fix top chain not to move in y-direction

fix f_sub substrate freeze                                                    # Freeze the bottom chain

fix rigid_top slider1 rigid/nve group 1 slider1 langevin 0 0 ${lgv} 6987532   # NVE+langevin
fix rigid_top slider1 rigid/nve group 1 slider1 langevin 0 0 0.5 6987532   
  1 rigid bodies with 2001 atoms

fix add slider1 addforce 0 0 ${Fn} every 1                                    # Add force to top layer
fix add slider1 addforce 0 0 -1000 every 1                                    

timestep ${dt}
timestep 1e-05

# fix  nve_1 slider1 nve

dump 		D1 all custom 100000 Equi_${num}_*.dump id type diameter mass xu yu zu fx fy fz
dump 		D1 all custom 100000 Equi_2_*.dump id type diameter mass xu yu zu fx fy fz
dump_modify D1 format 5 %.18g
dump_modify D1 format 7 %.18g

run 3000000
Generated 0 of 1 mixed pair_coeff terms from geometric mixing rule
Neighbor list info ...
  update every 1 steps, delay 0 steps, check yes
  max neighbors/atom: 2000, page size: 100000
  master list distance cutoff = 3.12
  ghost atom cutoff = 3.12
  binsize = 1.56, bins = 11539 129 129
  1 neighbor lists, perpetual/occasional/extra = 1 0 0
  (1) pair granular, perpetual
      attributes: half, newton on, size, history
      pair build: half/size/bin/newton
      stencil: half/bin/3d
      bin: standard
Per MPI rank memory allocation (min/avg/max) = 408.6 | 408.6 | 408.6 Mbytes
   Step           Lx             Ly             Lz           Press           Pxx            Pyy            Pzz           KinEng         PotEng          Temp          c_1[1]         c_1[2]         c_1[3]    
         0   18000          200            200            0              0              0              0              0              0              0              1.1971759e-13  0              6            
    100000   18000          200            200            0.0023069784  -8.9754704e-36  0              0.0069209352   1206009.7      0              5.8233891e+10  1.1971759e-13  0              3.3180612    
    200000   18000          200            200            0.00090443916 -1.0770579e-34  0              0.0027133175   343893.15      0              1.6605369e+10  1.1971759e-13  0              3.0593137    
    300000   18000          200            200            0.00023074967 -7.1803825e-35  0              0.00069224902  38487.078      0              1.8584032e+09  1.1971759e-13  0              3.0453598    
    400000   18000          200            200            0.00010885302  3.5901989e-35  0              0.00032655905  10187.224      0              4.9190458e+08  1.1971759e-13  0              3.0169999    
    500000   18000          200            200           -1.5889082e-05  8.9754891e-35  0             -4.7667247e-05  267.13254      0              12898874       1.1971759e-13  0              3.0117823    
    600000   18000          200            200            0.0060313117  -1.2565676e-34  0              0.018093935    29.867333      0              1442186.6      1.1971759e-13  0              3.0083338    
    700000   18000          200            200            0.0020246873   2.6926462e-35  0              0.0060740619   49.607464      0              2395366.9      1.1971759e-13  0              3.0091967    
    800000   18000          200            200            0.0024634017  -1.7950958e-35  0              0.0073902052   4.3441118      0              209761.61      1.1971759e-13  0              3.0090829    
    900000   18000          200            200            0.002673632    1.7950977e-35  0              0.0080208961   0.66835972     0              32272.699      1.1971759e-13  0              3.0090311    
   1000000   18000          200            200            0.0027489099   1.7950975e-35  0              0.0082467296   0.10757772     0              5194.5431      1.1971759e-13  0              3.0090128    
   1100000   18000          200            200            0.0027746624  -5.3852901e-35  0              0.0083239871   0.016870241    0              814.60355      1.1971759e-13  0              3.0090066    
   1200000   18000          200            200            0.0027833068   1.1641472e-42  0              0.0083499205   0.0025725291   0              124.21823      1.1971759e-13  0              3.0090045    
   1300000   18000          200            200            0.0027861619   3.9267744e-36  0              0.0083584858   0.00038283258  0              18.485615      1.1971759e-13  0              3.0090039    
   1400000   18000          200            200            0.0027870877  -1.2621774e-36  0              0.0083612632   5.5764121e-05  0              2.6926498      1.1971759e-13  0              3.0090036    
   1500000   18000          200            200            0.0027873812  -1.9633871e-36  0              0.0083621435   7.9676172e-06  0              0.38472772     1.1971759e-13  0              3.0090036    
   1600000   18000          200            200            0.0027874714  -2.8048387e-37  0              0.0083624142   1.1184141e-06  0              0.054004215    1.1971759e-13  0              3.0090035    
   1700000   18000          200            200            0.002787498    2.8048389e-37  0              0.008362494    1.5440341e-07  0              0.007455588    1.1971759e-13  0              3.0090035    
   1800000   18000          200            200            0.0027875054  -2.8048387e-37  0              0.0083625161   2.0981193e-08  0              0.0010131067   1.1971759e-13  0              3.0090035    
   1900000   18000          200            200            0.0027875072  -5.6096774e-37  0              0.0083625215   2.8074825e-09  0              0.00013556328  1.1971759e-13  0              3.0090035    
   2000000   18000          200            200            0.0027875075   1.0310082e-44  0              0.0083625226   3.700616e-10   0              1.786895e-05   1.1971759e-13  0              3.0090035    
   2100000   18000          200            200            0.0027875075   5.6096777e-37  0              0.0083625226   4.80403e-11    0              2.3196941e-06  1.1971759e-13  0              3.0090035    
   2200000   18000          200            200            0.0027875075   8.4145164e-37  0              0.0083625225   6.1417647e-12  0              2.9656384e-07  1.1971759e-13  0              3.0090035    
   2300000   18000          200            200            0.0027875075   1.1219355e-36  0              0.0083625224   7.7244186e-13  0              3.7298453e-08  1.1971759e-13  0              3.0090035    
   2400000   18000          200            200            0.0027875075  -4.2072582e-36  0              0.0083625224   9.5123536e-14  0              4.5931751e-09  1.1971759e-13  0              3.0090035    
   2500000   18000          200            200            0.0027875074   2.243871e-36   0              0.0083625223   1.1598692e-14  0              5.600593e-10   1.1971759e-13  0              3.0090035    
   2600000   18000          200            200            0.0027875074   1.0323658e-44  0              0.0083625223   1.2995891e-15  0              6.2752507e-11  1.1971759e-13  0              3.0090035    
   2700000   18000          200            200            0.0027875074  -2.8048387e-37  0              0.0083625223   2.3449673e-16  0              1.1323008e-11  1.1971759e-13  0              3.0090035    
   2800000   18000          200            200            0.0027875074   2.5243549e-36  0              0.0083625223   2.3413037e-17  0              1.1305318e-12  1.1971759e-13  0              3.0090035    
   2900000   18000          200            200            0.0027875074  -1.4024194e-36  0              0.0083625223   1.2720945e-17  0              6.1424891e-13  1.1971759e-13  0              3.0090035    
   3000000   18000          200            200            0.0027875074   5.6096777e-37  0              0.0083625223   4.9788865e-18  0              2.4041261e-13  1.1971759e-13  0              3.0090035    
Loop time of 805.023 on 2 procs for 3000000 steps with 5001 atoms

Performance: 3219783.092 ns/day, 0.000 hours/ns, 3726.601 timesteps/s
100.0% CPU use with 2 MPI tasks x 1 OpenMP threads

MPI task timing breakdown:
Section |  min time  |  avg time  |  max time  |%varavg| %total
---------------------------------------------------------------
Pair    | 243.31     | 244.48     | 245.65     |   7.5 | 30.37
Neigh   | 21.394     | 21.399     | 21.403     |   0.1 |  2.66
Comm    | 50.607     | 51.948     | 53.288     |  18.6 |  6.45
Output  | 0.60744    | 0.60746    | 0.60748    |   0.0 |  0.08
Modify  | 426.42     | 426.77     | 427.12     |   1.7 | 53.01
Other   |            | 59.82      |            |       |  7.43

Nlocal:         2500.5 ave        2501 max        2500 min
Histogram: 1 0 0 0 0 0 0 0 0 1
Nghost:            2.5 ave           3 max           2 min
Histogram: 1 0 0 0 0 0 0 0 0 1
Neighs:         1500.5 ave        1501 max        1500 min
Histogram: 1 0 0 0 0 0 0 0 0 1

Total # of neighbors = 3001
Ave neighs/atom = 0.60007998
Neighbor list builds = 161
Dangerous builds = 0

undump D1

############ Add spring between top chain to supp particle and then equilibrium  ###########

#fix sp1 support spring couple slider1 ${K0} ${lenspr} NULL NULL 0                                 # Add spring

#dump 		D2 all custom 100000 add_${num}*.dump id type diameter mass xu yu zu

#fix add1 all print 10 "${p0} ${distance} ${slider_z}" file add_distance_${num}.txt screen no      # out put step, distance(spring length), z-position of top chain

#run 1000000

#undump D2

#unfix add1

########## Pulling the supporting particle with constant velocity #############

#fix m1 support move linear 0.1 0 0 units box                                                      # apply constant velocity to supporting particles along x-direction V=0.1m/s

#fix move1 all print 100 "${p0} ${distance} ${slider_z}" file move_distance_${num}.txt screen no

#dump 		1 all custom 50000 move_${num}_*.dump id type diameter mass xu yu zu

#run 1000000

clear
  using 1 OpenMP thread(s) per MPI task

next num

jump SELF startloop

include granular.in
### Simulation of contact between two chain

##################### Simulation setup ####################

units micro                              # units
dimension	3                            # dimension
boundary	p p p                        # boundary condition p: periodic
atom_style	sphere                       # atom style
#processors * * 1

####################### Parameter ##################################

variable ind equal ${num}
variable ind equal 3

#variable lat0 equal 1                    #
variable lat1 equal 6      # Lattice distance of bottom chain
variable lat2 equal 3                    # Lattice distance of top chain
variable d1 equal 3+(0*0.01)+(v_ind*0.01)                       # Diamter of particle at bottom chain
variable d2 equal 3                      # Diamter of particle at top chain
#variable d3 equal 1                      # Diamter of supporting particle

variable n2e1 equal 1000*v_lat2             # Half length of top chain. 1500 is number of particles
variable n1e1 equal 1.5*v_n2e1*(v_lat1/v_lat2)             # Half length of bottom chain, which is 1.5 time larger than top chain
variable n1e2 equal -v_n1e1
variable n2e2 equal -v_n2e1
#variable lenspr equal -(v_n2e1+100)           # length of the spring connecting top chain and supporting particle
#variable lenspr1 equal -v_lenspr-0.1         # Position of supporting particle upper bound
#variable lenspr2 equal -v_lenspr+0.1         # Position of supporting particle lower bound

variable den equal 2.2 #grams/cm^3      # micrometer^3=10^-12 cm^3 Density of materials

variable V1 equal (1/6)*PI*(v_d1^3)     # Volume of particle 1
variable V2 equal (1/6)*PI*(v_d2^3)     # Volume of particle 2
#variable V3 equal (1/6)*PI*(v_d3^3)     # Volume of particle 3

variable mass1 equal v_den*v_V1  # Mass of particle 1 (picograms)
variable mass2 equal v_den*v_V2  # Mass of particle 2
#variable mass3 equal v_den*v_V3  # Mass of particle 3

# E GPa to picogram/(micrometer-microsecond^2)= 10^3 Pa= 10^-6 GPa
# Force unit(picogram-micrometer/microsecond^2)=10^-9 N= 1nN
# Spring stiffness (force/distance) 10^-3 N/m

variable K0 equal (1500/50)*(10^5)             # Spring stiffness conneting top chain and sup particle
variable E equal 100*(10^6)                    # Young's Modulus using for Hertz/material model
variable PR equal 0.3                          # Poisson's ratio using for Hertz/material model
variable Fn equal -1000                        # Force apply to each particles in top chain
variable dt equal 0.00001                      # Time step units microsecond
variable lgv equal 0.5                         #damping for langevin thermostat for slider


################### Creating the model #################################
lattice sc ${lat1}                                                               # Bottom chain type1
lattice sc 6                                                               
Lattice spacing in x,y,z = 6 6 6

region box block ${n1e2} ${n1e1} -100 100 -100 100 units box
region box block -9000 ${n1e1} -100 100 -100 100 units box
region box block -9000 9000 -100 100 -100 100 units box
region substrate block ${n1e2} ${n1e1} -0.5 0.5 0 0.5 units box
region substrate block -9000 ${n1e1} -0.5 0.5 0 0.5 units box
region substrate block -9000 9000 -0.5 0.5 0 0.5 units box

create_box 2 box
Created orthogonal box = (-9000 -100 -100) to (9000 100 100)
  2 by 1 by 1 MPI processor grid
create_atoms 1 region substrate
Created 3000 atoms
  using lattice units in orthogonal box = (-9000 -100 -100) to (9000 100 100)
  create_atoms CPU = 0.002 seconds

lattice sc ${lat2}                                                             # Top chain type2
lattice sc 3                                                             
Lattice spacing in x,y,z = 3 3 3

region slider1 block ${n2e2} ${n2e1} -0.1 0.1 5.9 6.1 units box
region slider1 block -3000 ${n2e1} -0.1 0.1 5.9 6.1 units box
region slider1 block -3000 3000 -0.1 0.1 5.9 6.1 units box

create_atoms 2 region slider1
Created 2001 atoms
  using lattice units in orthogonal box = (-9000 -100 -100) to (9000 100 100)
  create_atoms CPU = 0.001 seconds

#lattice sc ${lat0}                                                             # Supporting particle type3

#region support block ${lenspr1} ${lenspr2} -0.1 0.1 7.9 8.1 units box

#create_atoms 3 region support

set type 1 diameter ${d1}                    # Set mass and diameter for each particles type
set type 1 diameter 3.03                    
Setting atom values ...
  3000 settings made for diameter
set type 1 mass ${mass1}
set type 1 mass 32.0441819206036
Setting atom values ...
  3000 settings made for mass
set type 2 diameter ${d2}
set type 2 diameter 3
Setting atom values ...
  2001 settings made for diameter
set type 2 mass ${mass2}
set type 2 mass 31.101767270539
Setting atom values ...
  2001 settings made for mass
#set type 3 diameter ${d3}
#set type 3 mass ${mass3}

group substrate region substrate           # Define gorup
3000 atoms in group substrate
group slider1 region slider1
2001 atoms in group slider1
#group support region support
#group substrate_slider union substrate slider1

########################## Potential ###################################
pair_style granular
pair_coeff 1 1 hertz/material 0.00000001 0.001 ${PR} tangential mindlin NULL 0.1 0.01 damping viscoelastic              ########### set E between each particle in same type is small to neglect their interaction
pair_coeff 1 1 hertz/material 0.00000001 0.001 0.3 tangential mindlin NULL 0.1 0.01 damping viscoelastic              
pair_coeff 2 2 hertz/material 0.00000001 0.001 ${PR} tangential mindlin NULL 0.1 0.01 damping viscoelastic
pair_coeff 2 2 hertz/material 0.00000001 0.001 0.3 tangential mindlin NULL 0.1 0.01 damping viscoelastic
#pair_coeff 3 3 hertz/material ${E} 0.001 ${PR} tangential mindlin NULL 0.1 0.01 damping viscoelastic
pair_coeff 1 2 hertz/material ${E} 0.001 ${PR} tangential mindlin NULL 0.1 0.01 damping viscoelastic
pair_coeff 1 2 hertz/material 100000000 0.001 ${PR} tangential mindlin NULL 0.1 0.01 damping viscoelastic
pair_coeff 1 2 hertz/material 100000000 0.001 0.3 tangential mindlin NULL 0.1 0.01 damping viscoelastic
#pair_coeff 1 3 hertz/material 0.00000001 0.001 ${PR} tangential mindlin NULL 0.1 0.01 damping viscoelastic
#pair_coeff 2 3 hertz/material 0.00000001 0.001 ${PR} tangential mindlin NULL 0.1 0.01 damping viscoelastic
comm_modify     vel yes
neigh_modify    delay 0 every 1 check yes

### Compute properties ###

compute 1 slider1 com                      # Compute the center of mass of top chain
#compute 2 support com                      # Compute the center of mass of supporting particle

variable p0 equal "step"

variable slider_z equal "c_1[3]"          # output the position of top chain in z-direction

#variable distance equal "c_2[1]-c_1[1]"   # Distance between COM of top chain and supporting particle

thermo 100000
thermo_style custom step lx ly lz press pxx pyy pzz ke pe temp c_1[1] c_1[2] c_1[3] #c_2[1] c_2[2] c_2[3] v_distance

############### Fix ##################


############## Equilibrium the system with apply force ########################

fix force_slider1 slider1 setforce NULL 0 NULL                                # Fix top chain not to move in y-direction

fix f_sub substrate freeze                                                    # Freeze the bottom chain

fix rigid_top slider1 rigid/nve group 1 slider1 langevin 0 0 ${lgv} 6987532   # NVE+langevin
fix rigid_top slider1 rigid/nve group 1 slider1 langevin 0 0 0.5 6987532   
  1 rigid bodies with 2001 atoms

fix add slider1 addforce 0 0 ${Fn} every 1                                    # Add force to top layer
fix add slider1 addforce 0 0 -1000 every 1                                    

timestep ${dt}
timestep 1e-05

# fix  nve_1 slider1 nve

dump 		D1 all custom 100000 Equi_${num}_*.dump id type diameter mass xu yu zu fx fy fz
dump 		D1 all custom 100000 Equi_3_*.dump id type diameter mass xu yu zu fx fy fz
dump_modify D1 format 5 %.18g
dump_modify D1 format 7 %.18g

run 3000000
Generated 0 of 1 mixed pair_coeff terms from geometric mixing rule
Neighbor list info ...
  update every 1 steps, delay 0 steps, check yes
  max neighbors/atom: 2000, page size: 100000
  master list distance cutoff = 3.13
  ghost atom cutoff = 3.13
  binsize = 1.565, bins = 11502 128 128
  1 neighbor lists, perpetual/occasional/extra = 1 0 0
  (1) pair granular, perpetual
      attributes: half, newton on, size, history
      pair build: half/size/bin/newton
      stencil: half/bin/3d
      bin: standard
Per MPI rank memory allocation (min/avg/max) = 401.4 | 401.4 | 401.4 Mbytes
   Step           Lx             Ly             Lz           Press           Pxx            Pyy            Pzz           KinEng         PotEng          Temp          c_1[1]         c_1[2]         c_1[3]    
         0   18000          200            200            0              0              0              0              0              0              0              1.1971759e-13  0              6            
    100000   18000          200            200            0.0023135447   3.5901948e-35  0              0.006940634    1210597.2      0              5.8455405e+10  1.1971759e-13  0              3.3182191    
    200000   18000          200            200            0.00091419379  2.1928352e-41  0              0.0027425814   349223.25      0              1.6862741e+10  1.1971759e-13  0              3.0608414    
    300000   18000          200            200            0.00023951692  1.795101e-35   0              0.00071855077  40978.809      0              1.97872e+09    1.1971759e-13  0              3.0490098    
    400000   18000          200            200            0.00011722962 -1.7950901e-35  0              0.00035168885  11644.584      0              5.6227529e+08  1.1971759e-13  0              3.0212436    
    500000   18000          200            200           -8.5092299e-06 -1.7950916e-35  0             -2.552769e-05   74.781472      0              3610929.7      1.1971759e-13  0              3.0168787    
    600000   18000          200            200            0.006055234   -2.6926434e-35  0              0.018165702    20.381383      0              984144.06      1.1971759e-13  0              3.0133303    
    700000   18000          200            200            0.0023457375   1.7950979e-35  0              0.0070372125   85.183487      0              4113205.7      1.1971759e-13  0              3.0141156    
    800000   18000          200            200            0.0025930492  -1.7950959e-35  0              0.0077791475   10.116654      0              488497.01      1.1971759e-13  0              3.0140528    
    900000   18000          200            200            0.0027349251  -5.3852896e-35  0              0.0082047754   1.5055399      0              72697.132      1.1971759e-13  0              3.014018     
   1000000   18000          200            200            0.0027785704  -4.4877347e-36  0              0.0083357112   0.21969059     0              10608.072      1.1971759e-13  0              3.0140074    
   1100000   18000          200            200            0.0027899821  -5.8340643e-35  0              0.0083699464   0.030638219    0              1479.4099      1.1971759e-13  0              3.0140046    
   1200000   18000          200            200            0.0027923769   8.9754853e-36  0              0.0083771307   0.0040871749   0              197.35505      1.1971759e-13  0              3.014004     
   1300000   18000          200            200            0.0027925936   8.5471479e-44  0              0.0083777808   0.00052195948  0              25.203555      1.1971759e-13  0              3.014004     
   1400000   18000          200            200            0.0027924343   4.2072582e-37  0              0.0083773029   6.3732926e-05  0              3.0774349      1.1971759e-13  0              3.014004     
   1500000   18000          200            200            0.0027922915   2.8048389e-37  0              0.0083768745   7.4143517e-06  0              0.35801251     1.1971759e-13  0              3.014004     
   1600000   18000          200            200            0.00279221     1.0371143e-44  0              0.0083766299   8.1650397e-07  0              0.039426054    1.1971759e-13  0              3.0140041    
   1700000   18000          200            200            0.0027921702  -2.8048387e-37  0              0.0083765107   8.4194041e-08  0              0.0040654289   1.1971759e-13  0              3.0140041    
   1800000   18000          200            200            0.0027921524  -5.6096774e-37  0              0.0083764573   7.9792774e-09  0              0.00038529075  1.1971759e-13  0              3.0140041    
   1900000   18000          200            200            0.0027921449  -2.8048387e-37  0              0.0083764347   6.7196053e-10  0              3.2446569e-05  1.1971759e-13  0              3.0140041    
   2000000   18000          200            200            0.0027921418  -2.243871e-36   0              0.0083764255   4.6875255e-11  0              2.2634383e-06  1.1971759e-13  0              3.0140041    
   2100000   18000          200            200            0.0027921406  -5.6096774e-37  0              0.0083764219   2.2560627e-12  0              1.0893719e-07  1.1971759e-13  0              3.0140041    
   2200000   18000          200            200            0.0027921402   5.6096777e-37  0              0.0083764205   3.0831084e-14  0              1.4887227e-09  1.1971759e-13  0              3.0140041    
   2300000   18000          200            200            0.00279214     1.6829033e-36  0              0.00837642     5.3109457e-15  0              2.5644656e-10  1.1971759e-13  0              3.0140041    
   2400000   18000          200            200            0.0027921399  -2.8048387e-37  0              0.0083764198   5.4161791e-15  0              2.615279e-10   1.1971759e-13  0              3.0140041    
   2500000   18000          200            200            0.0027921399   1.1219355e-36  0              0.0083764197   1.9218643e-15  0              9.2799949e-11  1.1971759e-13  0              3.0140041    
   2600000   18000          200            200            0.0027921399   5.6096777e-37  0              0.0083764197   5.5283897e-16  0              2.6694615e-11  1.1971759e-13  0              3.0140041    
   2700000   18000          200            200            0.0027921399   2.8048389e-37  0              0.0083764197   2.303962e-17   0              1.1125008e-12  1.1971759e-13  0              3.0140041    
   2800000   18000          200            200            0.0027921399  -2.8048387e-37  0              0.0083764197   6.4769325e-18  0              3.1274789e-13  1.1971759e-13  0              3.0140041    
   2900000   18000          200            200            0.0027921399  -8.4145162e-37  0              0.0083764197   9.2696537e-18  0              4.475984e-13   1.1971759e-13  0              3.0140041    
   3000000   18000          200            200            0.0027921399  -8.4145162e-37  0              0.0083764197   5.7406726e-18  0              2.7719654e-13  1.1971759e-13  0              3.0140041    
Loop time of 804.267 on 2 procs for 3000000 steps with 5001 atoms

Performance: 3222809.187 ns/day, 0.000 hours/ns, 3730.103 timesteps/s
100.0% CPU use with 2 MPI tasks x 1 OpenMP threads

MPI task timing breakdown:
Section |  min time  |  avg time  |  max time  |%varavg| %total
---------------------------------------------------------------
Pair    | 241.16     | 241.63     | 242.11     |   3.1 | 30.04
Neigh   | 20.767     | 20.77      | 20.773     |   0.1 |  2.58
Comm    | 49.987     | 50.862     | 51.738     |  12.3 |  6.32
Output  | 0.60962    | 0.60962    | 0.60963    |   0.0 |  0.08
Modify  | 427.46     | 428.9      | 430.34     |   7.0 | 53.33
Other   |            | 61.49      |            |       |  7.65

Nlocal:         2500.5 ave        2501 max        2500 min
Histogram: 1 0 0 0 0 0 0 0 0 1
Nghost:            2.5 ave           3 max           2 min
Histogram: 1 0 0 0 0 0 0 0 0 1
Neighs:         1500.5 ave        1501 max        1500 min
Histogram: 1 0 0 0 0 0 0 0 0 1

Total # of neighbors = 3001
Ave neighs/atom = 0.60007998
Neighbor list builds = 159
Dangerous builds = 0

undump D1

############ Add spring between top chain to supp particle and then equilibrium  ###########

#fix sp1 support spring couple slider1 ${K0} ${lenspr} NULL NULL 0                                 # Add spring

#dump 		D2 all custom 100000 add_${num}*.dump id type diameter mass xu yu zu

#fix add1 all print 10 "${p0} ${distance} ${slider_z}" file add_distance_${num}.txt screen no      # out put step, distance(spring length), z-position of top chain

#run 1000000

#undump D2

#unfix add1

########## Pulling the supporting particle with constant velocity #############

#fix m1 support move linear 0.1 0 0 units box                                                      # apply constant velocity to supporting particles along x-direction V=0.1m/s

#fix move1 all print 100 "${p0} ${distance} ${slider_z}" file move_distance_${num}.txt screen no

#dump 		1 all custom 50000 move_${num}_*.dump id type diameter mass xu yu zu

#run 1000000

clear
  using 1 OpenMP thread(s) per MPI task

next num

jump SELF startloop

include granular.in
### Simulation of contact between two chain

##################### Simulation setup ####################

units micro                              # units
dimension	3                            # dimension
boundary	p p p                        # boundary condition p: periodic
atom_style	sphere                       # atom style
#processors * * 1

####################### Parameter ##################################

variable ind equal ${num}
variable ind equal 4

#variable lat0 equal 1                    #
variable lat1 equal 6      # Lattice distance of bottom chain
variable lat2 equal 3                    # Lattice distance of top chain
variable d1 equal 3+(0*0.01)+(v_ind*0.01)                       # Diamter of particle at bottom chain
variable d2 equal 3                      # Diamter of particle at top chain
#variable d3 equal 1                      # Diamter of supporting particle

variable n2e1 equal 1000*v_lat2             # Half length of top chain. 1500 is number of particles
variable n1e1 equal 1.5*v_n2e1*(v_lat1/v_lat2)             # Half length of bottom chain, which is 1.5 time larger than top chain
variable n1e2 equal -v_n1e1
variable n2e2 equal -v_n2e1
#variable lenspr equal -(v_n2e1+100)           # length of the spring connecting top chain and supporting particle
#variable lenspr1 equal -v_lenspr-0.1         # Position of supporting particle upper bound
#variable lenspr2 equal -v_lenspr+0.1         # Position of supporting particle lower bound

variable den equal 2.2 #grams/cm^3      # micrometer^3=10^-12 cm^3 Density of materials

variable V1 equal (1/6)*PI*(v_d1^3)     # Volume of particle 1
variable V2 equal (1/6)*PI*(v_d2^3)     # Volume of particle 2
#variable V3 equal (1/6)*PI*(v_d3^3)     # Volume of particle 3

variable mass1 equal v_den*v_V1  # Mass of particle 1 (picograms)
variable mass2 equal v_den*v_V2  # Mass of particle 2
#variable mass3 equal v_den*v_V3  # Mass of particle 3

# E GPa to picogram/(micrometer-microsecond^2)= 10^3 Pa= 10^-6 GPa
# Force unit(picogram-micrometer/microsecond^2)=10^-9 N= 1nN
# Spring stiffness (force/distance) 10^-3 N/m

variable K0 equal (1500/50)*(10^5)             # Spring stiffness conneting top chain and sup particle
variable E equal 100*(10^6)                    # Young's Modulus using for Hertz/material model
variable PR equal 0.3                          # Poisson's ratio using for Hertz/material model
variable Fn equal -1000                        # Force apply to each particles in top chain
variable dt equal 0.00001                      # Time step units microsecond
variable lgv equal 0.5                         #damping for langevin thermostat for slider


################### Creating the model #################################
lattice sc ${lat1}                                                               # Bottom chain type1
lattice sc 6                                                               
Lattice spacing in x,y,z = 6 6 6

region box block ${n1e2} ${n1e1} -100 100 -100 100 units box
region box block -9000 ${n1e1} -100 100 -100 100 units box
region box block -9000 9000 -100 100 -100 100 units box
region substrate block ${n1e2} ${n1e1} -0.5 0.5 0 0.5 units box
region substrate block -9000 ${n1e1} -0.5 0.5 0 0.5 units box
region substrate block -9000 9000 -0.5 0.5 0 0.5 units box

create_box 2 box
Created orthogonal box = (-9000 -100 -100) to (9000 100 100)
  2 by 1 by 1 MPI processor grid
create_atoms 1 region substrate
Created 3000 atoms
  using lattice units in orthogonal box = (-9000 -100 -100) to (9000 100 100)
  create_atoms CPU = 0.002 seconds

lattice sc ${lat2}                                                             # Top chain type2
lattice sc 3                                                             
Lattice spacing in x,y,z = 3 3 3

region slider1 block ${n2e2} ${n2e1} -0.1 0.1 5.9 6.1 units box
region slider1 block -3000 ${n2e1} -0.1 0.1 5.9 6.1 units box
region slider1 block -3000 3000 -0.1 0.1 5.9 6.1 units box

create_atoms 2 region slider1
Created 2001 atoms
  using lattice units in orthogonal box = (-9000 -100 -100) to (9000 100 100)
  create_atoms CPU = 0.001 seconds

#lattice sc ${lat0}                                                             # Supporting particle type3

#region support block ${lenspr1} ${lenspr2} -0.1 0.1 7.9 8.1 units box

#create_atoms 3 region support

set type 1 diameter ${d1}                    # Set mass and diameter for each particles type
set type 1 diameter 3.04                    
Setting atom values ...
  3000 settings made for diameter
set type 1 mass ${mass1}
set type 1 mass 32.3624992932791
Setting atom values ...
  3000 settings made for mass
set type 2 diameter ${d2}
set type 2 diameter 3
Setting atom values ...
  2001 settings made for diameter
set type 2 mass ${mass2}
set type 2 mass 31.101767270539
Setting atom values ...
  2001 settings made for mass
#set type 3 diameter ${d3}
#set type 3 mass ${mass3}

group substrate region substrate           # Define gorup
3000 atoms in group substrate
group slider1 region slider1
2001 atoms in group slider1
#group support region support
#group substrate_slider union substrate slider1

########################## Potential ###################################
pair_style granular
pair_coeff 1 1 hertz/material 0.00000001 0.001 ${PR} tangential mindlin NULL 0.1 0.01 damping viscoelastic              ########### set E between each particle in same type is small to neglect their interaction
pair_coeff 1 1 hertz/material 0.00000001 0.001 0.3 tangential mindlin NULL 0.1 0.01 damping viscoelastic              
pair_coeff 2 2 hertz/material 0.00000001 0.001 ${PR} tangential mindlin NULL 0.1 0.01 damping viscoelastic
pair_coeff 2 2 hertz/material 0.00000001 0.001 0.3 tangential mindlin NULL 0.1 0.01 damping viscoelastic
#pair_coeff 3 3 hertz/material ${E} 0.001 ${PR} tangential mindlin NULL 0.1 0.01 damping viscoelastic
pair_coeff 1 2 hertz/material ${E} 0.001 ${PR} tangential mindlin NULL 0.1 0.01 damping viscoelastic
pair_coeff 1 2 hertz/material 100000000 0.001 ${PR} tangential mindlin NULL 0.1 0.01 damping viscoelastic
pair_coeff 1 2 hertz/material 100000000 0.001 0.3 tangential mindlin NULL 0.1 0.01 damping viscoelastic
#pair_coeff 1 3 hertz/material 0.00000001 0.001 ${PR} tangential mindlin NULL 0.1 0.01 damping viscoelastic
#pair_coeff 2 3 hertz/material 0.00000001 0.001 ${PR} tangential mindlin NULL 0.1 0.01 damping viscoelastic
comm_modify     vel yes
neigh_modify    delay 0 every 1 check yes

### Compute properties ###

compute 1 slider1 com                      # Compute the center of mass of top chain
#compute 2 support com                      # Compute the center of mass of supporting particle

variable p0 equal "step"

variable slider_z equal "c_1[3]"          # output the position of top chain in z-direction

#variable distance equal "c_2[1]-c_1[1]"   # Distance between COM of top chain and supporting particle

thermo 100000
thermo_style custom step lx ly lz press pxx pyy pzz ke pe temp c_1[1] c_1[2] c_1[3] #c_2[1] c_2[2] c_2[3] v_distance

############### Fix ##################


############## Equilibrium the system with apply force ########################

fix force_slider1 slider1 setforce NULL 0 NULL                                # Fix top chain not to move in y-direction

fix f_sub substrate freeze                                                    # Freeze the bottom chain

fix rigid_top slider1 rigid/nve group 1 slider1 langevin 0 0 ${lgv} 6987532   # NVE+langevin
fix rigid_top slider1 rigid/nve group 1 slider1 langevin 0 0 0.5 6987532   
  1 rigid bodies with 2001 atoms

fix add slider1 addforce 0 0 ${Fn} every 1                                    # Add force to top layer
fix add slider1 addforce 0 0 -1000 every 1                                    

timestep ${dt}
timestep 1e-05

# fix  nve_1 slider1 nve

dump 		D1 all custom 100000 Equi_${num}_*.dump id type diameter mass xu yu zu fx fy fz
dump 		D1 all custom 100000 Equi_4_*.dump id type diameter mass xu yu zu fx fy fz
dump_modify D1 format 5 %.18g
dump_modify D1 format 7 %.18g

run 3000000
Generated 0 of 1 mixed pair_coeff terms from geometric mixing rule
Neighbor list info ...
  update every 1 steps, delay 0 steps, check yes
  max neighbors/atom: 2000, page size: 100000
  master list distance cutoff = 3.14
  ghost atom cutoff = 3.14
  binsize = 1.57, bins = 11465 128 128
  1 neighbor lists, perpetual/occasional/extra = 1 0 0
  (1) pair granular, perpetual
      attributes: half, newton on, size, history
      pair build: half/size/bin/newton
      stencil: half/bin/3d
      bin: standard
Per MPI rank memory allocation (min/avg/max) = 400.2 | 400.2 | 400.2 Mbytes
   Step           Lx             Ly             Lz           Press           Pxx            Pyy            Pzz           KinEng         PotEng          Temp          c_1[1]         c_1[2]         c_1[3]    
         0   18000          200            200            0              0              0              0              0              0              0              1.1971759e-13  0              6            
    100000   18000          200            200            0.0023201122  -1.3463222e-35  0              0.0069603367   1215191.3      0              5.8677238e+10  1.1971759e-13  0              3.3183657    
    200000   18000          200            200            0.00092397686  8.9755156e-36  0              0.0027719306   354589.72      0              1.7121868e+10  1.1971759e-13  0              3.062339     
    300000   18000          200            200            0.00024835898  8.9754903e-35  0              0.00074507694  43545.831      0              2.1026723e+09  1.1971759e-13  0              3.0526161    
[...]
Setting atom values ...
  3000 settings made for mass
set type 2 diameter ${d2}
set type 2 diameter 3
Setting atom values ...
  2001 settings made for diameter
set type 2 mass ${mass2}
set type 2 mass 31.101767270539
Setting atom values ...
  2001 settings made for mass
#set type 3 diameter ${d3}
#set type 3 mass ${mass3}

group substrate region substrate           # Define gorup
3000 atoms in group substrate
group slider1 region slider1
2001 atoms in group slider1
#group support region support
#group substrate_slider union substrate slider1

########################## Potential ###################################
pair_style granular
pair_coeff 1 1 hertz/material 0.00000001 0.001 ${PR} tangential mindlin NULL 0.1 0.01 damping viscoelastic              ########### set E between each particle in same type is small to neglect their interaction
pair_coeff 1 1 hertz/material 0.00000001 0.001 0.3 tangential mindlin NULL 0.1 0.01 damping viscoelastic              
pair_coeff 2 2 hertz/material 0.00000001 0.001 ${PR} tangential mindlin NULL 0.1 0.01 damping viscoelastic
pair_coeff 2 2 hertz/material 0.00000001 0.001 0.3 tangential mindlin NULL 0.1 0.01 damping viscoelastic
#pair_coeff 3 3 hertz/material ${E} 0.001 ${PR} tangential mindlin NULL 0.1 0.01 damping viscoelastic
pair_coeff 1 2 hertz/material ${E} 0.001 ${PR} tangential mindlin NULL 0.1 0.01 damping viscoelastic
pair_coeff 1 2 hertz/material 100000000 0.001 ${PR} tangential mindlin NULL 0.1 0.01 damping viscoelastic
pair_coeff 1 2 hertz/material 100000000 0.001 0.3 tangential mindlin NULL 0.1 0.01 damping viscoelastic
#pair_coeff 1 3 hertz/material 0.00000001 0.001 ${PR} tangential mindlin NULL 0.1 0.01 damping viscoelastic
#pair_coeff 2 3 hertz/material 0.00000001 0.001 ${PR} tangential mindlin NULL 0.1 0.01 damping viscoelastic
comm_modify     vel yes
neigh_modify    delay 0 every 1 check yes

### Compute properties ###

compute 1 slider1 com                      # Compute the center of mass of top chain
#compute 2 support com                      # Compute the center of mass of supporting particle

variable p0 equal "step"

variable slider_z equal "c_1[3]"          # output the position of top chain in z-direction

#variable distance equal "c_2[1]-c_1[1]"   # Distance between COM of top chain and supporting particle

thermo 100000
thermo_style custom step lx ly lz press pxx pyy pzz ke pe temp c_1[1] c_1[2] c_1[3] #c_2[1] c_2[2] c_2[3] v_distance

############### Fix ##################


############## Equilibrium the system with apply force ########################

fix force_slider1 slider1 setforce NULL 0 NULL                                # Fix top chain not to move in y-direction

fix f_sub substrate freeze                                                    # Freeze the bottom chain

fix rigid_top slider1 rigid/nve group 1 slider1 langevin 0 0 ${lgv} 6987532   # NVE+langevin
fix rigid_top slider1 rigid/nve group 1 slider1 langevin 0 0 0.5 6987532   
  1 rigid bodies with 2001 atoms

fix add slider1 addforce 0 0 ${Fn} every 1                                    # Add force to top layer
fix add slider1 addforce 0 0 -1000 every 1                                    

timestep ${dt}
timestep 1e-05

# fix  nve_1 slider1 nve

dump 		D1 all custom 100000 Equi_${num}_*.dump id type diameter mass xu yu zu fx fy fz
dump 		D1 all custom 100000 Equi_73_*.dump id type diameter mass xu yu zu fx fy fz
dump_modify D1 format 5 %.18g
dump_modify D1 format 7 %.18g

run 3000000
Generated 0 of 1 mixed pair_coeff terms from geometric mixing rule
Neighbor list info ...
  update every 1 steps, delay 0 steps, check yes
  max neighbors/atom: 2000, page size: 100000
  master list distance cutoff = 3.83
  ghost atom cutoff = 3.83
  binsize = 1.915, bins = 9400 105 105
  1 neighbor lists, perpetual/occasional/extra = 1 0 0
  (1) pair granular, perpetual
      attributes: half, newton on, size, history
      pair build: half/size/bin/newton
      stencil: half/bin/3d
      bin: standard
Per MPI rank memory allocation (min/avg/max) = 230.2 | 230.2 | 230.2 Mbytes
   Step           Lx             Ly             Lz           Press           Pxx            Pyy            Pzz           KinEng         PotEng          Temp          c_1[1]         c_1[2]         c_1[3]    
         0   18000          200            200            0              0              0              0              0              0              0              1.1971759e-13  0              6            
    100000   18000          200            200            7.0247616e-06  3.5902097e-35  0              2.1074285e-05  1429362.8      0              6.9018814e+10  1.1971759e-13  0              3.3705747    
    200000   18000          200            200           -0.00024842842  5.3852989e-35  0             -0.00074528526  78984.42       0              3.813875e+09   1.1971759e-13  0              3.5018016    
    300000   18000          200            200            6.1796149e-06  1.7951035e-35  0              1.8538845e-05  31.102565      0              1501831.6      1.1971759e-13  0              3.4108135    
    400000   18000          200            200           -0.00010637077  7.1803933e-35  0             -0.00031911231  11245.019      0              5.4298175e+08  1.1971759e-13  0              3.369388     
    500000   18000          200            200            0.012193602    1.7951013e-35  0              0.036580807    407.95172      0              19698528       1.1971759e-13  0              3.362603     
    600000   18000          200            200            0.0028493217  -8.975461e-36   0              0.0085479651   639.14769      0              30862155       1.1971759e-13  0              3.3640981    
    700000   18000          200            200            0.0042365878  -1.7950959e-35  0              0.012709763    7.9023942      0              381578.33      1.1971759e-13  0              3.3638165    
    800000   18000          200            200            0.0028005745   9.635287e-42   0              0.0084017235   4.4531785      0              215028.05      1.1971759e-13  0              3.3641029    
    900000   18000          200            200            0.0031568258   8.0779365e-35  0              0.0094704773   1.3710425      0              66202.735      1.1971759e-13  0              3.3640275    
   1000000   18000          200            200            0.0031348161  -1.7950961e-35  0              0.0094044484   0.17316689     0              8361.6096      1.1971759e-13  0              3.3640324    
   1100000   18000          200            200            0.0031000946  -1.7950965e-35  0              0.0093002838   0.0081246449   0              392.31003      1.1971759e-13  0              3.3640394    
   1200000   18000          200            200            0.0031235417   6.731614e-36   0              0.0093706251   3.4263968e-06  0              0.16544844     1.1971759e-13  0              3.3640346    
   1300000   18000          200            200            0.0031143704  -2.243871e-36   0              0.0093431113   0.00016769152  0              8.0972234      1.1971759e-13  0              3.3640365    
   1400000   18000          200            200            0.00311666    -5.6096775e-37  0              0.0093499801   5.3982831e-05  0              2.6066377      1.1971759e-13  0              3.364036     
   1500000   18000          200            200            0.0031165243  -2.8048387e-37  0              0.0093495728   6.774378e-06   0              0.32711047     1.1971759e-13  0              3.3640361    
   1600000   18000          200            200            0.0031163027   2.8048389e-37  0              0.009348908    3.1248204e-07  0              0.015088639    1.1971759e-13  0              3.3640361    
   1700000   18000          200            200            0.0031164504   8.4145164e-37  0              0.0093493513   2.1759753e-10  0              1.0507006e-05  1.1971759e-13  0              3.3640361    
   1800000   18000          200            200            0.003116393   -9.8169357e-36  0              0.0093491789   6.7539152e-09  0              0.00032612239  1.1971759e-13  0              3.3640361    
   1900000   18000          200            200            0.0031164072  -2.5243549e-36  0              0.0093492216   2.1371315e-09  0              0.00010319443  1.1971759e-13  0              3.3640361    
   2000000   18000          200            200            0.0031164064   2.8048388e-36  0              0.0093492193   2.6524991e-10  0              1.2807969e-05  1.1971759e-13  0              3.3640361    
   2100000   18000          200            200            0.003116405   -8.4145162e-37  0              0.009349215    1.1993175e-11  0              5.7910748e-07  1.1971759e-13  0              3.3640361    
   2200000   18000          200            200            0.0031164059   6.1706453e-36  0              0.0093492178   1.2454514e-14  0              6.0138389e-10  1.1971759e-13  0              3.3640361    
   2300000   18000          200            200            0.0031164056   1.0301371e-44  0              0.0093492167   2.7067567e-13  0              1.3069959e-08  1.1971759e-13  0              3.3640361    
   2400000   18000          200            200            0.0031164057   7.2925808e-36  0              0.009349217    8.4537587e-14  0              4.0820175e-09  1.1971759e-13  0              3.3640361    
   2500000   18000          200            200            0.0031164057  -2.8048387e-37  0              0.009349217    1.0253905e-14  0              4.9512436e-10  1.1971759e-13  0              3.3640361    
   2600000   18000          200            200            0.0031164057   8.4145164e-37  0              0.009349217    5.0222819e-16  0              2.4250802e-11  1.1971759e-13  0              3.3640361    
   2700000   18000          200            200            0.0031164057  -2.8048387e-37  0              0.009349217    2.3756398e-17  0              1.1471114e-12  1.1971759e-13  0              3.3640361    
   2800000   18000          200            200            0.0031164057  -2.8048387e-37  0              0.009349217    2.256651e-17   0              1.089656e-12   1.1971759e-13  0              3.3640361    
   2900000   18000          200            200            0.0031164057   1.1017434e-44  0              0.009349217    8.9770214e-18  0              4.3346823e-13  1.1971759e-13  0              3.3640361    
   3000000   18000          200            200            0.0031164057   9.7701745e-45  0              0.009349217    2.4136856e-18  0              1.1654824e-13  1.1971759e-13  0              3.3640361    
Loop time of 772.895 on 2 procs for 3000000 steps with 5001 atoms

Performance: 3353627.131 ns/day, 0.000 hours/ns, 3881.513 timesteps/s
100.0% CPU use with 2 MPI tasks x 1 OpenMP threads

MPI task timing breakdown:
Section |  min time  |  avg time  |  max time  |%varavg| %total
---------------------------------------------------------------
Pair    | 240.99     | 241.39     | 241.79     |   2.6 | 31.23
Neigh   | 10.473     | 10.474     | 10.474     |   0.0 |  1.36
Comm    | 32.891     | 32.926     | 32.961     |   0.6 |  4.26
Output  | 0.6107     | 0.61072    | 0.61074    |   0.0 |  0.08
Modify  | 428.17     | 428.36     | 428.54     |   0.9 | 55.42
Other   |            | 59.14      |            |       |  7.65

Nlocal:         2500.5 ave        2501 max        2500 min
Histogram: 1 0 0 0 0 0 0 0 0 1
Nghost:            2.5 ave           3 max           2 min
Histogram: 1 0 0 0 0 0 0 0 0 1
Neighs:         1500.5 ave        1501 max        1500 min
Histogram: 1 0 0 0 0 0 0 0 0 1

Total # of neighbors = 3001
Ave neighs/atom = 0.60007998
Neighbor list builds = 144
Dangerous builds = 0

undump D1

############ Add spring between top chain to supp particle and then equilibrium  ###########

#fix sp1 support spring couple slider1 ${K0} ${lenspr} NULL NULL 0                                 # Add spring

#dump 		D2 all custom 100000 add_${num}*.dump id type diameter mass xu yu zu

#fix add1 all print 10 "${p0} ${distance} ${slider_z}" file add_distance_${num}.txt screen no      # out put step, distance(spring length), z-position of top chain

#run 1000000

#undump D2

#unfix add1

########## Pulling the supporting particle with constant velocity #############

#fix m1 support move linear 0.1 0 0 units box                                                      # apply constant velocity to supporting particles along x-direction V=0.1m/s

#fix move1 all print 100 "${p0} ${distance} ${slider_z}" file move_distance_${num}.txt screen no

#dump 		1 all custom 50000 move_${num}_*.dump id type diameter mass xu yu zu

#run 1000000

clear
  using 1 OpenMP thread(s) per MPI task

next num

jump SELF startloop

include granular.in
### Simulation of contact between two chain

##################### Simulation setup ####################

units micro                              # units
dimension	3                            # dimension
boundary	p p p                        # boundary condition p: periodic
atom_style	sphere                       # atom style
#processors * * 1

####################### Parameter ##################################

variable ind equal ${num}
variable ind equal 74

#variable lat0 equal 1                    #
variable lat1 equal 6      # Lattice distance of bottom chain
variable lat2 equal 3                    # Lattice distance of top chain
variable d1 equal 3+(0*0.01)+(v_ind*0.01)                       # Diamter of particle at bottom chain
variable d2 equal 3                      # Diamter of particle at top chain
#variable d3 equal 1                      # Diamter of supporting particle

variable n2e1 equal 1000*v_lat2             # Half length of top chain. 1500 is number of particles
variable n1e1 equal 1.5*v_n2e1*(v_lat1/v_lat2)             # Half length of bottom chain, which is 1.5 time larger than top chain
variable n1e2 equal -v_n1e1
variable n2e2 equal -v_n2e1
#variable lenspr equal -(v_n2e1+100)           # length of the spring connecting top chain and supporting particle
#variable lenspr1 equal -v_lenspr-0.1         # Position of supporting particle upper bound
#variable lenspr2 equal -v_lenspr+0.1         # Position of supporting particle lower bound

variable den equal 2.2 #grams/cm^3      # micrometer^3=10^-12 cm^3 Density of materials

variable V1 equal (1/6)*PI*(v_d1^3)     # Volume of particle 1
variable V2 equal (1/6)*PI*(v_d2^3)     # Volume of particle 2
#variable V3 equal (1/6)*PI*(v_d3^3)     # Volume of particle 3

variable mass1 equal v_den*v_V1  # Mass of particle 1 (picograms)
variable mass2 equal v_den*v_V2  # Mass of particle 2
#variable mass3 equal v_den*v_V3  # Mass of particle 3

# E GPa to picogram/(micrometer-microsecond^2)= 10^3 Pa= 10^-6 GPa
# Force unit(picogram-micrometer/microsecond^2)=10^-9 N= 1nN
# Spring stiffness (force/distance) 10^-3 N/m

variable K0 equal (1500/50)*(10^5)             # Spring stiffness conneting top chain and sup particle
variable E equal 100*(10^6)                    # Young's Modulus using for Hertz/material model
variable PR equal 0.3                          # Poisson's ratio using for Hertz/material model
variable Fn equal -1000                        # Force apply to each particles in top chain
variable dt equal 0.00001                      # Time step units microsecond
variable lgv equal 0.5                         #damping for langevin thermostat for slider


################### Creating the model #################################
lattice sc ${lat1}                                                               # Bottom chain type1
lattice sc 6                                                               
Lattice spacing in x,y,z = 6 6 6

region box block ${n1e2} ${n1e1} -100 100 -100 100 units box
region box block -9000 ${n1e1} -100 100 -100 100 units box
region box block -9000 9000 -100 100 -100 100 units box
region substrate block ${n1e2} ${n1e1} -0.5 0.5 0 0.5 units box
region substrate block -9000 ${n1e1} -0.5 0.5 0 0.5 units box
region substrate block -9000 9000 -0.5 0.5 0 0.5 units box

create_box 2 box
Created orthogonal box = (-9000 -100 -100) to (9000 100 100)
  2 by 1 by 1 MPI processor grid
create_atoms 1 region substrate
Created 3000 atoms
  using lattice units in orthogonal box = (-9000 -100 -100) to (9000 100 100)
  create_atoms CPU = 0.001 seconds

lattice sc ${lat2}                                                             # Top chain type2
lattice sc 3                                                             
Lattice spacing in x,y,z = 3 3 3

region slider1 block ${n2e2} ${n2e1} -0.1 0.1 5.9 6.1 units box
region slider1 block -3000 ${n2e1} -0.1 0.1 5.9 6.1 units box
region slider1 block -3000 3000 -0.1 0.1 5.9 6.1 units box

create_atoms 2 region slider1
Created 2001 atoms
  using lattice units in orthogonal box = (-9000 -100 -100) to (9000 100 100)
  create_atoms CPU = 0.001 seconds

#lattice sc ${lat0}                                                             # Supporting particle type3

#region support block ${lenspr1} ${lenspr2} -0.1 0.1 7.9 8.1 units box

#create_atoms 3 region support

set type 1 diameter ${d1}                    # Set mass and diameter for each particles type
set type 1 diameter 3.74                    
Setting atom values ...
  3000 settings made for diameter
set type 1 mass ${mass1}
set type 1 mass 60.2609688417216
Setting atom values ...
  3000 settings made for mass
set type 2 diameter ${d2}
set type 2 diameter 3
Setting atom values ...
  2001 settings made for diameter
set type 2 mass ${mass2}
set type 2 mass 31.101767270539
Setting atom values ...
  2001 settings made for mass
#set type 3 diameter ${d3}
#set type 3 mass ${mass3}

group substrate region substrate           # Define gorup
3000 atoms in group substrate
group slider1 region slider1
2001 atoms in group slider1
#group support region support
#group substrate_slider union substrate slider1

########################## Potential ###################################
pair_style granular
pair_coeff 1 1 hertz/material 0.00000001 0.001 ${PR} tangential mindlin NULL 0.1 0.01 damping viscoelastic              ########### set E between each particle in same type is small to neglect their interaction
pair_coeff 1 1 hertz/material 0.00000001 0.001 0.3 tangential mindlin NULL 0.1 0.01 damping viscoelastic              
pair_coeff 2 2 hertz/material 0.00000001 0.001 ${PR} tangential mindlin NULL 0.1 0.01 damping viscoelastic
pair_coeff 2 2 hertz/material 0.00000001 0.001 0.3 tangential mindlin NULL 0.1 0.01 damping viscoelastic
#pair_coeff 3 3 hertz/material ${E} 0.001 ${PR} tangential mindlin NULL 0.1 0.01 damping viscoelastic
pair_coeff 1 2 hertz/material ${E} 0.001 ${PR} tangential mindlin NULL 0.1 0.01 damping viscoelastic
pair_coeff 1 2 hertz/material 100000000 0.001 ${PR} tangential mindlin NULL 0.1 0.01 damping viscoelastic
pair_coeff 1 2 hertz/material 100000000 0.001 0.3 tangential mindlin NULL 0.1 0.01 damping viscoelastic
#pair_coeff 1 3 hertz/material 0.00000001 0.001 ${PR} tangential mindlin NULL 0.1 0.01 damping viscoelastic
#pair_coeff 2 3 hertz/material 0.00000001 0.001 ${PR} tangential mindlin NULL 0.1 0.01 damping viscoelastic
comm_modify     vel yes
neigh_modify    delay 0 every 1 check yes

### Compute properties ###

compute 1 slider1 com                      # Compute the center of mass of top chain
#compute 2 support com                      # Compute the center of mass of supporting particle

variable p0 equal "step"

variable slider_z equal "c_1[3]"          # output the position of top chain in z-direction

#variable distance equal "c_2[1]-c_1[1]"   # Distance between COM of top chain and supporting particle

thermo 100000
thermo_style custom step lx ly lz press pxx pyy pzz ke pe temp c_1[1] c_1[2] c_1[3] #c_2[1] c_2[2] c_2[3] v_distance

############### Fix ##################


############## Equilibrium the system wi