LAMMPS (23 Jun 2022 - Update 1)
  using 1 OpenMP thread(s) per MPI task
variable num index 0 1 2 3 4 5 6 7 8 9 10 11 12 13 14 15 16 17 18 19 20 21 22 23 24 25 26 27 28 29 30 31 32 33 34 35 36 37 38 39 40 41 42 43 44 45 46 47 48 49 50 51 52 53 54 55 56 57 58 59 60 61 62 63 64 65 66 67 68 69 70 71 72 73 74 75 76 77 78 79 80 81 82 83 84 85 86 87 88 89 90 91 92 93 94 95 96 97 98 99

label startloop

include granular.in
### Simulation of contact between two chain

##################### Simulation setup ####################

units micro                              # units
dimension	3                            # dimension
boundary	p p p                        # boundary condition p: periodic
atom_style	sphere                       # atom style
#processors * * 1

####################### Parameter ##################################

variable ind equal ${num}
variable ind equal 0

#variable lat0 equal 1                    #
variable lat1 equal 3*(2^(1/2))       # Lattice distance of bottom chain
variable lat2 equal 3                   # Lattice distance of top chain
variable d1 equal 3+(200*0.01)+(v_ind*0.01)                      # Diamter of particle at bottom chain
variable d2 equal 3                      # Diamter of particle at top chain
#variable d3 equal 1                      # Diamter of supporting particle

variable n2e1 equal 1000*v_lat2              # Half length of top chain. 1500 is number of particles
variable n1e1 equal 1.5*v_n2e1*(v_lat1/v_lat2)               # Half length of bottom chain, which is 1.5 time larger than top chain
variable n1e2 equal -v_n1e1
variable n2e2 equal -v_n2e1
#variable lenspr equal -(v_n2e1+100)           # length of the spring connecting top chain and supporting particle
#variable lenspr1 equal -v_lenspr-0.1         # Position of supporting particle upper bound
#variable lenspr2 equal -v_lenspr+0.1         # Position of supporting particle lower bound

variable den equal 2.2 #grams/cm^3      # micrometer^3=10^-12 cm^3 Density of materials
#variable den2 equal 1.5

variable V1 equal (1/6)*PI*(v_d1^3)     # Volume of particle 1
variable V2 equal (1/6)*PI*(v_d2^3)     # Volume of particle 2
#variable V3 equal (1/6)*PI*(v_d3^3)     # Volume of particle 3

variable mass1 equal v_den*v_V1  # Mass of particle 1 (picograms)
variable mass2 equal v_den*v_V2  # Mass of particle 2
#variable mass3 equal v_den*v_V3  # Mass of particle 3

# E GPa to picogram/(micrometer-microsecond^2)= 10^3 Pa= 10^-6 GPa
# Force unit(picogram-micrometer/microsecond^2)=10^-9 N= 1nN
# Spring stiffness (force/distance) 10^-3 N/m

variable K0 equal (1500/50)*(10^5)             # Spring stiffness conneting top chain and sup particle
variable E equal 100*(10^6)                    # Young's Modulus using for Hertz/material model
variable PR equal 0.3                          # Poisson's ratio using for Hertz/material model
variable Fn equal -1000 #-(v_ind*100)                       # Force apply to each particles in top chain
variable dt equal 0.00001                      # Time step units microsecond
variable lgv equal 0.5                         #damping for langevin thermostat for slider


################### Creating the model #################################
lattice sc ${lat1}                                                               # Bottom chain type1
lattice sc 4.24264068711929                                                               
Lattice spacing in x,y,z = 4.2426407 4.2426407 4.2426407

region box block ${n1e2} ${n1e1} -100 100 -100 100 units box
region box block -6363.96103067894 ${n1e1} -100 100 -100 100 units box
region box block -6363.96103067894 6363.96103067894 -100 100 -100 100 units box
region substrate block ${n1e2} ${n1e1} -0.5 0.5 0 0.5 units box
region substrate block -6363.96103067894 ${n1e1} -0.5 0.5 0 0.5 units box
region substrate block -6363.96103067894 6363.96103067894 -0.5 0.5 0 0.5 units box

create_box 2 box
Created orthogonal box = (-6363.961 -100 -100) to (6363.961 100 100)
  4 by 1 by 1 MPI processor grid
create_atoms 1 region substrate
Created 3000 atoms
  using lattice units in orthogonal box = (-6363.961 -100 -100) to (6363.961 100 100)
  create_atoms CPU = 0.003 seconds

lattice sc ${lat2}                                                             # Top chain type2
lattice sc 3                                                             
Lattice spacing in x,y,z = 3 3 3

region slider1 block ${n2e2} ${n2e1} -0.1 0.1 5.9 6.1 units box
region slider1 block -3000 ${n2e1} -0.1 0.1 5.9 6.1 units box
region slider1 block -3000 3000 -0.1 0.1 5.9 6.1 units box

create_atoms 2 region slider1
Created 2001 atoms
  using lattice units in orthogonal box = (-6363.961 -100 -100) to (6363.961 100 100)
  create_atoms CPU = 0.001 seconds

#lattice sc ${lat0}                                                             # Supporting particle type3

#region support block ${lenspr1} ${lenspr2} -0.1 0.1 7.9 8.1 units box

#create_atoms 3 region support

set type 1 diameter ${d1}                    # Set mass and diameter for each particles type
set type 1 diameter 5                    
Setting atom values ...
  3000 settings made for diameter
set type 1 mass ${mass1}
set type 1 mass 143.989663289532
Setting atom values ...
  3000 settings made for mass
set type 2 diameter ${d2}
set type 2 diameter 3
Setting atom values ...
  2001 settings made for diameter
set type 2 mass ${mass2}
set type 2 mass 31.101767270539
Setting atom values ...
  2001 settings made for mass
#set type 3 diameter ${d3}
#set type 3 mass ${mass3}

group substrate region substrate           # Define gorup
3000 atoms in group substrate
group slider1 region slider1
2001 atoms in group slider1
#group support region support
group substrate_slider union substrate slider1
5001 atoms in group substrate_slider

########################## Potential ###################################
pair_style granular
pair_coeff 1 1 hertz/material 0.00000001 0.001 ${PR} tangential mindlin NULL 0.1 0.01 damping viscoelastic              ########### set E between each particle in same type is small to neglect their interaction
pair_coeff 1 1 hertz/material 0.00000001 0.001 0.3 tangential mindlin NULL 0.1 0.01 damping viscoelastic              
pair_coeff 2 2 hertz/material 0.00000001 0.001 ${PR} tangential mindlin NULL 0.1 0.01 damping viscoelastic
pair_coeff 2 2 hertz/material 0.00000001 0.001 0.3 tangential mindlin NULL 0.1 0.01 damping viscoelastic
#pair_coeff 3 3 hertz/material ${E} 0.001 ${PR} tangential mindlin NULL 0.1 0.01 damping viscoelastic
pair_coeff 1 2 hertz/material ${E} 0.001 ${PR} tangential mindlin NULL 0.1 0.01 damping viscoelastic
pair_coeff 1 2 hertz/material 100000000 0.001 ${PR} tangential mindlin NULL 0.1 0.01 damping viscoelastic
pair_coeff 1 2 hertz/material 100000000 0.001 0.3 tangential mindlin NULL 0.1 0.01 damping viscoelastic
#pair_coeff 1 3 hertz/material 0.00000001 0.001 ${PR} tangential mindlin NULL 0.1 0.01 damping viscoelastic
#pair_coeff 2 3 hertz/material 0.00000001 0.001 ${PR} tangential mindlin NULL 0.1 0.01 damping viscoelastic
comm_modify     vel yes
neigh_modify    delay 0 every 1 check yes

### Compute properties ###

compute 1 slider1 com                      # Compute the center of mass of top chain
#compute 2 support com                      # Compute the center of mass of supporting particle

variable p0 equal "step"

variable slider_z equal "c_1[3]"          # output the position of top chain in z-direction

#variable distance equal "c_2[1]-c_1[1]"   # Distance between COM of top chain and supporting particle

thermo 100000
thermo_style custom step lx ly lz press pxx pyy pzz ke pe temp c_1[1] c_1[2] c_1[3] #c_2[1] c_2[2] c_2[3] v_distance

############### Fix ##################


############## Equilibrium the system with apply force ########################

fix force_slider1 slider1 setforce NULL 0 NULL                                # Fix top chain not to move in y-direction

fix f_sub substrate freeze                                                    # Freeze the bottom chain

fix rigid_top slider1 rigid/nve group 1 slider1 langevin 0 0 ${lgv} 6987532   # NVE+langevin
fix rigid_top slider1 rigid/nve group 1 slider1 langevin 0 0 0.5 6987532   
  1 rigid bodies with 2001 atoms

fix add slider1 addforce 0 0 ${Fn} every 1                                    # Add force to top layer
fix add slider1 addforce 0 0 -1000 every 1                                    

timestep ${dt}
timestep 1e-05

# fix  nve_1 slider1 nve

dump 		D1 all custom 100000 Equi_${num}_*.dump id type diameter mass xu yu zu
dump 		D1 all custom 100000 Equi_0_*.dump id type diameter mass xu yu zu
dump_modify D1 format 5 %.18g
dump_modify D1 format 7 %.18g

run 3000000
Generated 0 of 1 mixed pair_coeff terms from geometric mixing rule
Neighbor list info ...
  update every 1 steps, delay 0 steps, check yes
  max neighbors/atom: 2000, page size: 100000
  master list distance cutoff = 5.1
  ghost atom cutoff = 5.1
  binsize = 2.55, bins = 4992 79 79
  1 neighbor lists, perpetual/occasional/extra = 1 0 0
  (1) pair granular, perpetual
      attributes: half, newton on, size, history
      pair build: half/size/bin/newton
      stencil: half/bin/3d
      bin: standard
Per MPI rank memory allocation (min/avg/max) = 46.54 | 46.55 | 46.56 Mbytes
   Step           Lx             Ly             Lz           Press           Pxx            Pyy            Pzz           KinEng         PotEng          Temp          c_1[1]         c_1[2]         c_1[3]    
         0   12727.922      200            200            4.4987728e-14  1.3496319e-13  0              0              0              0              0              1.1971759e-13  0              6            
    100000   12727.922      200            200           -0.00057121588  1.3496319e-13  0             -0.0017136476   132700.02      0              6.4076091e+09  1.1971759e-13  0              4.4260061    
    200000   12727.922      200            200            0.033863998   -0.00094150377  0              0.1025335      238352.12      0              1.1509171e+10  1.1971759e-13  0              3.9893749    
    300000   12727.922      200            200            0.007107717    0.00011154581  0              0.021211605    61707.209      0              2.9796203e+09  1.1971759e-13  0              3.9952786    
    400000   12727.922      200            200            0.003732419    0.00055050126  0              0.010646756    11673.22       0              5.63658e+08    1.1971759e-13  0              3.9964276    
    500000   12727.922      200            200            0.0094072876  -0.00050749883  0              0.028729362    572.72718      0              27654946       1.1971759e-13  0              3.9942687    
    600000   12727.922      200            200            0.0037530288   0.00037414916  0              0.010884937    11.560373      0              558209.03      1.1971759e-13  0              3.9964815    
    700000   12727.922      200            200            0.005684473    0.00035330749  0              0.016700111    23.044295      0              1112726.5      1.1971759e-13  0              3.9956366    
    800000   12727.922      200            200            0.0054264103   0.00032553298  0              0.015953698    3.725986       0              179914.53      1.1971759e-13  0              3.9957399    
    900000   12727.922      200            200            0.005259179    0.00032161035  0              0.015455927    0.03704599     0              1788.8183      1.1971759e-13  0              3.9958052    
   1000000   12727.922      200            200            0.0053668901   0.00032455901  0              0.015776111    0.031959451    0              1543.2075      1.1971759e-13  0              3.9957621    
   1100000   12727.922      200            200            0.0053442938   0.00032450629  0              0.015708375    0.010117948    0              488.5595       1.1971759e-13  0              3.9957713    
   1200000   12727.922      200            200            0.0053393869   0.00032454386  0              0.015693617    0.00032385944  0              15.638013      1.1971759e-13  0              3.9957732    
   1300000   12727.922      200            200            0.0053444557   0.00032450298  0              0.015708864    3.5850544e-05  0              1.7310945      1.1971759e-13  0              3.9957712    
   1400000   12727.922      200            200            0.0053430001   0.00032451534  0              0.015704485    2.4132027e-05  0              1.1652492      1.1971759e-13  0              3.9957718    
   1500000   12727.922      200            200            0.0053429272   0.00032451583  0              0.015704266    1.5523516e-06  0              0.074957501    1.1971759e-13  0              3.9957718    
   1600000   12727.922      200            200            0.0053431529   0.00032451399  0              0.015704945    1.9418291e-08  0              0.00093763979  1.1971759e-13  0              3.9957717    
   1700000   12727.922      200            200            0.0053430685   0.00032451469  0              0.015704691    5.0759048e-08  0              0.0024509728   1.1971759e-13  0              3.9957718    
   1800000   12727.922      200            200            0.0053430734   0.00032451465  0              0.015704706    5.6682882e-09  0              0.00027370135  1.1971759e-13  0              3.9957718    
   1900000   12727.922      200            200            0.0053430827   0.00032451457  0              0.015704734    1.3894307e-12  0              6.7090635e-08  1.1971759e-13  0              3.9957718    
   2000000   12727.922      200            200            0.0053430782   0.00032451461  0              0.01570472     9.2335523e-11  0              4.458552e-06   1.1971759e-13  0              3.9957718    
   2100000   12727.922      200            200            0.0053430788   0.0003245146   0              0.015704722    1.7359674e-11  0              8.3823651e-07  1.1971759e-13  0              3.9957718    
   2200000   12727.922      200            200            0.0053430792   0.0003245146   0              0.015704723    2.018307e-13   0              9.7456822e-09  1.1971759e-13  0              3.9957718    
   2300000   12727.922      200            200            0.0053430789   0.0003245146   0              0.015704722    1.3830986e-13  0              6.678488e-09   1.1971759e-13  0              3.9957718    
   2400000   12727.922      200            200            0.005343079    0.0003245146   0              0.015704722    4.6432544e-14  0              2.2420614e-09  1.1971759e-13  0              3.9957718    
   2500000   12727.922      200            200            0.005343079    0.0003245146   0              0.015704722    1.6984694e-15  0              8.2013009e-11  1.1971759e-13  0              3.9957718    
   2600000   12727.922      200            200            0.005343079    0.0003245146   0              0.015704722    1.8026061e-16  0              8.7041399e-12  1.1971759e-13  0              3.9957718    
   2700000   12727.922      200            200            0.005343079    0.0003245146   0              0.015704722    7.9395827e-17  0              3.8337403e-12  1.1971759e-13  0              3.9957718    
   2800000   12727.922      200            200            0.005343079    0.0003245146   0              0.015704722    1.480926e-18   0              7.1508618e-14  1.1971759e-13  0              3.9957718    
   2900000   12727.922      200            200            0.005343079    0.0003245146   0              0.015704722    1.4340686e-17  0              6.9246043e-13  1.1971759e-13  0              3.9957718    
   3000000   12727.922      200            200            0.005343079    0.0003245146   0              0.015704722    5.413199e-18   0              2.6138401e-13  1.1971759e-13  0              3.9957718    
Loop time of 745.027 on 4 procs for 3000000 steps with 5001 atoms

Performance: 3479066.794 ns/day, 0.000 hours/ns, 4026.698 timesteps/s
100.0% CPU use with 4 MPI tasks x 1 OpenMP threads

MPI task timing breakdown:
Section |  min time  |  avg time  |  max time  |%varavg| %total
---------------------------------------------------------------
Pair    | 212.78     | 273.33     | 332.72     | 351.9 | 36.69
Neigh   | 1.2674     | 1.2936     | 1.3208     |   1.8 |  0.17
Comm    | 23.994     | 83.783     | 145.24     | 635.6 | 11.25
Output  | 0.39792    | 0.39864    | 0.39939    |   0.1 |  0.05
Modify  | 208.06     | 279.33     | 351.44     | 424.8 | 37.49
Other   |            | 106.9      |            |       | 14.35

Nlocal:        1250.25 ave        1752 max         749 min
Histogram: 2 0 0 0 0 0 0 0 0 2
Nghost:           3.75 ave           5 max           3 min
Histogram: 2 0 0 0 0 1 0 0 0 1
Neighs:        1463.75 ave        2179 max         749 min
Histogram: 2 0 0 0 0 0 0 0 0 2

Total # of neighbors = 5855
Ave neighs/atom = 1.1707658
Neighbor list builds = 128
Dangerous builds = 0

undump D1

############ Add spring between top chain to supp particle and then equilibrium  ###########

#fix sp1 support spring couple slider1 ${K0} ${lenspr} NULL NULL 0                                 # Add spring

#dump 		D2 all custom 100000 add_${num}*.dump id type diameter mass xu yu zu

#fix add1 all print 10 "${p0} ${distance} ${slider_z}" file add_distance_${num}.txt screen no      # out put step, distance(spring length), z-position of top chain

#run 1000000

#undump D2

#unfix add1

########## Pulling the supporting particle with constant velocity #############

#fix m1 support move linear 0.1 0 0 units box                                                      # apply constant velocity to supporting particles along x-direction V=0.1m/s

#fix move1 all print 100 "${p0} ${distance} ${slider_z}" file move_distance_${num}.txt screen no

#dump 		1 all custom 50000 move_${num}_*.dump id type diameter mass xu yu zu

#run 1000000

clear
  using 1 OpenMP thread(s) per MPI task

next num

jump SELF startloop

include granular.in
### Simulation of contact between two chain

##################### Simulation setup ####################

units micro                              # units
dimension	3                            # dimension
boundary	p p p                        # boundary condition p: periodic
atom_style	sphere                       # atom style
#processors * * 1

####################### Parameter ##################################

variable ind equal ${num}
variable ind equal 1

#variable lat0 equal 1                    #
variable lat1 equal 3*(2^(1/2))       # Lattice distance of bottom chain
variable lat2 equal 3                   # Lattice distance of top chain
variable d1 equal 3+(200*0.01)+(v_ind*0.01)                      # Diamter of particle at bottom chain
variable d2 equal 3                      # Diamter of particle at top chain
#variable d3 equal 1                      # Diamter of supporting particle

variable n2e1 equal 1000*v_lat2              # Half length of top chain. 1500 is number of particles
variable n1e1 equal 1.5*v_n2e1*(v_lat1/v_lat2)               # Half length of bottom chain, which is 1.5 time larger than top chain
variable n1e2 equal -v_n1e1
variable n2e2 equal -v_n2e1
#variable lenspr equal -(v_n2e1+100)           # length of the spring connecting top chain and supporting particle
#variable lenspr1 equal -v_lenspr-0.1         # Position of supporting particle upper bound
#variable lenspr2 equal -v_lenspr+0.1         # Position of supporting particle lower bound

variable den equal 2.2 #grams/cm^3      # micrometer^3=10^-12 cm^3 Density of materials
#variable den2 equal 1.5

variable V1 equal (1/6)*PI*(v_d1^3)     # Volume of particle 1
variable V2 equal (1/6)*PI*(v_d2^3)     # Volume of particle 2
#variable V3 equal (1/6)*PI*(v_d3^3)     # Volume of particle 3

variable mass1 equal v_den*v_V1  # Mass of particle 1 (picograms)
variable mass2 equal v_den*v_V2  # Mass of particle 2
#variable mass3 equal v_den*v_V3  # Mass of particle 3

# E GPa to picogram/(micrometer-microsecond^2)= 10^3 Pa= 10^-6 GPa
# Force unit(picogram-micrometer/microsecond^2)=10^-9 N= 1nN
# Spring stiffness (force/distance) 10^-3 N/m

variable K0 equal (1500/50)*(10^5)             # Spring stiffness conneting top chain and sup particle
variable E equal 100*(10^6)                    # Young's Modulus using for Hertz/material model
variable PR equal 0.3                          # Poisson's ratio using for Hertz/material model
variable Fn equal -1000 #-(v_ind*100)                       # Force apply to each particles in top chain
variable dt equal 0.00001                      # Time step units microsecond
variable lgv equal 0.5                         #damping for langevin thermostat for slider


################### Creating the model #################################
lattice sc ${lat1}                                                               # Bottom chain type1
lattice sc 4.24264068711929                                                               
Lattice spacing in x,y,z = 4.2426407 4.2426407 4.2426407

region box block ${n1e2} ${n1e1} -100 100 -100 100 units box
region box block -6363.96103067894 ${n1e1} -100 100 -100 100 units box
region box block -6363.96103067894 6363.96103067894 -100 100 -100 100 units box
region substrate block ${n1e2} ${n1e1} -0.5 0.5 0 0.5 units box
region substrate block -6363.96103067894 ${n1e1} -0.5 0.5 0 0.5 units box
region substrate block -6363.96103067894 6363.96103067894 -0.5 0.5 0 0.5 units box

create_box 2 box
Created orthogonal box = (-6363.961 -100 -100) to (6363.961 100 100)
  4 by 1 by 1 MPI processor grid
create_atoms 1 region substrate
Created 3000 atoms
  using lattice units in orthogonal box = (-6363.961 -100 -100) to (6363.961 100 100)
  create_atoms CPU = 0.001 seconds

lattice sc ${lat2}                                                             # Top chain type2
lattice sc 3                                                             
Lattice spacing in x,y,z = 3 3 3

region slider1 block ${n2e2} ${n2e1} -0.1 0.1 5.9 6.1 units box
region slider1 block -3000 ${n2e1} -0.1 0.1 5.9 6.1 units box
region slider1 block -3000 3000 -0.1 0.1 5.9 6.1 units box

create_atoms 2 region slider1
Created 2001 atoms
  using lattice units in orthogonal box = (-6363.961 -100 -100) to (6363.961 100 100)
  create_atoms CPU = 0.001 seconds

#lattice sc ${lat0}                                                             # Supporting particle type3

#region support block ${lenspr1} ${lenspr2} -0.1 0.1 7.9 8.1 units box

#create_atoms 3 region support

set type 1 diameter ${d1}                    # Set mass and diameter for each particles type
set type 1 diameter 5.01                    
Setting atom values ...
  3000 settings made for diameter
set type 1 mass ${mass1}
set type 1 mass 144.855330297146
Setting atom values ...
  3000 settings made for mass
set type 2 diameter ${d2}
set type 2 diameter 3
Setting atom values ...
  2001 settings made for diameter
set type 2 mass ${mass2}
set type 2 mass 31.101767270539
Setting atom values ...
  2001 settings made for mass
#set type 3 diameter ${d3}
#set type 3 mass ${mass3}

group substrate region substrate           # Define gorup
3000 atoms in group substrate
group slider1 region slider1
2001 atoms in group slider1
#group support region support
group substrate_slider union substrate slider1
5001 atoms in group substrate_slider

########################## Potential ###################################
pair_style granular
pair_coeff 1 1 hertz/material 0.00000001 0.001 ${PR} tangential mindlin NULL 0.1 0.01 damping viscoelastic              ########### set E between each particle in same type is small to neglect their interaction
pair_coeff 1 1 hertz/material 0.00000001 0.001 0.3 tangential mindlin NULL 0.1 0.01 damping viscoelastic              
pair_coeff 2 2 hertz/material 0.00000001 0.001 ${PR} tangential mindlin NULL 0.1 0.01 damping viscoelastic
pair_coeff 2 2 hertz/material 0.00000001 0.001 0.3 tangential mindlin NULL 0.1 0.01 damping viscoelastic
#pair_coeff 3 3 hertz/material ${E} 0.001 ${PR} tangential mindlin NULL 0.1 0.01 damping viscoelastic
pair_coeff 1 2 hertz/material ${E} 0.001 ${PR} tangential mindlin NULL 0.1 0.01 damping viscoelastic
pair_coeff 1 2 hertz/material 100000000 0.001 ${PR} tangential mindlin NULL 0.1 0.01 damping viscoelastic
pair_coeff 1 2 hertz/material 100000000 0.001 0.3 tangential mindlin NULL 0.1 0.01 damping viscoelastic
#pair_coeff 1 3 hertz/material 0.00000001 0.001 ${PR} tangential mindlin NULL 0.1 0.01 damping viscoelastic
#pair_coeff 2 3 hertz/material 0.00000001 0.001 ${PR} tangential mindlin NULL 0.1 0.01 damping viscoelastic
comm_modify     vel yes
neigh_modify    delay 0 every 1 check yes

### Compute properties ###

compute 1 slider1 com                      # Compute the center of mass of top chain
#compute 2 support com                      # Compute the center of mass of supporting particle

variable p0 equal "step"

variable slider_z equal "c_1[3]"          # output the position of top chain in z-direction

#variable distance equal "c_2[1]-c_1[1]"   # Distance between COM of top chain and supporting particle

thermo 100000
thermo_style custom step lx ly lz press pxx pyy pzz ke pe temp c_1[1] c_1[2] c_1[3] #c_2[1] c_2[2] c_2[3] v_distance

############### Fix ##################


############## Equilibrium the system with apply force ########################

fix force_slider1 slider1 setforce NULL 0 NULL                                # Fix top chain not to move in y-direction

fix f_sub substrate freeze                                                    # Freeze the bottom chain

fix rigid_top slider1 rigid/nve group 1 slider1 langevin 0 0 ${lgv} 6987532   # NVE+langevin
fix rigid_top slider1 rigid/nve group 1 slider1 langevin 0 0 0.5 6987532   
  1 rigid bodies with 2001 atoms

fix add slider1 addforce 0 0 ${Fn} every 1                                    # Add force to top layer
fix add slider1 addforce 0 0 -1000 every 1                                    

timestep ${dt}
timestep 1e-05

# fix  nve_1 slider1 nve

dump 		D1 all custom 100000 Equi_${num}_*.dump id type diameter mass xu yu zu
dump 		D1 all custom 100000 Equi_1_*.dump id type diameter mass xu yu zu
dump_modify D1 format 5 %.18g
dump_modify D1 format 7 %.18g

run 3000000
Generated 0 of 1 mixed pair_coeff terms from geometric mixing rule
Neighbor list info ...
  update every 1 steps, delay 0 steps, check yes
  max neighbors/atom: 2000, page size: 100000
  master list distance cutoff = 5.11
  ghost atom cutoff = 5.11
  binsize = 2.555, bins = 4982 79 79
  1 neighbor lists, perpetual/occasional/extra = 1 0 0
  (1) pair granular, perpetual
      attributes: half, newton on, size, history
      pair build: half/size/bin/newton
      stencil: half/bin/3d
      bin: standard
Per MPI rank memory allocation (min/avg/max) = 46.48 | 46.48 | 46.48 Mbytes
   Step           Lx             Ly             Lz           Press           Pxx            Pyy            Pzz           KinEng         PotEng          Temp          c_1[1]         c_1[2]         c_1[3]    
         0   12727.922      200            200            4.5927533e-14  1.377826e-13   0              0              0              0              0              1.1971759e-13  0              6            
    100000   12727.922      200            200           -0.0005649492   1.377826e-13   0             -0.0016948476   127875.1       0              6.1746308e+09  1.1971759e-13  0              4.4325554    
    200000   12727.922      200            200            0.060090119   -0.005196464    0              0.18546682     177102.35      0              8.5516385e+09  1.1971759e-13  0              3.9905627    
    300000   12727.922      200            200            0.014796849   -0.0012528324   0              0.04564338     56676.405      0              2.7367008e+09  1.1971759e-13  0              3.9979218    
    400000   12727.922      200            200            0.0016995737   0.00028761638  0              0.0048111048   10515.971      0              5.0777858e+08  1.1971759e-13  0              4.002536     
    500000   12727.922      200            200            0.0083595071  -0.00045945858  0              0.02553798     1045.7578      0              50495899       1.1971759e-13  0              3.9995963    
    600000   12727.922      200            200            0.0039105019   0.00038689705  0              0.011344609    51.602057      0              2491678.6      1.1971759e-13  0              4.0014155    
    700000   12727.922      200            200            0.0054956339   0.0003298115   0              0.01615709     29.766989      0              1437341.4      1.1971759e-13  0              4.0007122    
    800000   12727.922      200            200            0.0055011768   0.00032302862  0              0.016180502    2.489764       0              120221.79      1.1971759e-13  0              4.0007143    
    900000   12727.922      200            200            0.0052618485   0.00031603287  0              0.015469513    0.0069438483   0              335.29358      1.1971759e-13  0              4.0008083    
   1000000   12727.922      200            200            0.005361892    0.00031962872  0              0.015766047    0.06056544     0              2924.4883      1.1971759e-13  0              4.0007681    
   1100000   12727.922      200            200            0.0053538245   0.00031946406  0              0.015742009    0.0075993506   0              366.94544      1.1971759e-13  0              4.0007716    
   1200000   12727.922      200            200            0.0053437643   0.00031954694  0              0.015711746    3.2046723e-06  0              0.15474216     1.1971759e-13  0              4.0007756    
   1300000   12727.922      200            200            0.0053488557   0.00031950567  0              0.015727061    0.00012055337  0              5.821091       1.1971759e-13  0              4.0007735    
   1400000   12727.922      200            200            0.0053481734   0.00031951167  0              0.015725009    2.1370842e-05  0              1.0319215      1.1971759e-13  0              4.0007738    
   1500000   12727.922      200            200            0.0053477627   0.00031951499  0              0.015723773    1.385193e-07   0              0.0066886014   1.1971759e-13  0              4.000774     
   1600000   12727.922      200            200            0.0053480182   0.00031951287  0              0.015724542    2.2248074e-07  0              0.010742798    1.1971759e-13  0              4.0007739    
   1700000   12727.922      200            200            0.0053479713   0.00031951327  0              0.015724401    5.6745367e-08  0              0.0027400307   1.1971759e-13  0              4.0007739    
   1800000   12727.922      200            200            0.0053479557   0.0003195134   0              0.015724354    1.0113844e-09  0              4.8836132e-05  1.1971759e-13  0              4.0007739    
   1900000   12727.922      200            200            0.0053479682   0.00031951329  0              0.015724391    3.7117621e-10  0              1.7922771e-05  1.1971759e-13  0              4.0007739    
   2000000   12727.922      200            200            0.0053479653   0.00031951332  0              0.015724383    1.430316e-10   0              6.9064843e-06  1.1971759e-13  0              4.0007739    
   2100000   12727.922      200            200            0.0053479648   0.00031951332  0              0.015724381    4.791311e-12   0              2.3135526e-07  1.1971759e-13  0              4.0007739    
   2200000   12727.922      200            200            0.0053479654   0.00031951332  0              0.015724383    5.3551727e-13  0              2.5858212e-08  1.1971759e-13  0              4.0007739    
   2300000   12727.922      200            200            0.0053479652   0.00031951332  0              0.015724382    3.4316221e-13  0              1.6570075e-08  1.1971759e-13  0              4.0007739    
   2400000   12727.922      200            200            0.0053479652   0.00031951332  0              0.015724382    1.7941719e-14  0              8.6634142e-10  1.1971759e-13  0              4.0007739    
   2500000   12727.922      200            200            0.0053479652   0.00031951332  0              0.015724382    5.2849178e-16  0              2.5518977e-11  1.1971759e-13  0              4.0007739    
   2600000   12727.922      200            200            0.0053479652   0.00031951332  0              0.015724382    8.0784187e-16  0              3.9007793e-11  1.1971759e-13  0              4.0007739    
   2700000   12727.922      200            200            0.0053479652   0.00031951332  0              0.015724382    6.6693897e-21  0              3.2204096e-16  1.1971759e-13  0              4.0007739    
   2800000   12727.922      200            200            0.0053479652   0.00031951332  0              0.015724382    1.7075352e-17  0              8.2450761e-13  1.1971759e-13  0              4.0007739    
   2900000   12727.922      200            200            0.0053479652   0.00031951332  0              0.015724382    1.7099254e-17  0              8.2566179e-13  1.1971759e-13  0              4.0007739    
   3000000   12727.922      200            200            0.0053479652   0.00031951331  0              0.015724382    1.2584863e-17  0              6.0767799e-13  1.1971759e-13  0              4.0007739    
Loop time of 739.184 on 4 procs for 3000000 steps with 5001 atoms

Performance: 3506568.141 ns/day, 0.000 hours/ns, 4058.528 timesteps/s
100.0% CPU use with 4 MPI tasks x 1 OpenMP threads

MPI task timing breakdown:
Section |  min time  |  avg time  |  max time  |%varavg| %total
---------------------------------------------------------------
Pair    | 204.95     | 265.12     | 327.33     | 360.3 | 35.87
Neigh   | 1.3275     | 1.3496     | 1.3713     |   1.6 |  0.18
Comm    | 25.62      | 85.536     | 148.31     | 624.1 | 11.57
Output  | 0.40561    | 0.4063     | 0.40702    |   0.1 |  0.05
Modify  | 201.82     | 276.88     | 352.25     | 425.3 | 37.46
Other   |            | 109.9      |            |       | 14.87

Nlocal:        1250.25 ave        1752 max         749 min
Histogram: 2 0 0 0 0 0 0 0 0 2
Nghost:           3.75 ave           5 max           3 min
Histogram: 2 0 0 0 0 1 0 0 0 1
Neighs:        1468.75 ave        2189 max         749 min
Histogram: 2 0 0 0 0 0 0 0 0 2

Total # of neighbors = 5875
Ave neighs/atom = 1.174765
Neighbor list builds = 130
Dangerous builds = 0

undump D1

############ Add spring between top chain to supp particle and then equilibrium  ###########

#fix sp1 support spring couple slider1 ${K0} ${lenspr} NULL NULL 0                                 # Add spring

#dump 		D2 all custom 100000 add_${num}*.dump id type diameter mass xu yu zu

#fix add1 all print 10 "${p0} ${distance} ${slider_z}" file add_distance_${num}.txt screen no      # out put step, distance(spring length), z-position of top chain

#run 1000000

#undump D2

#unfix add1

########## Pulling the supporting particle with constant velocity #############

#fix m1 support move linear 0.1 0 0 units box                                                      # apply constant velocity to supporting particles along x-direction V=0.1m/s

#fix move1 all print 100 "${p0} ${distance} ${slider_z}" file move_distance_${num}.txt screen no

#dump 		1 all custom 50000 move_${num}_*.dump id type diameter mass xu yu zu

#run 1000000

clear
  using 1 OpenMP thread(s) per MPI task

next num

jump SELF startloop

include granular.in
### Simulation of contact between two chain

##################### Simulation setup ####################

units micro                              # units
dimension	3                            # dimension
boundary	p p p                        # boundary condition p: periodic
atom_style	sphere                       # atom style
#processors * * 1

####################### Parameter ##################################

variable ind equal ${num}
variable ind equal 2

#variable lat0 equal 1                    #
variable lat1 equal 3*(2^(1/2))       # Lattice distance of bottom chain
variable lat2 equal 3                   # Lattice distance of top chain
variable d1 equal 3+(200*0.01)+(v_ind*0.01)                      # Diamter of particle at bottom chain
variable d2 equal 3                      # Diamter of particle at top chain
#variable d3 equal 1                      # Diamter of supporting particle

variable n2e1 equal 1000*v_lat2              # Half length of top chain. 1500 is number of particles
variable n1e1 equal 1.5*v_n2e1*(v_lat1/v_lat2)               # Half length of bottom chain, which is 1.5 time larger than top chain
variable n1e2 equal -v_n1e1
variable n2e2 equal -v_n2e1
#variable lenspr equal -(v_n2e1+100)           # length of the spring connecting top chain and supporting particle
#variable lenspr1 equal -v_lenspr-0.1         # Position of supporting particle upper bound
#variable lenspr2 equal -v_lenspr+0.1         # Position of supporting particle lower bound

variable den equal 2.2 #grams/cm^3      # micrometer^3=10^-12 cm^3 Density of materials
#variable den2 equal 1.5

variable V1 equal (1/6)*PI*(v_d1^3)     # Volume of particle 1
variable V2 equal (1/6)*PI*(v_d2^3)     # Volume of particle 2
#variable V3 equal (1/6)*PI*(v_d3^3)     # Volume of particle 3

variable mass1 equal v_den*v_V1  # Mass of particle 1 (picograms)
variable mass2 equal v_den*v_V2  # Mass of particle 2
#variable mass3 equal v_den*v_V3  # Mass of particle 3

# E GPa to picogram/(micrometer-microsecond^2)= 10^3 Pa= 10^-6 GPa
# Force unit(picogram-micrometer/microsecond^2)=10^-9 N= 1nN
# Spring stiffness (force/distance) 10^-3 N/m

variable K0 equal (1500/50)*(10^5)             # Spring stiffness conneting top chain and sup particle
variable E equal 100*(10^6)                    # Young's Modulus using for Hertz/material model
variable PR equal 0.3                          # Poisson's ratio using for Hertz/material model
variable Fn equal -1000 #-(v_ind*100)                       # Force apply to each particles in top chain
variable dt equal 0.00001                      # Time step units microsecond
variable lgv equal 0.5                         #damping for langevin thermostat for slider


################### Creating the model #################################
lattice sc ${lat1}                                                               # Bottom chain type1
lattice sc 4.24264068711929                                                               
Lattice spacing in x,y,z = 4.2426407 4.2426407 4.2426407

region box block ${n1e2} ${n1e1} -100 100 -100 100 units box
region box block -6363.96103067894 ${n1e1} -100 100 -100 100 units box
region box block -6363.96103067894 6363.96103067894 -100 100 -100 100 units box
region substrate block ${n1e2} ${n1e1} -0.5 0.5 0 0.5 units box
region substrate block -6363.96103067894 ${n1e1} -0.5 0.5 0 0.5 units box
region substrate block -6363.96103067894 6363.96103067894 -0.5 0.5 0 0.5 units box

create_box 2 box
Created orthogonal box = (-6363.961 -100 -100) to (6363.961 100 100)
  4 by 1 by 1 MPI processor grid
create_atoms 1 region substrate
Created 3000 atoms
  using lattice units in orthogonal box = (-6363.961 -100 -100) to (6363.961 100 100)
  create_atoms CPU = 0.001 seconds

lattice sc ${lat2}                                                             # Top chain type2
lattice sc 3                                                             
Lattice spacing in x,y,z = 3 3 3

region slider1 block ${n2e2} ${n2e1} -0.1 0.1 5.9 6.1 units box
region slider1 block -3000 ${n2e1} -0.1 0.1 5.9 6.1 units box
region slider1 block -3000 3000 -0.1 0.1 5.9 6.1 units box

create_atoms 2 region slider1
Created 2001 atoms
  using lattice units in orthogonal box = (-6363.961 -100 -100) to (6363.961 100 100)
  create_atoms CPU = 0.001 seconds

#lattice sc ${lat0}                                                             # Supporting particle type3

#region support block ${lenspr1} ${lenspr2} -0.1 0.1 7.9 8.1 units box

#create_atoms 3 region support

set type 1 diameter ${d1}                    # Set mass and diameter for each particles type
set type 1 diameter 5.02                    
Setting atom values ...
  3000 settings made for diameter
set type 1 mass ${mass1}
set type 1 mass 145.724459968183
Setting atom values ...
  3000 settings made for mass
set type 2 diameter ${d2}
set type 2 diameter 3
Setting atom values ...
  2001 settings made for diameter
set type 2 mass ${mass2}
set type 2 mass 31.101767270539
Setting atom values ...
  2001 settings made for mass
#set type 3 diameter ${d3}
#set type 3 mass ${mass3}

group substrate region substrate           # Define gorup
3000 atoms in group substrate
group slider1 region slider1
2001 atoms in group slider1
#group support region support
group substrate_slider union substrate slider1
5001 atoms in group substrate_slider

########################## Potential ###################################
pair_style granular
pair_coeff 1 1 hertz/material 0.00000001 0.001 ${PR} tangential mindlin NULL 0.1 0.01 damping viscoelastic              ########### set E between each particle in same type is small to neglect their interaction
pair_coeff 1 1 hertz/material 0.00000001 0.001 0.3 tangential mindlin NULL 0.1 0.01 damping viscoelastic              
pair_coeff 2 2 hertz/material 0.00000001 0.001 ${PR} tangential mindlin NULL 0.1 0.01 damping viscoelastic
pair_coeff 2 2 hertz/material 0.00000001 0.001 0.3 tangential mindlin NULL 0.1 0.01 damping viscoelastic
#pair_coeff 3 3 hertz/material ${E} 0.001 ${PR} tangential mindlin NULL 0.1 0.01 damping viscoelastic
pair_coeff 1 2 hertz/material ${E} 0.001 ${PR} tangential mindlin NULL 0.1 0.01 damping viscoelastic
pair_coeff 1 2 hertz/material 100000000 0.001 ${PR} tangential mindlin NULL 0.1 0.01 damping viscoelastic
pair_coeff 1 2 hertz/material 100000000 0.001 0.3 tangential mindlin NULL 0.1 0.01 damping viscoelastic
#pair_coeff 1 3 hertz/material 0.00000001 0.001 ${PR} tangential mindlin NULL 0.1 0.01 damping viscoelastic
#pair_coeff 2 3 hertz/material 0.00000001 0.001 ${PR} tangential mindlin NULL 0.1 0.01 damping viscoelastic
comm_modify     vel yes
neigh_modify    delay 0 every 1 check yes

### Compute properties ###

compute 1 slider1 com                      # Compute the center of mass of top chain
#compute 2 support com                      # Compute the center of mass of supporting particle

variable p0 equal "step"

variable slider_z equal "c_1[3]"          # output the position of top chain in z-direction

#variable distance equal "c_2[1]-c_1[1]"   # Distance between COM of top chain and supporting particle

thermo 100000
thermo_style custom step lx ly lz press pxx pyy pzz ke pe temp c_1[1] c_1[2] c_1[3] #c_2[1] c_2[2] c_2[3] v_distance

############### Fix ##################


############## Equilibrium the system with apply force ########################

fix force_slider1 slider1 setforce NULL 0 NULL                                # Fix top chain not to move in y-direction

fix f_sub substrate freeze                                                    # Freeze the bottom chain

fix rigid_top slider1 rigid/nve group 1 slider1 langevin 0 0 ${lgv} 6987532   # NVE+langevin
fix rigid_top slider1 rigid/nve group 1 slider1 langevin 0 0 0.5 6987532   
  1 rigid bodies with 2001 atoms

fix add slider1 addforce 0 0 ${Fn} every 1                                    # Add force to top layer
fix add slider1 addforce 0 0 -1000 every 1                                    

timestep ${dt}
timestep 1e-05

# fix  nve_1 slider1 nve

dump 		D1 all custom 100000 Equi_${num}_*.dump id type diameter mass xu yu zu
dump 		D1 all custom 100000 Equi_2_*.dump id type diameter mass xu yu zu
dump_modify D1 format 5 %.18g
dump_modify D1 format 7 %.18g

run 3000000
Generated 0 of 1 mixed pair_coeff terms from geometric mixing rule
Neighbor list info ...
  update every 1 steps, delay 0 steps, check yes
  max neighbors/atom: 2000, page size: 100000
  master list distance cutoff = 5.12
  ghost atom cutoff = 5.12
  binsize = 2.56, bins = 4972 79 79
  1 neighbor lists, perpetual/occasional/extra = 1 0 0
  (1) pair granular, perpetual
      attributes: half, newton on, size, history
      pair build: half/size/bin/newton
      stencil: half/bin/3d
      bin: standard
Per MPI rank memory allocation (min/avg/max) = 46.4 | 46.41 | 46.43 Mbytes
   Step           Lx             Ly             Lz           Press           Pxx            Pyy            Pzz           KinEng         PotEng          Temp          c_1[1]         c_1[2]         c_1[3]    
         0   12727.922      200            200            4.6874935e-14  1.406248e-13   0              0              0              0              0              1.1971759e-13  0              6            
    100000   12727.922      200            200           -0.00055852306  1.406248e-13   0             -0.0016755692   123142.05      0              5.9460889e+09  1.1971759e-13  0              4.4390671    
    200000   12727.922      200            200            0.087586957   -0.0074536866   0              0.27021456     94583.391      0              4.5670934e+09  1.1971759e-13  0              3.9924979    
    300000   12727.922      200            200            0.025384319   -0.00069829236  0              0.076851251    44247.529      0              2.1365548e+09  1.1971759e-13  0              4.0007411    
    400000   12727.922      200            200            0.00048013214  0.0001290642   0              0.0013113322   8824.465       0              4.2610183e+08  1.1971759e-13  0              4.0085712    
    500000   12727.922      200            200            0.0072443499  -6.3160432e-05  0              0.02179621     1457.0506      0              70355761       1.1971759e-13  0              4.0050069    
    600000   12727.922      200            200            0.0041800465   0.00043068895  0              0.012109451    109.92014      0              5307650        1.1971759e-13  0              4.0063036    
    700000   12727.922      200            200            0.0053012691   0.00032205838  0              0.015581749    31.164773      0              1504835.3      1.1971759e-13  0              4.0057936    
    800000   12727.922      200            200            0.0055617796   0.00033000075  0              0.016355338    1.0881778      0              52544.212      1.1971759e-13  0              4.0056957    
    900000   12727.922      200            200            0.0052771433   0.00031400658  0              0.015517423    0.12046624     0              5816.8838      1.1971759e-13  0              4.0058067    
   1000000   12727.922      200            200            0.005355683    0.0003175968   0              0.015749452    0.075261783    0              3634.1221      1.1971759e-13  0              4.0057751    
   1100000   12727.922      200            200            0.0053632493   0.00031731863  0              0.015772429    0.0033645264   0              162.46094      1.1971759e-13  0              4.0057722    
   1200000   12727.922      200            200            0.0053499721   0.00031742628  0              0.01573249     0.00021640732  0              10.449535      1.1971759e-13  0              4.0057776    
   1300000   12727.922      200            200            0.0053540103   0.00031739525  0              0.015744636    0.00017916754  0              8.6513593      1.1971759e-13  0              4.0057759    
   1400000   12727.922      200            200            0.0053542533   0.00031739363  0              0.015745366    9.7684816e-06  0              0.47168502     1.1971759e-13  0              4.0057758    
   1500000   12727.922      200            200            0.005353619    0.00031739855  0              0.015743458    3.6626015e-07  0              0.017685392    1.1971759e-13  0              4.0057761    
   1600000   12727.922      200            200            0.005353828    0.0003173969   0              0.015744087    4.2236147e-07  0              0.020394324    1.1971759e-13  0              4.005776     
   1700000   12727.922      200            200            0.0053538335   0.00031739687  0              0.015744104    2.7685204e-08  0              0.0013368194   1.1971759e-13  0              4.005776     
   1800000   12727.922      200            200            0.0053538034   0.0003173971   0              0.015744013    5.6671685e-10  0              2.7364728e-05  1.1971759e-13  0              4.005776     
   1900000   12727.922      200            200            0.0053538141   0.00031739702  0              0.015744045    9.8551984e-10  0              4.7587226e-05  1.1971759e-13  0              4.005776     
   2000000   12727.922      200            200            0.0053538141   0.00031739702  0              0.015744045    7.6848292e-11  0              3.710729e-06   1.1971759e-13  0              4.005776     
   2100000   12727.922      200            200            0.0053538126   0.00031739703  0              0.015744041    7.6193909e-13  0              3.6791312e-08  1.1971759e-13  0              4.005776     
   2200000   12727.922      200            200            0.0053538132   0.00031739703  0              0.015744043    2.2755281e-12  0              1.0987711e-07  1.1971759e-13  0              4.005776     
   2300000   12727.922      200            200            0.0053538132   0.00031739703  0              0.015744043    2.0751561e-13  0              1.0020186e-08  1.1971759e-13  0              4.005776     
   2400000   12727.922      200            200            0.0053538131   0.00031739703  0              0.015744042    7.9452877e-16  0              3.8364951e-11  1.1971759e-13  0              4.005776     
   2500000   12727.922      200            200            0.0053538131   0.00031739703  0              0.015744042    5.1292677e-15  0              2.4767398e-10  1.1971759e-13  0              4.005776     
   2600000   12727.922      200            200            0.0053538131   0.00031739703  0              0.015744042    4.606498e-16   0              2.224313e-11   1.1971759e-13  0              4.005776     
   2700000   12727.922      200            200            0.0053538131   0.00031739703  0              0.015744042    5.1948855e-17  0              2.5084243e-12  1.1971759e-13  0              4.005776     
   2800000   12727.922      200            200            0.0053538131   0.00031739702  0              0.015744042    3.2149876e-18  0              1.5524024e-13  1.1971759e-13  0              4.005776     
   2900000   12727.922      200            200            0.0053538131   0.00031739703  0              0.015744042    1.033165e-21   0              4.988784e-17   1.1971759e-13  0              4.005776     
   3000000   12727.922      200            200            0.0053538131   0.00031739701  0              0.015744042    8.1757358e-18  0              3.9477702e-13  1.1971759e-13  0              4.005776     
Loop time of 726.212 on 4 procs for 3000000 steps with 5001 atoms

Performance: 3569207.570 ns/day, 0.000 hours/ns, 4131.027 timesteps/s
100.0% CPU use with 4 MPI tasks x 1 OpenMP threads

MPI task timing breakdown:
Section |  min time  |  avg time  |  max time  |%varavg| %total
---------------------------------------------------------------
Pair    | 198.33     | 260.44     | 320.45     | 371.9 | 35.86
Neigh   | 1.3191     | 1.341      | 1.363      |   1.6 |  0.18
Comm    | 24.341     | 84.939     | 146.68     | 652.8 | 11.70
Output  | 0.40338    | 0.40413    | 0.40487    |   0.1 |  0.06
Modify  | 201.36     | 272.71     | 343.86     | 425.7 | 37.55
Other   |            | 106.4      |            |       | 14.65

Nlocal:        1250.25 ave        1751 max         749 min
Histogram: 2 0 0 0 0 0 0 0 0 2
Nghost:           3.75 ave           4 max           3 min
Histogram: 1 0 0 0 0 0 0 0 0 3
Neighs:        1474.25 ave        2199 max         749 min
Histogram: 2 0 0 0 0 0 0 0 0 2

Total # of neighbors = 5897
Ave neighs/atom = 1.1791642
Neighbor list builds = 130
Dangerous builds = 0

undump D1

############ Add spring between top chain to supp particle and then equilibrium  ###########

#fix sp1 support spring couple slider1 ${K0} ${lenspr} NULL NULL 0                                 # Add spring

#dump 		D2 all custom 100000 add_${num}*.dump id type diameter mass xu yu zu

#fix add1 all print 10 "${p0} ${distance} ${slider_z}" file add_distance_${num}.txt screen no      # out put step, distance(spring length), z-position of top chain

#run 1000000

#undump D2

#unfix add1

########## Pulling the supporting particle with constant velocity #############

#fix m1 support move linear 0.1 0 0 units box                                                      # apply constant velocity to supporting particles along x-direction V=0.1m/s

#fix move1 all print 100 "${p0} ${distance} ${slider_z}" file move_distance_${num}.txt screen no

#dump 		1 all custom 50000 move_${num}_*.dump id type diameter mass xu yu zu

#run 1000000

clear
  using 1 OpenMP thread(s) per MPI task

next num

jump SELF startloop

include granular.in
### Simulation of contact between two chain

##################### Simulation setup ####################

units micro                              # units
dimension	3                            # dimension
boundary	p p p                        # boundary condition p: periodic
atom_style	sphere                       # atom style
#processors * * 1

####################### Parameter ##################################

variable ind equal ${num}
variable ind equal 3

#variable lat0 equal 1                    #
variable lat1 equal 3*(2^(1/2))       # Lattice distance of bottom chain
variable lat2 equal 3                   # Lattice distance of top chain
variable d1 equal 3+(200*0.01)+(v_ind*0.01)                      # Diamter of particle at bottom chain
variable d2 equal 3                      # Diamter of particle at top chain
#variable d3 equal 1                      # Diamter of supporting particle

variable n2e1 equal 1000*v_lat2              # Half length of top chain. 1500 is number of particles
variable n1e1 equal 1.5*v_n2e1*(v_lat1/v_lat2)               # Half length of bottom chain, which is 1.5 time larger than top chain
variable n1e2 equal -v_n1e1
variable n2e2 equal -v_n2e1
#variable lenspr equal -(v_n2e1+100)           # length of the spring connecting top chain and supporting particle
#variable lenspr1 equal -v_lenspr-0.1         # Position of supporting particle upper bound
#variable lenspr2 equal -v_lenspr+0.1         # Position of supporting particle lower bound

variable den equal 2.2 #grams/cm^3      # micrometer^3=10^-12 cm^3 Density of materials
#variable den2 equal 1.5

variable V1 equal (1/6)*PI*(v_d1^3)     # Volume of particle 1
variable V2 equal (1/6)*PI*(v_d2^3)     # Volume of particle 2
#variable V3 equal (1/6)*PI*(v_d3^3)     # Volume of particle 3

variable mass1 equal v_den*v_V1  # Mass of particle 1 (picograms)
variable mass2 equal v_den*v_V2  # Mass of particle 2
#variable mass3 equal v_den*v_V3  # Mass of particle 3

# E GPa to picogram/(micrometer-microsecond^2)= 10^3 Pa= 10^-6 GPa
# Force unit(picogram-micrometer/microsecond^2)=10^-9 N= 1nN
# Spring stiffness (force/distance) 10^-3 N/m

variable K0 equal (1500/50)*(10^5)             # Spring stiffness conneting top chain and sup particle
variable E equal 100*(10^6)                    # Young's Modulus using for Hertz/material model
variable PR equal 0.3                          # Poisson's ratio using for Hertz/material model
variable Fn equal -1000 #-(v_ind*100)                       # Force apply to each particles in top chain
variable dt equal 0.00001                      # Time step units microsecond
variable lgv equal 0.5                         #damping for langevin thermostat for slider


################### Creating the model #################################
lattice sc ${lat1}                                                               # Bottom chain type1
lattice sc 4.24264068711929                                                               
Lattice spacing in x,y,z = 4.2426407 4.2426407 4.2426407

region box block ${n1e2} ${n1e1} -100 100 -100 100 units box
region box block -6363.96103067894 ${n1e1} -100 100 -100 100 units box
region box block -6363.96103067894 6363.96103067894 -100 100 -100 100 units box
region substrate block ${n1e2} ${n1e1} -0.5 0.5 0 0.5 units box
region substrate block -6363.96103067894 ${n1e1} -0.5 0.5 0 0.5 units box
region substrate block -6363.96103067894 6363.96103067894 -0.5 0.5 0 0.5 units box

create_box 2 box
Created orthogonal box = (-6363.961 -100 -100) to (6363.961 100 100)
  4 by 1 by 1 MPI processor grid
create_atoms 1 region substrate
Created 3000 atoms
  using lattice units in orthogonal box = (-6363.961 -100 -100) to (6363.961 100 100)
  create_atoms CPU = 0.001 seconds

lattice sc ${lat2}                                                             # Top chain type2
lattice sc 3                                                             
Lattice spacing in x,y,z = 3 3 3

region slider1 block ${n2e2} ${n2e1} -0.1 0.1 5.9 6.1 units box
region slider1 block -3000 ${n2e1} -0.1 0.1 5.9 6.1 units box
region slider1 block -3000 3000 -0.1 0.1 5.9 6.1 units box

create_atoms 2 region slider1
Created 2001 atoms
  using lattice units in orthogonal box = (-6363.961 -100 -100) to (6363.961 100 100)
  create_atoms CPU = 0.001 seconds

#lattice sc ${lat0}                                                             # Supporting particle type3

#region support block ${lenspr1} ${lenspr2} -0.1 0.1 7.9 8.1 units box

#create_atoms 3 region support

set type 1 diameter ${d1}                    # Set mass and diameter for each particles type
set type 1 diameter 5.03                    
Setting atom values ...
  3000 settings made for diameter
set type 1 mass ${mass1}
set type 1 mass 146.597059214146
Setting atom values ...
  3000 settings made for mass
set type 2 diameter ${d2}
set type 2 diameter 3
Setting atom values ...
  2001 settings made for diameter
set type 2 mass ${mass2}
set type 2 mass 31.101767270539
Setting atom values ...
  2001 settings made for mass
#set type 3 diameter ${d3}
#set type 3 mass ${mass3}

group substrate region substrate           # Define gorup
3000 atoms in group substrate
group slider1 region slider1
2001 atoms in group slider1
#group support region support
group substrate_slider union substrate slider1
5001 atoms in group substrate_slider

########################## Potential ###################################
pair_style granular
pair_coeff 1 1 hertz/material 0.00000001 0.001 ${PR} tangential mindlin NULL 0.1 0.01 damping viscoelastic              ########### set E between each particle in same type is small to neglect their interaction
pair_coeff 1 1 hertz/material 0.00000001 0.001 0.3 tangential mindlin NULL 0.1 0.01 damping viscoelastic              
pair_coeff 2 2 hertz/material 0.00000001 0.001 ${PR} tangential mindlin NULL 0.1 0.01 damping viscoelastic
pair_coeff 2 2 hertz/material 0.00000001 0.001 0.3 tangential mindlin NULL 0.1 0.01 damping viscoelastic
#pair_coeff 3 3 hertz/material ${E} 0.001 ${PR} tangential mindlin NULL 0.1 0.01 damping viscoelastic
pair_coeff 1 2 hertz/material ${E} 0.001 ${PR} tangential mindlin NULL 0.1 0.01 damping viscoelastic
pair_coeff 1 2 hertz/material 100000000 0.001 ${PR} tangential mindlin NULL 0.1 0.01 damping viscoelastic
pair_coeff 1 2 hertz/material 100000000 0.001 0.3 tangential mindlin NULL 0.1 0.01 damping viscoelastic
#pair_coeff 1 3 hertz/material 0.00000001 0.001 ${PR} tangential mindlin NULL 0.1 0.01 damping viscoelastic
#pair_coeff 2 3 hertz/material 0.00000001 0.001 ${PR} tangential mindlin NULL 0.1 0.01 damping viscoelastic
comm_modify     vel yes
neigh_modify    delay 0 every 1 check yes

### Compute properties ###

compute 1 slider1 com                      # Compute the center of mass of top chain
#compute 2 support com                      # Compute the center of mass of supporting particle

variable p0 equal "step"

variable slider_z equal "c_1[3]"          # output the position of top chain in z-direction

#variable distance equal "c_2[1]-c_1[1]"   # Distance between COM of top chain and supporting particle

thermo 100000
thermo_style custom step lx ly lz press pxx pyy pzz ke pe temp c_1[1] c_1[2] c_1[3] #c_2[1] c_2[2] c_2[3] v_distance

############### Fix ##################


############## Equilibrium the system with apply force ########################

fix force_slider1 slider1 setforce NULL 0 NULL                                # Fix top chain not to move in y-direction

fix f_sub substrate freeze                                                    # Freeze the bottom chain

fix rigid_top slider1 rigid/nve group 1 slider1 langevin 0 0 ${lgv} 6987532   # NVE+langevin
fix rigid_top slider1 rigid/nve group 1 slider1 langevin 0 0 0.5 6987532   
  1 rigid bodies with 2001 atoms

fix add slider1 addforce 0 0 ${Fn} every 1                                    # Add force to top layer
fix add slider1 addforce 0 0 -1000 every 1                                    

timestep ${dt}
timestep 1e-05

# fix  nve_1 slider1 nve

dump 		D1 all custom 100000 Equi_${num}_*.dump id type diameter mass xu yu zu
dump 		D1 all custom 100000 Equi_3_*.dump id type diameter mass xu yu zu
dump_modify D1 format 5 %.18g
dump_modify D1 format 7 %.18g

run 3000000
Generated 0 of 1 mixed pair_coeff terms from geometric mixing rule
Neighbor list info ...
  update every 1 steps, delay 0 steps, check yes
  max neighbors/atom: 2000, page size: 100000
  master list distance cutoff = 5.13
  ghost atom cutoff = 5.13
  binsize = 2.565, bins = 4963 78 78
  1 neighbor lists, perpetual/occasional/extra = 1 0 0
  (1) pair granular, perpetual
      attributes: half, newton on, size, history
      pair build: half/size/bin/newton
      stencil: half/bin/3d
      bin: standard
Per MPI rank memory allocation (min/avg/max) = 45.55 | 45.57 | 45.58 Mbytes
   Step           Lx             Ly             Lz           Press           Pxx            Pyy            Pzz           KinEng         PotEng          Temp          c_1[1]         c_1[2]         c_1[3]    
         0   12727.922      200            200            4.7829909e-14  1.4348973e-13  0              0              0              0              0              1.1971759e-13  0              6            
    100000   12727.922      200            200           -0.00055193802  1.4348973e-13  0             -0.0016558141   118500.75      0              5.7219769e+09  1.1971759e-13  0              4.4455411    
    200000   12727.922      200            200            0.10804329    -0.0082253743   0              0.33235526     23614.185      0              1.1402445e+09  1.1971759e-13  0              3.9955544    
    300000   12727.922      200            200            0.036022938   -0.0011269827   0              0.1091958      26442.408      0              1.2768092e+09  1.1971759e-13  0              4.0039213    
    400000   12727.922      200            200           -6.6513785e-05  2.8713145e-05  0             -0.0002282545   6998.017       0              3.3790919e+08  1.1971759e-13  0              4.014508     
    500000   12727.922      200            200            0.0061101703   0.00039878151  0              0.017931729    1695.9954      0              81893550       1.1971759e-13  0              4.0104693    
    600000   12727.922      200            200            0.0045308164   0.00043709219  0              0.013155357    170.59555      0              8237448.6      1.1971759e-13  0              4.0111533    
    700000   12727.922      200            200            0.0051296578   0.00035687319  0              0.0150321      26.802749      0              1294208.8      1.1971759e-13  0              4.0108731    
    800000   12727.922      200            200            0.0055961435   0.00032928023  0              0.01645915     0.15033663     0              7259.218       1.1971759e-13  0              4.0106864    
    900000   12727.922      200            200            0.0053026117   0.00031186363  0              0.015595971    0.31726698     0              15319.687      1.1971759e-13  0              4.010801     
   1000000   12727.922      200            200            0.0053490773   0.0003151638   0              0.015732068    0.067197119    0              3244.7084      1.1971759e-13  0              4.0107821    
   1100000   12727.922      200            200            0.0053708342   0.00031481634  0              0.015797686    0.00034009041  0              16.421749      1.1971759e-13  0              4.0107736    
   1200000   12727.922      200            200            0.0053568482   0.00031492787  0              0.015755617    0.00078993909  0              38.143332      1.1971759e-13  0              4.0107792    
   1300000   12727.922      200            200            0.0053589958   0.00031491173  0              0.015762076    0.00016039613  0              7.744955       1.1971759e-13  0              4.0107783    
   1400000   12727.922      200            200            0.0053600936   0.0003149038   0              0.015765377    6.7377236e-07  0              0.032534056    1.1971759e-13  0              4.0107779    
   1500000   12727.922      200            200            0.0053594075   0.00031490892  0              0.015763313    1.9645229e-06  0              0.094859781    1.1971759e-13  0              4.0107782    
   1600000   12727.922      200            200            0.0053595089   0.00031490813  0              0.015763619    3.8232208e-07  0              0.018460965    1.1971759e-13  0              4.0107781    
   1700000   12727.922      200            200            0.0053595642   0.00031490773  0              0.015763785    1.3059081e-09  0              6.305763e-05   1.1971759e-13  0              4.0107781    
   1800000   12727.922      200            200            0.0053595306   0.00031490798  0              0.015763684    4.8800012e-09  0              0.00023563779  1.1971759e-13  0              4.0107781    
   1900000   12727.922      200            200            0.0053595353   0.00031490795  0              0.015763698    9.1067655e-10  0              4.3973311e-05  1.1971759e-13  0              4.0107781    
   2000000   12727.922      200            200            0.0053595381   0.00031490793  0              0.015763706    2.4628946e-12  0              1.1892437e-07  1.1971759e-13  0              4.0107781    
   2100000   12727.922      200            200            0.0053595365   0.00031490794  0              0.015763701    1.2108471e-11  0              5.8467474e-07  1.1971759e-13  0              4.0107781    
   2200000   12727.922      200            200            0.0053595367   0.00031490794  0              0.015763702    2.1700335e-12  0              1.0478315e-07  1.1971759e-13  0              4.0107781    
   2300000   12727.922      200            200            0.0053595368   0.00031490794  0              0.015763703    4.4778726e-15  0              2.1622044e-10  1.1971759e-13  0              4.0107781    
   2400000   12727.922      200            200            0.0053595368   0.00031490794  0              0.015763702    2.9736626e-14  0              1.4358752e-09  1.1971759e-13  0              4.0107781    
   2500000   12727.922      200            200            0.0053595368   0.00031490794  0              0.015763702    5.1644359e-15  0              2.4937213e-10  1.1971759e-13  0              4.0107781    
   2600000   12727.922      200            200            0.0053595368   0.00031490794  0              0.015763702    2.9018183e-19  0              1.4011842e-14  1.1971759e-13  0              4.0107781    
   2700000   12727.922      200            200            0.0053595368   0.00031490794  0              0.015763702    1.0107956e-16  0              4.88077e-12    1.1971759e-13  0              4.0107781    
   2800000   12727.922      200            200            0.0053595368   0.00031490794  0              0.015763702    4.2870116e-18  0              2.0700445e-13  1.1971759e-13  0              4.0107781    
   2900000   12727.922      200            200            0.0053595368   0.00031490794  0              0.015763702    9.1914045e-18  0              4.4382003e-13  1.1971759e-13  0              4.0107781    
   3000000   12727.922      200            200            0.0053595368   0.00031490792  0              0.015763702    4.8758499e-18  0              2.3543734e-13  1.1971759e-13  0              4.0107781    
Loop time of 718.275 on 4 procs for 3000000 steps with 5001 atoms

Performance: 3608647.739 ns/day, 0.000 hours/ns, 4176.676 timesteps/s
100.0% CPU use with 4 MPI tasks x 1 OpenMP threads

MPI task timing breakdown:
Section |  min time  |  avg time  |  max time  |%varavg| %total
---------------------------------------------------------------
Pair    | 198.27     | 253.27     | 308.35     | 345.0 | 35.26
Neigh   | 1.2514     | 1.2731     | 1.2945     |   1.7 |  0.18
Comm    | 26.155     | 81.246     | 135.48     | 601.3 | 11.31
Output  | 0.40361    | 0.4043     | 0.40501    |   0.1 |  0.06
Modify  | 205.46     | 275.52     | 346.85     | 416.8 | 38.36
Other   |            | 106.6      |            |       | 14.84

Nlocal:        1250.25 ave        1752 max         749 min
Histogram: 2 0 0 0 0 0 0 0 0 2
Nghost:           3.75 ave           5 max           3 min
Histogram: 2 0 0 0 0 1 0 0 0 1
Neighs:        1423.75 ave        2099 max         749 min
Histogram: 2 0 0 0 0 0 0 0 0 2

Total # of neighbors = 5695
Ave neighs/atom = 1.1387722
Neighbor list builds = 129
Dangerous builds = 0

undump D1

############ Add spring between top chain to supp particle and then equilibrium  ###########

#fix sp1 support spring couple slider1 ${K0} ${lenspr} NULL NULL 0                                 # Add spring

#dump 		D2 all custom 100000 add_${num}*.dump id type diameter mass xu yu zu

#fix add1 all print 10 "${p0} ${distance} ${slider_z}" file add_distance_${num}.txt screen no      # out put step, distance(spring length), z-position of top chain

#run 1000000

#undump D2

#unfix add1

########## Pulling the supporting particle with constant velocity #############

#fix m1 support move linear 0.1 0 0 units box                                                      # apply constant velocity to supporting particles along x-direction V=0.1m/s

#fix move1 all print 100 "${p0} ${distance} ${slider_z}" file move_distance_${num}.txt screen no

#dump 		1 all custom 50000 move_${num}_*.dump id type diameter mass xu yu zu

#run 1000000

clear
  using 1 OpenMP thread(s) per MPI task

next num

jump SELF startloop

include granular.in
### Simulation of contact between two chain

##################### Simulation setup ####################

units micro                              # units
dimension	3                            # dimension
boundary	p p p                        # boundary condition p: periodic
atom_style	sphere                       # atom style
#processors * * 1

####################### Parameter ##################################

variable ind equal ${num}
variable ind equal 4

#variable lat0 equal 1                    #
variable lat1 equal 3*(2^(1/2))       # Lattice distance of bottom chain
variable lat2 equal 3                   # Lattice distance of top chain
variable d1 equal 3+(200*0.01)+(v_ind*0.01)                      # Diamter of particle at bottom chain
variable d2 equal 3                      # Diamter of particle at top chain
#variable d3 equal 1                      # Diamter of supporting particle

variable n2e1 equal 1000*v_lat2              # Half length of top chain. 1500 is number of particles
variable n1e1 equal 1.5*v_n2e1*(v_lat1/v_lat2)               # Half length of bottom chain, which is 1.5 time larger than top chain
variable n1e2 equal -v_n1e1
variable n2e2 equal -v_n2e1
#variable lenspr equal -(v_n2e1+100)           # length of the spring connecting top chain and supporting particle
#variable lenspr1 equal -v_lenspr-0.1         # Position of supporting particle upper bound
#variable lenspr2 equal -v_lenspr+0.1         # Position of supporting particle lower bound

variable den equal 2.2 #grams/cm^3      # micrometer^3=10^-12 cm^3 Density of materials
#variable den2 equal 1.5

variable V1 equal (1/6)*PI*(v_d1^3)     # Volume of particle 1
variable V2 equal (1/6)*PI*(v_d2^3)     # Volume of particle 2
#variable V3 equal (1/6)*PI*(v_d3^3)     # Volume of particle 3

variable mass1 equal v_den*v_V1  # Mass of particle 1 (picograms)
variable mass2 equal v_den*v_V2  # Mass of particle 2
#variable mass3 equal v_den*v_V3  # Mass of particle 3

# E GPa to picogram/(micrometer-microsecond^2)= 10^3 Pa= 10^-6 GPa
# Force unit(picogram-micrometer/microsecond^2)=10^-9 N= 1nN
# Spring stiffness (force/distance) 10^-3 N/m

variable K0 equal (1500/50)*(10^5)             # Spring stiffness conneting top chain and sup particle
variable E equal 100*(10^6)                    # Young's Modulus using for Hertz/material model
variable PR equal 0.3                          # Poisson's ratio using for Hertz/material model
variable Fn equal -1000 #-(v_ind*100)                       # Force apply to each particles in top chain
variable dt equal 0.00001                      # Time step units microsecond
variable lgv equal 0.5                         #damping for langevin thermostat for slider


################### Creating the model #################################
lattice sc ${lat1}                                                               # Bottom chain type1
lattice sc 4.24264068711929                                                               
Lattice spacing in x,y,z = 4.2426407 4.2426407 4.2426407

region box block ${n1e2} ${n1e1} -100 100 -100 100 units box
region box block -6363.96103067894 ${n1e1} -100 100 -100 100 units box
region box block -6363.96103067894 6363.96103067894 -100 100 -100 100 units box
region substrate block ${n1e2} ${n1e1} -0.5 0.5 0 0.5 units box
region substrate block -6363.96103067894 ${n1e1} -0.5 0.5 0 0.5 units box
region substrate block -6363.96103067894 6363.96103067894 -0.5 0.5 0 0.5 units box

create_box 2 box
Created orthogonal box = (-6363.961 -100 -100) to (6363.961 100 100)
  4 by 1 by 1 MPI processor grid
create_atoms 1 region substrate
Created 3000 atoms
  using lattice units in orthogonal box = (-6363.961 -100 -100) to (6363.961 100 100)
  create_atoms CPU = 0.001 seconds

lattice sc ${lat2}                                                             # Top chain type2
lattice sc 3                                                             
Lattice spacing in x,y,z = 3 3 3

region slider1 block ${n2e2} ${n2e1} -0.1 0.1 5.9 6.1 units box
region slider1 block -3000 ${n2e1} -0.1 0.1 5.9 6.1 units box
region slider1 block -3000 3000 -0.1 0.1 5.9 6.1 units box

create_atoms 2 region slider1
Created 2001 atoms
  using lattice units in orthogonal box = (-6363.961 -100 -100) to (6363.961 100 100)
  create_atoms CPU = 0.001 seconds

#lattice sc ${lat0}                                                             # Supporting particle type3

#region support block ${lenspr1} ${lenspr2} -0.1 0.1 7.9 8.1 units box

#create_atoms 3 region support

set type 1 diameter ${d1}                    # Set mass and diameter for each particles type
set type 1 diameter 5.04                    
Setting atom values ...
  3000 settings made for diameter
set type 1 mass ${mass1}
set type 1 mass 147.47313494654
Setting atom values ...
  3000 settings made for mass
set type 2 diameter ${d2}
set type 2 diameter 3
Setting atom values ...
  2001 settings made for diameter
set type 2 mass ${mass2}
set type 2 mass 31.101767270539
Setting atom values ...
  2001 settings made for mass
#set type 3 diameter ${d3}
#set type 3 mass ${mass3}

group substrate region substrate           # Define gorup
3000 atoms in group substrate
group slider1 region slider1
2001 atoms in group slider1
#group support region support
group substrate_slider union substrate slider1
5001 atoms in group substrate_slider

########################## Potential ###################################
pair_style granular
pair_coeff 1 1 hertz/material 0.00000001 0.001 ${PR} tangential mindlin NULL 0.1 0.01 damping viscoelastic              ########### set E between each particle in same type is small to neglect their interaction
pair_coeff 1 1 hertz/material 0.00000001 0.001 0.3 tangential mindlin NULL 0.1 0.01 damping viscoelastic              
pair_coeff 2 2 hertz/material 0.00000001 0.001 ${PR} tangential mindlin NULL 0.1 0.01 damping viscoelastic
pair_coeff 2 2 hertz/material 0.00000001 0.001 0.3 tangential mindlin NULL 0.1 0.01 damping viscoelastic
#pair_coeff 3 3 hertz/material ${E} 0.001 ${PR} tangential mindlin NULL 0.1 0.01 damping viscoelastic
pair_coeff 1 2 hertz/material ${E} 0.001 ${PR} tangential mindlin NULL 0.1 0.01 damping viscoelastic
pair_coeff 1 2 hertz/material 100000000 0.001 ${PR} tangential mindlin NULL 0.1 0.01 damping viscoelastic
pair_coeff 1 2 hertz/material 100000000 0.001 0.3 tangential mindlin NULL 0.1 0.01 damping viscoelastic
#pair_coeff 1 3 hertz/material 0.00000001 0.001 ${PR} tangential mindlin NULL 0.1 0.01 damping viscoelastic
#pair_coeff 2 3 hertz/material 0.00000001 0.001 ${PR} tangential mindlin NULL 0.1 0.01 damping viscoelastic
comm_modify     vel yes
neigh_modify    delay 0 every 1 check yes

### Compute properties ###

compute 1 slider1 com                      # Compute the center of mass of top chain
#compute 2 support com                      # Compute the center of mass of supporting particle

variable p0 equal "step"

variable slider_z equal "c_1[3]"          # output the position of top chain in z-direction

#variable distance equal "c_2[1]-c_1[1]"   # Distance between COM of top chain and supporting particle

thermo 100000
thermo_style custom step lx ly lz press pxx pyy pzz ke pe temp c_1[1] c_1[2] c_1[3] #c_2[1] c_2[2] c_2[3] v_distance

############### Fix ##################


############## Equilibrium the system with apply force ########################

fix force_slider1 slider1 setforce NULL 0 NULL                                # Fix top chain not to move in y-direction

fix f_sub substrate freeze                                                    # Freeze the bottom chain

fix rigid_top slider1 rigid/nve group 1 slider1 langevin 0 0 ${lgv} 6987532   # NVE+langevin
fix rigid_top slider1 rigid/nve group 1 slider1 langevin 0 0 0.5 6987532   
  1 rigid bodies with 2001 atoms

fix add slider1 addforce 0 0 ${Fn} every 1                                    # Add force to top layer
fix add slider1 addforce 0 0 -1000 every 1                                    

timestep ${dt}
timestep 1e-05

# fix  nve_1 slider1 nve

dump 		D1 all custom 100000 Equi_${num}_*.dump id type diameter mass xu yu zu
dump 		D1 all custom 100000 Equi_4_*.dump id type diameter mass xu yu zu
dump_modify D1 format 5 %.18g
dump_modify D1 format 7 %.18g

run 3000000
Generated 0 of 1 mixed pair_coeff terms from geometric mixing rule
Neighbor list info ...
  update every 1 steps, delay 0 steps, check yes
  max neighbors/atom: 2000, page size: 100000
  master list distance cutoff = 5.14
  ghost atom cutoff = 5.14
  binsize = 2.57, bins = 4953 78 78
  1 neighbor lists, perpetual/occasional/extra = 1 0 0
  (1) pair granular, perpetual
      attributes: half, newton on, size, history
      pair build: half/size/bin/newton
      stencil: half/bin/3d
      bin: standard
Per MPI rank memory allocation (min/avg/max) = 45.5 | 45.51 | 45.52 Mbytes
[...]
Loop time of 692.398 on 4 procs for 3000000 steps with 5001 atoms

Performance: 3743512.800 ns/day, 0.000 hours/ns, 4332.769 timesteps/s
100.0% CPU use with 4 MPI tasks x 1 OpenMP threads

MPI task timing breakdown:
Section |  min time  |  avg time  |  max time  |%varavg| %total
---------------------------------------------------------------
Pair    | 179.88     | 236.45     | 292.91     | 366.9 | 34.15
Neigh   | 0.62323    | 0.64109    | 0.65901    |   1.8 |  0.09
Comm    | 23.298     | 80.433     | 136.84     | 627.3 | 11.62
Output  | 0.44751    | 0.44815    | 0.44879    |   0.1 |  0.06
Modify  | 200.59     | 269.82     | 338.3      | 416.0 | 38.97
Other   |            | 104.6      |            |       | 15.11

Nlocal:        1250.25 ave        1752 max         749 min
Histogram: 2 0 0 0 0 0 0 0 0 2
Nghost:           4.25 ave           6 max           3 min
Histogram: 1 0 0 2 0 0 0 0 0 1
Neighs:        1464.75 ave        2181 max         749 min
Histogram: 2 0 0 0 0 0 0 0 0 2

Total # of neighbors = 5859
Ave neighs/atom = 1.1715657
Neighbor list builds = 100
Dangerous builds = 0

undump D1

############ Add spring between top chain to supp particle and then equilibrium  ###########

#fix sp1 support spring couple slider1 ${K0} ${lenspr} NULL NULL 0                                 # Add spring

#dump 		D2 all custom 100000 add_${num}*.dump id type diameter mass xu yu zu

#fix add1 all print 10 "${p0} ${distance} ${slider_z}" file add_distance_${num}.txt screen no      # out put step, distance(spring length), z-position of top chain

#run 1000000

#undump D2

#unfix add1

########## Pulling the supporting particle with constant velocity #############

#fix m1 support move linear 0.1 0 0 units box                                                      # apply constant velocity to supporting particles along x-direction V=0.1m/s

#fix move1 all print 100 "${p0} ${distance} ${slider_z}" file move_distance_${num}.txt screen no

#dump 		1 all custom 50000 move_${num}_*.dump id type diameter mass xu yu zu

#run 1000000

clear
  using 1 OpenMP thread(s) per MPI task

next num

jump SELF startloop

include granular.in
### Simulation of contact between two chain

##################### Simulation setup ####################

units micro                              # units
dimension	3                            # dimension
boundary	p p p                        # boundary condition p: periodic
atom_style	sphere                       # atom style
#processors * * 1

####################### Parameter ##################################

variable ind equal ${num}
variable ind equal 99

#variable lat0 equal 1                    #
variable lat1 equal 3*(2^(1/2))       # Lattice distance of bottom chain
variable lat2 equal 3                   # Lattice distance of top chain
variable d1 equal 3+(200*0.01)+(v_ind*0.01)                      # Diamter of particle at bottom chain
variable d2 equal 3                      # Diamter of particle at top chain
#variable d3 equal 1                      # Diamter of supporting particle

variable n2e1 equal 1000*v_lat2              # Half length of top chain. 1500 is number of particles
variable n1e1 equal 1.5*v_n2e1*(v_lat1/v_lat2)               # Half length of bottom chain, which is 1.5 time larger than top chain
variable n1e2 equal -v_n1e1
variable n2e2 equal -v_n2e1
#variable lenspr equal -(v_n2e1+100)           # length of the spring connecting top chain and supporting particle
#variable lenspr1 equal -v_lenspr-0.1         # Position of supporting particle upper bound
#variable lenspr2 equal -v_lenspr+0.1         # Position of supporting particle lower bound

variable den equal 2.2 #grams/cm^3      # micrometer^3=10^-12 cm^3 Density of materials
#variable den2 equal 1.5

variable V1 equal (1/6)*PI*(v_d1^3)     # Volume of particle 1
variable V2 equal (1/6)*PI*(v_d2^3)     # Volume of particle 2
#variable V3 equal (1/6)*PI*(v_d3^3)     # Volume of particle 3

variable mass1 equal v_den*v_V1  # Mass of particle 1 (picograms)
variable mass2 equal v_den*v_V2  # Mass of particle 2
#variable mass3 equal v_den*v_V3  # Mass of particle 3

# E GPa to picogram/(micrometer-microsecond^2)= 10^3 Pa= 10^-6 GPa
# Force unit(picogram-micrometer/microsecond^2)=10^-9 N= 1nN
# Spring stiffness (force/distance) 10^-3 N/m

variable K0 equal (1500/50)*(10^5)             # Spring stiffness conneting top chain and sup particle
variable E equal 100*(10^6)                    # Young's Modulus using for Hertz/material model
variable PR equal 0.3                          # Poisson's ratio using for Hertz/material model
variable Fn equal -1000 #-(v_ind*100)                       # Force apply to each particles in top chain
variable dt equal 0.00001                      # Time step units microsecond
variable lgv equal 0.5                         #damping for langevin thermostat for slider


################### Creating the model #################################
lattice sc ${lat1}                                                               # Bottom chain type1
lattice sc 4.24264068711929                                                               
Lattice spacing in x,y,z = 4.2426407 4.2426407 4.2426407

region box block ${n1e2} ${n1e1} -100 100 -100 100 units box
region box block -6363.96103067894 ${n1e1} -100 100 -100 100 units box
region box block -6363.96103067894 6363.96103067894 -100 100 -100 100 units box
region substrate block ${n1e2} ${n1e1} -0.5 0.5 0 0.5 units box
region substrate block -6363.96103067894 ${n1e1} -0.5 0.5 0 0.5 units box
region substrate block -6363.96103067894 6363.96103067894 -0.5 0.5 0 0.5 units box

create_box 2 box
Created orthogonal box = (-6363.961 -100 -100) to (6363.961 100 100)
  4 by 1 by 1 MPI processor grid
create_atoms 1 region substrate
Created 3000 atoms
  using lattice units in orthogonal box = (-6363.961 -100 -100) to (6363.961 100 100)
  create_atoms CPU = 0.001 seconds

lattice sc ${lat2}                                                             # Top chain type2
lattice sc 3                                                             
Lattice spacing in x,y,z = 3 3 3

region slider1 block ${n2e2} ${n2e1} -0.1 0.1 5.9 6.1 units box
region slider1 block -3000 ${n2e1} -0.1 0.1 5.9 6.1 units box
region slider1 block -3000 3000 -0.1 0.1 5.9 6.1 units box

create_atoms 2 region slider1
Created 2001 atoms
  using lattice units in orthogonal box = (-6363.961 -100 -100) to (6363.961 100 100)
  create_atoms CPU = 0.001 seconds

#lattice sc ${lat0}                                                             # Supporting particle type3

#region support block ${lenspr1} ${lenspr2} -0.1 0.1 7.9 8.1 units box

#create_atoms 3 region support

set type 1 diameter ${d1}                    # Set mass and diameter for each particles type
set type 1 diameter 5.99                    
Setting atom values ...
  3000 settings made for diameter
set type 1 mass ${mass1}
set type 1 mass 247.572139772725
Setting atom values ...
  3000 settings made for mass
set type 2 diameter ${d2}
set type 2 diameter 3
Setting atom values ...
  2001 settings made for diameter
set type 2 mass ${mass2}
set type 2 mass 31.101767270539
Setting atom values ...
  2001 settings made for mass
#set type 3 diameter ${d3}
#set type 3 mass ${mass3}

group substrate region substrate           # Define gorup
3000 atoms in group substrate
group slider1 region slider1
2001 atoms in group slider1
#group support region support
group substrate_slider union substrate slider1
5001 atoms in group substrate_slider

########################## Potential ###################################
pair_style granular
pair_coeff 1 1 hertz/material 0.00000001 0.001 ${PR} tangential mindlin NULL 0.1 0.01 damping viscoelastic              ########### set E between each particle in same type is small to neglect their interaction
pair_coeff 1 1 hertz/material 0.00000001 0.001 0.3 tangential mindlin NULL 0.1 0.01 damping viscoelastic              
pair_coeff 2 2 hertz/material 0.00000001 0.001 ${PR} tangential mindlin NULL 0.1 0.01 damping viscoelastic
pair_coeff 2 2 hertz/material 0.00000001 0.001 0.3 tangential mindlin NULL 0.1 0.01 damping viscoelastic
#pair_coeff 3 3 hertz/material ${E} 0.001 ${PR} tangential mindlin NULL 0.1 0.01 damping viscoelastic
pair_coeff 1 2 hertz/material ${E} 0.001 ${PR} tangential mindlin NULL 0.1 0.01 damping viscoelastic
pair_coeff 1 2 hertz/material 100000000 0.001 ${PR} tangential mindlin NULL 0.1 0.01 damping viscoelastic
pair_coeff 1 2 hertz/material 100000000 0.001 0.3 tangential mindlin NULL 0.1 0.01 damping viscoelastic
#pair_coeff 1 3 hertz/material 0.00000001 0.001 ${PR} tangential mindlin NULL 0.1 0.01 damping viscoelastic
#pair_coeff 2 3 hertz/material 0.00000001 0.001 ${PR} tangential mindlin NULL 0.1 0.01 damping viscoelastic
comm_modify     vel yes
neigh_modify    delay 0 every 1 check yes

### Compute properties ###

compute 1 slider1 com                      # Compute the center of mass of top chain
#compute 2 support com                      # Compute the center of mass of supporting particle

variable p0 equal "step"

variable slider_z equal "c_1[3]"          # output the position of top chain in z-direction

#variable distance equal "c_2[1]-c_1[1]"   # Distance between COM of top chain and supporting particle

thermo 100000
thermo_style custom step lx ly lz press pxx pyy pzz ke pe temp c_1[1] c_1[2] c_1[3] #c_2[1] c_2[2] c_2[3] v_distance

############### Fix ##################


############## Equilibrium the system with apply force ########################

fix force_slider1 slider1 setforce NULL 0 NULL                                # Fix top chain not to move in y-direction

fix f_sub substrate freeze                                                    # Freeze the bottom chain

fix rigid_top slider1 rigid/nve group 1 slider1 langevin 0 0 ${lgv} 6987532   # NVE+langevin
fix rigid_top slider1 rigid/nve group 1 slider1 langevin 0 0 0.5 6987532   
  1 rigid bodies with 2001 atoms

fix add slider1 addforce 0 0 ${Fn} every 1                                    # Add force to top layer
fix add slider1 addforce 0 0 -1000 every 1                                    

timestep ${dt}
timestep 1e-05

# fix  nve_1 slider1 nve

dump 		D1 all custom 100000 Equi_${num}_*.dump id type diameter mass xu yu zu
dump 		D1 all custom 100000 Equi_99_*.dump id type diameter mass xu yu zu
dump_modify D1 format 5 %.18g
dump_modify D1 format 7 %.18g

run 3000000
Generated 0 of 1 mixed pair_coeff terms from geometric mixing rule
Neighbor list info ...
  update every 1 steps, delay 0 steps, check yes
  max neighbors/atom: 2000, page size: 100000
  master list distance cutoff = 6.09
  ghost atom cutoff = 6.09
  binsize = 3.045, bins = 4180 66 66
  1 neighbor lists, perpetual/occasional/extra = 1 0 0
  (1) pair granular, perpetual
      attributes: half, newton on, size, history
      pair build: half/size/bin/newton
      stencil: half/bin/3d
      bin: standard
Per MPI rank memory allocation (min/avg/max) = 32.99 | 33 | 33.01 Mbytes
   Step           Lx             Ly             Lz           Press           Pxx            Pyy            Pzz           KinEng         PotEng          Temp          c_1[1]         c_1[2]         c_1[3]    
         0   12727.922      200            200            1.7256108e-13  5.1768324e-13  0              0              0              0              0              1.1971759e-13  0              6            
    100000   12727.922      200            200            0.00073674873  5.1768324e-13  0              0.0022102462   79091.909      0              3.8190653e+09  1.1971759e-13  0              4.8743635    
    200000   12727.922      200            200            0.00092722592  5.1768324e-13  0              0.0027816778   130657.02      0              6.3089597e+09  1.1971759e-13  0              4.528661     
    300000   12727.922      200            200            0.00038268476  5.1768324e-13  0              0.0011480543   27759.546      0              1.3404091e+09  1.1971759e-13  0              4.5009728    
    400000   12727.922      200            200            3.5971856e-05  5.1768324e-13  0              0.00010791557  295.42013      0              14264781       1.1971759e-13  0              4.4962614    
    500000   12727.922      200            200            0.002206501    0.0002231307   0              0.0063963724   58.742478      0              2836464        1.1971759e-13  0              4.4925564    
    600000   12727.922      200            200            0.0045677707   0.00020510634  0              0.013498206    35.11805       0              1695725        1.1971759e-13  0              4.4914607    
    700000   12727.922      200            200            0.0053900866   0.00028078433  0              0.015889475    0.039077649    0              1886.9198      1.1971759e-13  0              4.4911657    
    800000   12727.922      200            200            0.0057843774   0.00026498392  0              0.017088148    0.69873377     0              33739.353      1.1971759e-13  0              4.4910246    
    900000   12727.922      200            200            0.00592873     0.00023803373  0              0.017548156    0.30367766     0              14663.507      1.1971759e-13  0              4.4909713    
   1000000   12727.922      200            200            0.0059668857   0.00023556765  0              0.017665089    0.049076202    0              2369.7142      1.1971759e-13  0              4.4909577    
   1100000   12727.922      200            200            0.0059695918   0.00023547491  0              0.0176733      0.0035628155   0              172.03561      1.1971759e-13  0              4.4909567    
   1200000   12727.922      200            200            0.0059660404   0.00023557905  0              0.017662542    3.9562835e-05  0              1.9103477      1.1971759e-13  0              4.4909578    
   1300000   12727.922      200            200            0.0059635374   0.00023565489  0              0.017654957    1.7727094e-05  0              0.85597791     1.1971759e-13  0              4.4909587    
   1400000   12727.922      200            200            0.0059625041   0.00023568669  0              0.017651826    1.144518e-05   0              0.55264677     1.1971759e-13  0              4.4909591    
   1500000   12727.922      200            200            0.0059622166   0.00023569567  0              0.017650954    2.1784654e-06  0              0.1051903      1.1971759e-13  0              4.4909592    
   1600000   12727.922      200            200            0.0059621817   0.00023569682  0              0.017650848    1.9058835e-07  0              0.0092028293   1.1971759e-13  0              4.4909592    
   1700000   12727.922      200            200            0.0059621992   0.0002356963   0              0.017650901    4.2746073e-09  0              0.00020640549  1.1971759e-13  0              4.4909592    
   1800000   12727.922      200            200            0.0059622144   0.00023569584  0              0.017650947    3.652997e-10   0              1.7639015e-05  1.1971759e-13  0              4.4909592    
   1900000   12727.922      200            200            0.0059622213   0.00023569563  0              0.017650968    4.1192927e-10  0              1.989059e-05   1.1971759e-13  0              4.4909592    
   2000000   12727.922      200            200            0.0059622234   0.00023569556  0              0.017650974    9.3692792e-11  0              4.5240896e-06  1.1971759e-13  0              4.4909592    
   2100000   12727.922      200            200            0.0059622237   0.00023569555  0              0.017650976    9.7128851e-12  0              4.6900046e-07  1.1971759e-13  0              4.4909592    
   2200000   12727.922      200            200            0.0059622236   0.00023569556  0              0.017650975    3.3875377e-13  0              1.6357207e-08  1.1971759e-13  0              4.4909592    
   2300000   12727.922      200            200            0.0059622235   0.00023569556  0              0.017650975    5.1789934e-15  0              2.5007506e-10  1.1971759e-13  0              4.4909592    
   2400000   12727.922      200            200            0.0059622235   0.00023569556  0              0.017650975    1.4593199e-14  0              7.0465333e-10  1.1971759e-13  0              4.4909592    
   2500000   12727.922      200            200            0.0059622235   0.00023569556  0              0.017650975    3.8867961e-15  0              1.8767948e-10  1.1971759e-13  0              4.4909592    
   2600000   12727.922      200            200            0.0059622235   0.00023569556  0              0.017650975    1.4841512e-16  0              7.1664352e-12  1.1971759e-13  0              4.4909592    
   2700000   12727.922      200            200            0.0059622235   0.00023569556  0              0.017650975    8.4105988e-17  0              4.0611771e-12  1.1971759e-13  0              4.4909592    
   2800000   12727.922      200            200            0.0059622235   0.00023569556  0              0.017650975    1.6721439e-19  0              8.0741845e-15  1.1971759e-13  0              4.4909592    
   2900000   12727.922      200            200            0.0059622235   0.00023569556  0              0.017650975    3.0257161e-17  0              1.46101e-12    1.1971759e-13  0              4.4909592    
   3000000   12727.922      200            200            0.0059622235   0.00023569556  0              0.017650975    1.8328234e-18  0              8.850048e-14   1.1971759e-13  0              4.4909592    
Loop time of 695.755 on 4 procs for 3000000 steps with 5001 atoms

Performance: 3725447.362 ns/day, 0.000 hours/ns, 4311.860 timesteps/s
100.0% CPU use with 4 MPI tasks x 1 OpenMP threads

MPI task timing breakdown:
Section |  min time  |  avg time  |  max time  |%varavg| %total
---------------------------------------------------------------
Pair    | 179.38     | 236.44     | 293.87     | 368.7 | 33.98
Neigh   | 0.64391    | 0.66202    | 0.68015    |   1.8 |  0.10
Comm    | 24.423     | 80.999     | 139        | 626.8 | 11.64
Output  | 0.45342    | 0.45406    | 0.4547     |   0.1 |  0.07
Modify  | 201.08     | 271.57     | 341.1      | 418.0 | 39.03
Other   |            | 105.6      |            |       | 15.18

Nlocal:        1250.25 ave        1752 max         749 min
Histogram: 2 0 0 0 0 0 0 0 0 2
Nghost:           4.25 ave           6 max           3 min
Histogram: 1 0 0 2 0 0 0 0 0 1
Neighs:        1470.25 ave        2192 max         749 min
Histogram: 2 0 0 0 0 0 0 0 0 2

Total # of neighbors = 5881
Ave neighs/atom = 1.1759648
Neighbor list builds = 102
Dangerous builds = 0

undump D1

############ Add spring between top chain to supp particle and then equilibrium  ###########

#fix sp1 support spring couple slider1 ${K0} ${lenspr} NULL NULL 0                                 # Add spring

#dump 		D2 all custom 100000 add_${num}*.dump id type diameter mass xu yu zu

#fix add1 all print 10 "${p0} ${distance} ${slider_z}" file add_distance_${num}.txt screen no      # out put step, distance(spring length), z-position of top chain

#run 1000000

#undump D2

#unfix add1

########## Pulling the supporting particle with constant velocity #############

#fix m1 support move linear 0.1 0 0 units box                                                      # apply constant velocity to supporting particles along x-direction V=0.1m/s

#fix move1 all print 100 "${p0} ${distance} ${slider_z}" file move_distance_${num}.txt screen no

#dump 		1 all custom 50000 move_${num}_*.dump id type diameter mass xu yu zu

#run 1000000

clear
  using 1 OpenMP thread(s) per MPI task

next num

jump SELF startloop
Total wall time: 19:20:39
