ITEM: TIMESTEP
3000000
ITEM: NUMBER OF ATOMS
2501
ITEM: BOX BOUNDS pp pp pp
-2.5200000000000000e+03 2.5200000000000000e+03
-1.0000000000000000e+02 1.0000000000000000e+02
-1.0000000000000000e+02 1.0000000000000000e+02
ITEM: ATOMS id type diameter mass xu yu zu fx fy fz
1 1 3 31.1018 -2520 0 0 0 0 0
2 1 3 31.1018 -2516.64 0 0 0 0 0
3 1 3 31.1018 -2513.28 0 0 0 0 0
4 1 3 31.1018 -2509.92 0 0 0 0 0
5 1 3 31.1018 -2506.56 0 0 0 0 0
6 1 3 31.1018 -2503.2 0 0 0 0 0
7 1 3 31.1018 -2499.84 0 0 0 0 0
8 1 3 31.1018 -2496.48 0 0 0 0 0
9 1 3 31.1018 -2493.12 0 0 0 0 0
10 1 3 31.1018 -2489.76 0 0 0 0 0
11 1 3 31.1018 -2486.4 0 0 0 0 0
12 1 3 31.1018 -2483.04 0 0 0 0 0
13 1 3 31.1018 -2479.68 0 0 0 0 0
14 1 3 31.1018 -2476.32 0 0 0 0 0
15 1 3 31.1018 -2472.96 0 0 0 0 0
16 1 3 31.1018 -2469.6 0 0 0 0 0
17 1 3 31.1018 -2466.24 0 0 0 0 0
18 1 3 31.1018 -2462.88 0 0 0 0 0
19 1 3 31.1018 -2459.52 0 0 0 0 0
20 1 3 31.1018 -2456.16 0 0 0 0 0
21 1 3 31.1018 -2452.8 0 0 0 0 0
22 1 3 31.1018 -2449.44 0 0 0 0 0
23 1 3 31.1018 -2446.08 0 0 0 0 0
24 1 3 31.1018 -2442.72 0 0 0 0 0
25 1 3 31.1018 -2439.36 0 0 0 0 0
26 1 3 31.1018 -2436 0 0 0 0 0
27 1 3 31.1018 -2432.64 0 0 0 0 0
28 1 3 31.1018 -2429.28 0 0 0 0 0
29 1 3 31.1018 -2425.92 0 0 0 0 0
30 1 3 31.1018 -2422.56 0 0 0 0 0
31 1 3 31.1018 -2419.2 0 0 0 0 0
32 1 3 31.1018 -2415.84 0 0 0 0 0
33 1 3 31.1018 -2412.48 0 0 0 0 0
34 1 3 31.1018 -2409.12 0 0 0 0 0
35 1 3 31.1018 -2405.76 0 0 0 0 0
36 1 3 31.1018 -2402.4 0 0 0 0 0
37 1 3 31.1018 -2399.04 0 0 0 0 0
38 1 3 31.1018 -2395.68 0 0 0 0 0
39 1 3 31.1018 -2392.32 0 0 0 0 0
40 1 3 31.1018 -2388.96 0 0 0 0 0
41 1 3 31.1018 -2385.6 0 0 0 0 0
42 1 3 31.1018 -2382.24 0 0 0 0 0
43 1 3 31.1018 -2378.88 0 0 0 0 0
44 1 3 31.1018 -2375.52 0 0 0 0 0
45 1 3 31.1018 -2372.16 0 0 0 0 0
46 1 3 31.1018 -2368.8 0 0 0 0 0
47 1 3 31.1018 -2365.44 0 0 0 0 0
48 1 3 31.1018 -2362.08 0 0 0 0 0
49 1 3 31.1018 -2358.72 0 0 0 0 0
50 1 3 31.1018 -2355.36 0 0 0 0 0
51 1 3 31.1018 -2352 0 0 0 0 0
52 1 3 31.1018 -2348.64 0 0 0 0 0
53 1 3 31.1018 -2345.28 0 0 0 0 0
54 1 3 31.1018 -2341.92 0 0 0 0 0
55 1 3 31.1018 -2338.56 0 0 0 0 0
56 1 3 31.1018 -2335.2 0 0 0 0 0
57 1 3 31.1018 -2331.84 0 0 0 0 0
58 1 3 31.1018 -2328.48 0 0 0 0 0
59 1 3 31.1018 -2325.12 0 0 0 0 0
60 1 3 31.1018 -2321.76 0 0 0 0 0
61 1 3 31.1018 -2318.4 0 0 0 0 0
62 1 3 31.1018 -2315.04 0 0 0 0 0
63 1 3 31.1018 -2311.68 0 0 0 0 0
64 1 3 31.1018 -2308.32 0 0 0 0 0
65 1 3 31.1018 -2304.96 0 0 0 0 0
66 1 3 31.1018 -2301.6 0 0 0 0 0
67 1 3 31.1018 -2298.24 0 0 0 0 0
68 1 3 31.1018 -2294.88 0 0 0 0 0
69 1 3 31.1018 -2291.52 0 0 0 0 0
70 1 3 31.1018 -2288.16 0 0 0 0 0
71 1 3 31.1018 -2284.8 0 0 0 0 0
72 1 3 31.1018 -2281.44 0 0 0 0 0
73 1 3 31.1018 -2278.08 0 0 0 0 0
74 1 3 31.1018 -2274.72 0 0 0 0 0
75 1 3 31.1018 -2271.36 0 0 0 0 0
76 1 3 31.1018 -2268 0 0 0 0 0
77 1 3 31.1018 -2264.64 0 0 0 0 0
78 1 3 31.1018 -2261.28 0 0 0 0 0
79 1 3 31.1018 -2257.92 0 0 0 0 0
80 1 3 31.1018 -2254.56 0 0 0 0 0
81 1 3 31.1018 -2251.2 0 0 0 0 0
82 1 3 31.1018 -2247.84 0 0 0 0 0
83 1 3 31.1018 -2244.48 0 0 0 0 0
84 1 3 31.1018 -2241.12 0 0 0 0 0
85 1 3 31.1018 -2237.76 0 0 0 0 0
86 1 3 31.1018 -2234.4 0 0 0 0 0
87 1 3 31.1018 -2231.04 0 0 0 0 0
88 1 3 31.1018 -2227.68 0 0 0 0 0
89 1 3 31.1018 -2224.32 0 0 0 0 0
90 1 3 31.1018 -2220.96 0 0 0 0 0
91 1 3 31.1018 -2217.6 0 0 0 0 0
92 1 3 31.1018 -2214.24 0 0 0 0 0
93 1 3 31.1018 -2210.88 0 0 0 0 0
94 1 3 31.1018 -2207.52 0 0 0 0 0
95 1 3 31.1018 -2204.16 0 0 0 0 0
96 1 3 31.1018 -2200.8 0 0 0 0 0
97 1 3 31.1018 -2197.44 0 0 0 0 0
98 1 3 31.1018 -2194.08 0 0 0 0 0
99 1 3 31.1018 -2190.72 0 0 0 0 0
100 1 3 31.1018 -2187.36 0 0 0 0 0
101 1 3 31.1018 -2184 0 0 0 0 0
102 1 3 31.1018 -2180.64 0 0 0 0 0
103 1 3 31.1018 -2177.28 0 0 0 0 0
104 1 3 31.1018 -2173.92 0 0 0 0 0
105 1 3 31.1018 -2170.56 0 0 0 0 0
106 1 3 31.1018 -2167.2 0 0 0 0 0
107 1 3 31.1018 -2163.84 0 0 0 0 0
108 1 3 31.1018 -2160.48 0 0 0 0 0
109 1 3 31.1018 -2157.12 0 0 0 0 0
110 1 3 31.1018 -2153.76 0 0 0 0 0
111 1 3 31.1018 -2150.4 0 0 0 0 0
112 1 3 31.1018 -2147.04 0 0 0 0 0
113 1 3 31.1018 -2143.68 0 0 0 0 0
114 1 3 31.1018 -2140.32 0 0 0 0 0
115 1 3 31.1018 -2136.96 0 0 0 0 0
116 1 3 31.1018 -2133.6 0 0 0 0 0
117 1 3 31.1018 -2130.24 0 0 0 0 0
118 1 3 31.1018 -2126.88 0 0 0 0 0
119 1 3 31.1018 -2123.52 0 0 0 0 0
120 1 3 31.1018 -2120.16 0 0 0 0 0
121 1 3 31.1018 -2116.8 0 0 0 0 0
122 1 3 31.1018 -2113.44 0 0 0 0 0
123 1 3 31.1018 -2110.08 0 0 0 0 0
124 1 3 31.1018 -2106.72 0 0 0 0 0
125 1 3 31.1018 -2103.36 0 0 0 0 0
126 1 3 31.1018 -2100 0 0 0 0 0
127 1 3 31.1018 -2096.64 0 0 0 0 0
128 1 3 31.1018 -2093.28 0 0 0 0 0
129 1 3 31.1018 -2089.92 0 0 0 0 0
130 1 3 31.1018 -2086.56 0 0 0 0 0
131 1 3 31.1018 -2083.2 0 0 0 0 0
132 1 3 31.1018 -2079.84 0 0 0 0 0
133 1 3 31.1018 -2076.48 0 0 0 0 0
134 1 3 31.1018 -2073.12 0 0 0 0 0
135 1 3 31.1018 -2069.76 0 0 0 0 0
136 1 3 31.1018 -2066.4 0 0 0 0 0
137 1 3 31.1018 -2063.04 0 0 0 0 0
138 1 3 31.1018 -2059.68 0 0 0 0 0
139 1 3 31.1018 -2056.32 0 0 0 0 0
140 1 3 31.1018 -2052.96 0 0 0 0 0
141 1 3 31.1018 -2049.6 0 0 0 0 0
142 1 3 31.1018 -2046.24 0 0 0 0 0
143 1 3 31.1018 -2042.88 0 0 0 0 0
144 1 3 31.1018 -2039.52 0 0 0 0 0
145 1 3 31.1018 -2036.16 0 0 0 0 0
146 1 3 31.1018 -2032.8 0 0 0 0 0
147 1 3 31.1018 -2029.44 0 0 0 0 0
148 1 3 31.1018 -2026.08 0 0 0 0 0
149 1 3 31.1018 -2022.72 0 0 0 0 0
150 1 3 31.1018 -2019.36 0 0 0 0 0
151 1 3 31.1018 -2016 0 0 0 0 0
152 1 3 31.1018 -2012.64 0 0 0 0 0
153 1 3 31.1018 -2009.28 0 0 0 0 0
154 1 3 31.1018 -2005.92 0 0 0 0 0
155 1 3 31.1018 -2002.56 0 0 0 0 0
156 1 3 31.1018 -1999.2 0 0 0 0 0
157 1 3 31.1018 -1995.84 0 0 0 0 0
158 1 3 31.1018 -1992.48 0 0 0 0 0
159 1 3 31.1018 -1989.12 0 0 0 0 0
160 1 3 31.1018 -1985.76 0 0 0 0 0
161 1 3 31.1018 -1982.4 0 0 0 0 0
162 1 3 31.1018 -1979.04 0 0 0 0 0
163 1 3 31.1018 -1975.68 0 0 0 0 0
164 1 3 31.1018 -1972.32 0 0 0 0 0
165 1 3 31.1018 -1968.96 0 0 0 0 0
166 1 3 31.1018 -1965.6 0 0 0 0 0
167 1 3 31.1018 -1962.24 0 0 0 0 0
168 1 3 31.1018 -1958.88 0 0 0 0 0
169 1 3 31.1018 -1955.52 0 0 0 0 0
170 1 3 31.1018 -1952.16 0 0 0 0 0
171 1 3 31.1018 -1948.8 0 0 0 0 0
172 1 3 31.1018 -1945.44 0 0 0 0 0
173 1 3 31.1018 -1942.08 0 0 0 0 0
174 1 3 31.1018 -1938.72 0 0 0 0 0
175 1 3 31.1018 -1935.36 0 0 0 0 0
176 1 3 31.1018 -1932 0 0 0 0 0
177 1 3 31.1018 -1928.64 0 0 0 0 0
178 1 3 31.1018 -1925.28 0 0 0 0 0
179 1 3 31.1018 -1921.92 0 0 0 0 0
180 1 3 31.1018 -1918.56 0 0 0 0 0
181 1 3 31.1018 -1915.2 0 0 0 0 0
182 1 3 31.1018 -1911.84 0 0 0 0 0
183 1 3 31.1018 -1908.48 0 0 0 0 0
184 1 3 31.1018 -1905.12 0 0 0 0 0
185 1 3 31.1018 -1901.76 0 0 0 0 0
186 1 3 31.1018 -1898.4 0 0 0 0 0
187 1 3 31.1018 -1895.04 0 0 0 0 0
188 1 3 31.1018 -1891.68 0 0 0 0 0
189 1 3 31.1018 -1888.32 0 0 0 0 0
190 1 3 31.1018 -1884.96 0 0 0 0 0
191 1 3 31.1018 -1881.6 0 0 0 0 0
192 1 3 31.1018 -1878.24 0 0 0 0 0
193 1 3 31.1018 -1874.88 0 0 0 0 0
194 1 3 31.1018 -1871.52 0 0 0 0 0
195 1 3 31.1018 -1868.16 0 0 0 0 0
196 1 3 31.1018 -1864.8 0 0 0 0 0
197 1 3 31.1018 -1861.44 0 0 0 0 0
198 1 3 31.1018 -1858.08 0 0 0 0 0
199 1 3 31.1018 -1854.72 0 0 0 0 0
200 1 3 31.1018 -1851.36 0 0 0 0 0
201 1 3 31.1018 -1848 0 0 0 0 0
202 1 3 31.1018 -1844.64 0 0 0 0 0
203 1 3 31.1018 -1841.28 0 0 0 0 0
204 1 3 31.1018 -1837.92 0 0 0 0 0
205 1 3 31.1018 -1834.56 0 0 0 0 0
206 1 3 31.1018 -1831.2 0 0 0 0 0
207 1 3 31.1018 -1827.84 0 0 0 0 0
208 1 3 31.1018 -1824.48 0 0 0 0 0
209 1 3 31.1018 -1821.12 0 0 0 0 0
210 1 3 31.1018 -1817.76 0 0 0 0 0
211 1 3 31.1018 -1814.4 0 0 0 0 0
212 1 3 31.1018 -1811.04 0 0 0 0 0
213 1 3 31.1018 -1807.68 0 0 0 0 0
214 1 3 31.1018 -1804.32 0 0 0 0 0
215 1 3 31.1018 -1800.96 0 0 0 0 0
216 1 3 31.1018 -1797.6 0 0 0 0 0
217 1 3 31.1018 -1794.24 0 0 0 0 0
218 1 3 31.1018 -1790.88 0 0 0 0 0
219 1 3 31.1018 -1787.52 0 0 0 0 0
220 1 3 31.1018 -1784.16 0 0 0 0 0
221 1 3 31.1018 -1780.8 0 0 0 0 0
222 1 3 31.1018 -1777.44 0 0 0 0 0
223 1 3 31.1018 -1774.08 0 0 0 0 0
224 1 3 31.1018 -1770.72 0 0 0 0 0
225 1 3 31.1018 -1767.36 0 0 0 0 0
226 1 3 31.1018 -1764 0 0 0 0 0
227 1 3 31.1018 -1760.64 0 0 0 0 0
228 1 3 31.1018 -1757.28 0 0 0 0 0
229 1 3 31.1018 -1753.92 0 0 0 0 0
230 1 3 31.1018 -1750.56 0 0 0 0 0
231 1 3 31.1018 -1747.2 0 0 0 0 0
232 1 3 31.1018 -1743.84 0 0 0 0 0
233 1 3 31.1018 -1740.48 0 0 0 0 0
234 1 3 31.1018 -1737.12 0 0 0 0 0
235 1 3 31.1018 -1733.76 0 0 0 0 0
236 1 3 31.1018 -1730.4 0 0 0 0 0
237 1 3 31.1018 -1727.04 0 0 0 0 0
238 1 3 31.1018 -1723.68 0 0 0 0 0
239 1 3 31.1018 -1720.32 0 0 0 0 0
240 1 3 31.1018 -1716.96 0 0 0 0 0
241 1 3 31.1018 -1713.6 0 0 0 0 0
242 1 3 31.1018 -1710.24 0 0 0 0 0
243 1 3 31.1018 -1706.88 0 0 0 0 0
244 1 3 31.1018 -1703.52 0 0 0 0 0
245 1 3 31.1018 -1700.16 0 0 0 0 0
246 1 3 31.1018 -1696.8 0 0 0 0 0
247 1 3 31.1018 -1693.44 0 0 0 0 0
248 1 3 31.1018 -1690.08 0 0 0 0 0
249 1 3 31.1018 -1686.72 0 0 0 0 0
250 1 3 31.1018 -1683.36 0 0 0 0 0
251 1 3 31.1018 -1680 0 0 0 0 0
252 1 3 31.1018 -1676.64 0 0 0 0 0
253 1 3 31.1018 -1673.28 0 0 0 0 0
254 1 3 31.1018 -1669.92 0 0 0 0 0
255 1 3 31.1018 -1666.56 0 0 0 0 0
256 1 3 31.1018 -1663.2 0 0 0 0 0
257 1 3 31.1018 -1659.84 0 0 0 0 0
258 1 3 31.1018 -1656.48 0 0 0 0 0
259 1 3 31.1018 -1653.12 0 0 0 0 0
260 1 3 31.1018 -1649.76 0 0 0 0 0
261 1 3 31.1018 -1646.4 0 0 0 0 0
262 1 3 31.1018 -1643.04 0 0 0 0 0
263 1 3 31.1018 -1639.68 0 0 0 0 0
264 1 3 31.1018 -1636.32 0 0 0 0 0
265 1 3 31.1018 -1632.96 0 0 0 0 0
266 1 3 31.1018 -1629.6 0 0 0 0 0
267 1 3 31.1018 -1626.24 0 0 0 0 0
268 1 3 31.1018 -1622.88 0 0 0 0 0
269 1 3 31.1018 -1619.52 0 0 0 0 0
270 1 3 31.1018 -1616.16 0 0 0 0 0
271 1 3 31.1018 -1612.8 0 0 0 0 0
272 1 3 31.1018 -1609.44 0 0 0 0 0
273 1 3 31.1018 -1606.08 0 0 0 0 0
274 1 3 31.1018 -1602.72 0 0 0 0 0
275 1 3 31.1018 -1599.36 0 0 0 0 0
276 1 3 31.1018 -1596 0 0 0 0 0
277 1 3 31.1018 -1592.64 0 0 0 0 0
278 1 3 31.1018 -1589.28 0 0 0 0 0
279 1 3 31.1018 -1585.92 0 0 0 0 0
280 1 3 31.1018 -1582.56 0 0 0 0 0
281 1 3 31.1018 -1579.2 0 0 0 0 0
282 1 3 31.1018 -1575.84 0 0 0 0 0
283 1 3 31.1018 -1572.48 0 0 0 0 0
284 1 3 31.1018 -1569.12 0 0 0 0 0
285 1 3 31.1018 -1565.76 0 0 0 0 0
286 1 3 31.1018 -1562.4 0 0 0 0 0
287 1 3 31.1018 -1559.04 0 0 0 0 0
288 1 3 31.1018 -1555.68 0 0 0 0 0
289 1 3 31.1018 -1552.32 0 0 0 0 0
290 1 3 31.1018 -1548.96 0 0 0 0 0
291 1 3 31.1018 -1545.6 0 0 0 0 0
292 1 3 31.1018 -1542.24 0 0 0 0 0
293 1 3 31.1018 -1538.88 0 0 0 0 0
294 1 3 31.1018 -1535.52 0 0 0 0 0
295 1 3 31.1018 -1532.16 0 0 0 0 0
296 1 3 31.1018 -1528.8 0 0 0 0 0
297 1 3 31.1018 -1525.44 0 0 0 0 0
298 1 3 31.1018 -1522.08 0 0 0 0 0
299 1 3 31.1018 -1518.72 0 0 0 0 0
300 1 3 31.1018 -1515.36 0 0 0 0 0
301 1 3 31.1018 -1512 0 0 0 0 0
302 1 3 31.1018 -1508.64 0 0 0 0 0
303 1 3 31.1018 -1505.28 0 0 0 0 0
304 1 3 31.1018 -1501.92 0 0 0 0 0
305 1 3 31.1018 -1498.56 0 0 0 0 0
306 1 3 31.1018 -1495.2 0 0 0 0 0
307 1 3 31.1018 -1491.84 0 0 0 0 0
308 1 3 31.1018 -1488.48 0 0 0 0 0
309 1 3 31.1018 -1485.12 0 0 0 0 0
310 1 3 31.1018 -1481.76 0 0 0 0 0
311 1 3 31.1018 -1478.4 0 0 0 0 0
312 1 3 31.1018 -1475.04 0 0 0 0 0
313 1 3 31.1018 -1471.68 0 0 0 0 0
314 1 3 31.1018 -1468.32 0 0 0 0 0
315 1 3 31.1018 -1464.96 0 0 0 0 0
316 1 3 31.1018 -1461.6 0 0 0 0 0
317 1 3 31.1018 -1458.24 0 0 0 0 0
318 1 3 31.1018 -1454.88 0 0 0 0 0
319 1 3 31.1018 -1451.52 0 0 0 0 0
320 1 3 31.1018 -1448.16 0 0 0 0 0
321 1 3 31.1018 -1444.8 0 0 0 0 0
322 1 3 31.1018 -1441.44 0 0 0 0 0
323 1 3 31.1018 -1438.08 0 0 0 0 0
324 1 3 31.1018 -1434.72 0 0 0 0 0
325 1 3 31.1018 -1431.36 0 0 0 0 0
326 1 3 31.1018 -1428 0 0 0 0 0
327 1 3 31.1018 -1424.64 0 0 0 0 0
328 1 3 31.1018 -1421.28 0 0 0 0 0
329 1 3 31.1018 -1417.92 0 0 0 0 0
330 1 3 31.1018 -1414.56 0 0 0 0 0
331 1 3 31.1018 -1411.2 0 0 0 0 0
332 1 3 31.1018 -1407.84 0 0 0 0 0
333 1 3 31.1018 -1404.48 0 0 0 0 0
334 1 3 31.1018 -1401.12 0 0 0 0 0
335 1 3 31.1018 -1397.76 0 0 0 0 0
336 1 3 31.1018 -1394.4 0 0 0 0 0
337 1 3 31.1018 -1391.04 0 0 0 0 0
338 1 3 31.1018 -1387.68 0 0 0 0 0
339 1 3 31.1018 -1384.32 0 0 0 0 0
340 1 3 31.1018 -1380.96 0 0 0 0 0
341 1 3 31.1018 -1377.6 0 0 0 0 0
342 1 3 31.1018 -1374.24 0 0 0 0 0
343 1 3 31.1018 -1370.88 0 0 0 0 0
344 1 3 31.1018 -1367.52 0 0 0 0 0
345 1 3 31.1018 -1364.16 0 0 0 0 0
346 1 3 31.1018 -1360.8 0 0 0 0 0
347 1 3 31.1018 -1357.44 0 0 0 0 0
348 1 3 31.1018 -1354.08 0 0 0 0 0
349 1 3 31.1018 -1350.72 0 0 0 0 0
350 1 3 31.1018 -1347.36 0 0 0 0 0
351 1 3 31.1018 -1344 0 0 0 0 0
352 1 3 31.1018 -1340.64 0 0 0 0 0
353 1 3 31.1018 -1337.28 0 0 0 0 0
354 1 3 31.1018 -1333.92 0 0 0 0 0
355 1 3 31.1018 -1330.56 0 0 0 0 0
356 1 3 31.1018 -1327.2 0 0 0 0 0
357 1 3 31.1018 -1323.84 0 0 0 0 0
358 1 3 31.1018 -1320.48 0 0 0 0 0
359 1 3 31.1018 -1317.12 0 0 0 0 0
360 1 3 31.1018 -1313.76 0 0 0 0 0
361 1 3 31.1018 -1310.4 0 0 0 0 0
362 1 3 31.1018 -1307.04 0 0 0 0 0
363 1 3 31.1018 -1303.68 0 0 0 0 0
364 1 3 31.1018 -1300.32 0 0 0 0 0
365 1 3 31.1018 -1296.96 0 0 0 0 0
366 1 3 31.1018 -1293.6 0 0 0 0 0
367 1 3 31.1018 -1290.24 0 0 0 0 0
368 1 3 31.1018 -1286.88 0 0 0 0 0
369 1 3 31.1018 -1283.52 0 0 0 0 0
370 1 3 31.1018 -1280.16 0 0 0 0 0
371 1 3 31.1018 -1276.8 0 0 0 0 0
372 1 3 31.1018 -1273.44 0 0 0 0 0
373 1 3 31.1018 -1270.08 0 0 0 0 0
374 1 3 31.1018 -1266.72 0 0 0 0 0
375 1 3 31.1018 -1263.36 0 0 0 0 0
1501 2 3 31.1018 -1500 0 2.9957 0 0 -1000
1502 2 3 31.1018 -1497 0 2.9957 0 0 -1000
1503 2 3 31.1018 -1494 0 2.9957 0 0 -1000
1504 2 3 31.1018 -1491 0 2.9957 0 0 -1000
1505 2 3 31.1018 -1488 0 2.9957 0 0 -1000
1506 2 3 31.1018 -1485 0 2.9957 197.397 0 4220.83
1507 2 3 31.1018 -1482 0 2.9957 0 0 -1000
1508 2 3 31.1018 -1479 0 2.9957 0 0 -1000
1509 2 3 31.1018 -1476 0 2.9957 0 0 -1000
1510 2 3 31.1018 -1473 0 2.9957 0 0 -1000
1511 2 3 31.1018 -1470 0 2.9957 0 0 -1000
1512 2 3 31.1018 -1467 0 2.9957 0 0 -1000
1513 2 3 31.1018 -1464 0 2.9957 0 0 -1000
1514 2 3 31.1018 -1461 0 2.9957 0 0 -1000
1515 2 3 31.1018 -1458 0 2.9957 0 0 -1000
1516 2 3 31.1018 -1455 0 2.9957 -197.397 0 4220.83
1517 2 3 31.1018 -1452 0 2.9957 0 0 -1000
1518 2 3 31.1018 -1449 0 2.9957 0 0 -1000
1519 2 3 31.1018 -1446 0 2.9957 0 0 -1000
1520 2 3 31.1018 -1443 0 2.9957 0 0 -1000
1521 2 3 31.1018 -1440 0 2.9957 0 0 -1000
1522 2 3 31.1018 -1437 0 2.9957 0 0 -1000
1523 2 3 31.1018 -1434 0 2.9957 0 0 -1000
1524 2 3 31.1018 -1431 0 2.9957 0 0 -1000
1525 2 3 31.1018 -1428 0 2.9957 -3.27175e-13 0 16860
1526 2 3 31.1018 -1425 0 2.9957 0 0 -1000
1527 2 3 31.1018 -1422 0 2.9957 0 0 -1000
1528 2 3 31.1018 -1419 0 2.9957 0 0 -1000
1529 2 3 31.1018 -1416 0 2.9957 0 0 -1000
1530 2 3 31.1018 -1413 0 2.9957 0 0 -1000
1531 2 3 31.1018 -1410 0 2.9957 0 0 -1000
1532 2 3 31.1018 -1407 0 2.9957 0 0 -1000
1533 2 3 31.1018 -1404 0 2.9957 0 0 -1000
1534 2 3 31.1018 -1401 0 2.9957 197.397 0 4220.83
1535 2 3 31.1018 -1398 0 2.9957 0 0 -1000
1536 2 3 31.1018 -1395 0 2.9957 0 0 -1000
1537 2 3 31.1018 -1392 0 2.9957 0 0 -1000
1538 2 3 31.1018 -1389 0 2.9957 0 0 -1000
1539 2 3 31.1018 -1386 0 2.9957 0 0 -1000
1540 2 3 31.1018 -1383 0 2.9957 0 0 -1000
1541 2 3 31.1018 -1380 0 2.9957 0 0 -1000
1542 2 3 31.1018 -1377 0 2.9957 0 0 -1000
1543 2 3 31.1018 -1374 0 2.9957 0 0 -1000
1544 2 3 31.1018 -1371 0 2.9957 -197.397 0 4220.83
1545 2 3 31.1018 -1368 0 2.9957 0 0 -1000
1546 2 3 31.1018 -1365 0 2.9957 0 0 -1000
1547 2 3 31.1018 -1362 0 2.9957 0 0 -1000
1548 2 3 31.1018 -1359 0 2.9957 0 0 -1000
1549 2 3 31.1018 -1356 0 2.9957 0 0 -1000
1550 2 3 31.1018 -1353 0 2.9957 0 0 -1000
1551 2 3 31.1018 -1350 0 2.9957 0 0 -1000
1552 2 3 31.1018 -1347 0 2.9957 0 0 -1000
1553 2 3 31.1018 -1344 0 2.9957 -3.27175e-13 0 16860
1554 2 3 31.1018 -1341 0 2.9957 0 0 -1000
1555 2 3 31.1018 -1338 0 2.9957 0 0 -1000
1556 2 3 31.1018 -1335 0 2.9957 0 0 -1000
1557 2 3 31.1018 -1332 0 2.9957 0 0 -1000
1558 2 3 31.1018 -1329 0 2.9957 0 0 -1000
1559 2 3 31.1018 -1326 0 2.9957 0 0 -1000
1560 2 3 31.1018 -1323 0 2.9957 0 0 -1000
1561 2 3 31.1018 -1320 0 2.9957 0 0 -1000
1562 2 3 31.1018 -1317 0 2.9957 197.397 0 4220.83
1563 2 3 31.1018 -1314 0 2.9957 0 0 -1000
1564 2 3 31.1018 -1311 0 2.9957 0 0 -1000
1565 2 3 31.1018 -1308 0 2.9957 0 0 -1000
1566 2 3 31.1018 -1305 0 2.9957 0 0 -1000
1567 2 3 31.1018 -1302 0 2.9957 0 0 -1000
1568 2 3 31.1018 -1299 0 2.9957 0 0 -1000
1569 2 3 31.1018 -1296 0 2.9957 0 0 -1000
1570 2 3 31.1018 -1293 0 2.9957 0 0 -1000
1571 2 3 31.1018 -1290 0 2.9957 0 0 -1000
1572 2 3 31.1018 -1287 0 2.9957 -197.397 0 4220.83
1573 2 3 31.1018 -1284 0 2.9957 0 0 -1000
1574 2 3 31.1018 -1281 0 2.9957 0 0 -1000
1575 2 3 31.1018 -1278 0 2.9957 0 0 -1000
1576 2 3 31.1018 -1275 0 2.9957 0 0 -1000
1577 2 3 31.1018 -1272 0 2.9957 0 0 -1000
1578 2 3 31.1018 -1269 0 2.9957 0 0 -1000
1579 2 3 31.1018 -1266 0 2.9957 0 0 -1000
1580 2 3 31.1018 -1263 0 2.9957 0 0 -1000
376 1 3 31.1018 -1260 0 0 0 0 0
377 1 3 31.1018 -1256.64 0 0 0 0 0
378 1 3 31.1018 -1253.28 0 0 0 0 0
379 1 3 31.1018 -1249.92 0 0 0 0 0
380 1 3 31.1018 -1246.56 0 0 0 0 0
381 1 3 31.1018 -1243.2 0 0 0 0 0
382 1 3 31.1018 -1239.84 0 0 0 0 0
383 1 3 31.1018 -1236.48 0 0 0 0 0
384 1 3 31.1018 -1233.12 0 0 0 0 0
385 1 3 31.1018 -1229.76 0 0 0 0 0
386 1 3 31.1018 -1226.4 0 0 0 0 0
387 1 3 31.1018 -1223.04 0 0 0 0 0
388 1 3 31.1018 -1219.68 0 0 0 0 0
389 1 3 31.1018 -1216.32 0 0 0 0 0
390 1 3 31.1018 -1212.96 0 0 0 0 0
391 1 3 31.1018 -1209.6 0 0 0 0 0
392 1 3 31.1018 -1206.24 0 0 0 0 0
393 1 3 31.1018 -1202.88 0 0 0 0 0
394 1 3 31.1018 -1199.52 0 0 0 0 0
395 1 3 31.1018 -1196.16 0 0 0 0 0
396 1 3 31.1018 -1192.8 0 0 0 0 0
397 1 3 31.1018 -1189.44 0 0 0 0 0
398 1 3 31.1018 -1186.08 0 0 0 0 0
399 1 3 31.1018 -1182.72 0 0 0 0 0
400 1 3 31.1018 -1179.36 0 0 0 0 0
401 1 3 31.1018 -1176 0 0 0 0 0
402 1 3 31.1018 -1172.64 0 0 0 0 0
403 1 3 31.1018 -1169.28 0 0 0 0 0
404 1 3 31.1018 -1165.92 0 0 0 0 0
405 1 3 31.1018 -1162.56 0 0 0 0 0
406 1 3 31.1018 -1159.2 0 0 0 0 0
407 1 3 31.1018 -1155.84 0 0 0 0 0
408 1 3 31.1018 -1152.48 0 0 0 0 0
409 1 3 31.1018 -1149.12 0 0 0 0 0
410 1 3 31.1018 -1145.76 0 0 0 0 0
411 1 3 31.1018 -1142.4 0 0 0 0 0
412 1 3 31.1018 -1139.04 0 0 0 0 0
413 1 3 31.1018 -1135.68 0 0 0 0 0
414 1 3 31.1018 -1132.32 0 0 0 0 0
415 1 3 31.1018 -1128.96 0 0 0 0 0
416 1 3 31.1018 -1125.6 0 0 0 0 0
417 1 3 31.1018 -1122.24 0 0 0 0 0
418 1 3 31.1018 -1118.88 0 0 0 0 0
419 1 3 31.1018 -1115.52 0 0 0 0 0
420 1 3 31.1018 -1112.16 0 0 0 0 0
421 1 3 31.1018 -1108.8 0 0 0 0 0
422 1 3 31.1018 -1105.44 0 0 0 0 0
423 1 3 31.1018 -1102.08 0 0 0 0 0
424 1 3 31.1018 -1098.72 0 0 0 0 0
425 1 3 31.1018 -1095.36 0 0 0 0 0
426 1 3 31.1018 -1092 0 0 0 0 0
427 1 3 31.1018 -1088.64 0 0 0 0 0
428 1 3 31.1018 -1085.28 0 0 0 0 0
429 1 3 31.1018 -1081.92 0 0 0 0 0
430 1 3 31.1018 -1078.56 0 0 0 0 0
431 1 3 31.1018 -1075.2 0 0 0 0 0
432 1 3 31.1018 -1071.84 0 0 0 0 0
433 1 3 31.1018 -1068.48 0 0 0 0 0
434 1 3 31.1018 -1065.12 0 0 0 0 0
435 1 3 31.1018 -1061.76 0 0 0 0 0
436 1 3 31.1018 -1058.4 0 0 0 0 0
437 1 3 31.1018 -1055.04 0 0 0 0 0
438 1 3 31.1018 -1051.68 0 0 0 0 0
439 1 3 31.1018 -1048.32 0 0 0 0 0
440 1 3 31.1018 -1044.96 0 0 0 0 0
441 1 3 31.1018 -1041.6 0 0 0 0 0
442 1 3 31.1018 -1038.24 0 0 0 0 0
443 1 3 31.1018 -1034.88 0 0 0 0 0
444 1 3 31.1018 -1031.52 0 0 0 0 0
445 1 3 31.1018 -1028.16 0 0 0 0 0
446 1 3 31.1018 -1024.8 0 0 0 0 0
447 1 3 31.1018 -1021.44 0 0 0 0 0
448 1 3 31.1018 -1018.08 0 0 0 0 0
449 1 3 31.1018 -1014.72 0 0 0 0 0
450 1 3 31.1018 -1011.36 0 0 0 0 0
451 1 3 31.1018 -1008 0 0 0 0 0
452 1 3 31.1018 -1004.64 0 0 0 0 0
453 1 3 31.1018 -1001.28 0 0 0 0 0
454 1 3 31.1018 -997.92 0 0 0 0 0
455 1 3 31.1018 -994.56 0 0 0 0 0
456 1 3 31.1018 -991.2 0 0 0 0 0
457 1 3 31.1018 -987.84 0 0 0 0 0
458 1 3 31.1018 -984.48 0 0 0 0 0
459 1 3 31.1018 -981.12 0 0 0 0 0
460 1 3 31.1018 -977.76 0 0 0 0 0
461 1 3 31.1018 -974.4 0 0 0 0 0
462 1 3 31.1018 -971.04 0 0 0 0 0
463 1 3 31.1018 -967.68 0 0 0 0 0
464 1 3 31.1018 -964.32 0 0 0 0 0
465 1 3 31.1018 -960.96 0 0 0 0 0
466 1 3 31.1018 -957.6 0 0 0 0 0
467 1 3 31.1018 -954.24 0 0 0 0 0
468 1 3 31.1018 -950.88 0 0 0 0 0
469 1 3 31.1018 -947.52 0 0 0 0 0
470 1 3 31.1018 -944.16 0 0 0 0 0
471 1 3 31.1018 -940.8 0 0 0 0 0
472 1 3 31.1018 -937.44 0 0 0 0 0
473 1 3 31.1018 -934.08 0 0 0 0 0
474 1 3 31.1018 -930.72 0 0 0 0 0
475 1 3 31.1018 -927.36 0 0 0 0 0
476 1 3 31.1018 -924 0 0 0 0 0
477 1 3 31.1018 -920.64 0 0 0 0 0
478 1 3 31.1018 -917.28 0 0 0 0 0
479 1 3 31.1018 -913.92 0 0 0 0 0
480 1 3 31.1018 -910.56 0 0 0 0 0
481 1 3 31.1018 -907.2 0 0 0 0 0
482 1 3 31.1018 -903.84 0 0 0 0 0
483 1 3 31.1018 -900.48 0 0 0 0 0
484 1 3 31.1018 -897.12 0 0 0 0 0
485 1 3 31.1018 -893.76 0 0 0 0 0
486 1 3 31.1018 -890.4 0 0 0 0 0
487 1 3 31.1018 -887.04 0 0 0 0 0
488 1 3 31.1018 -883.68 0 0 0 0 0
489 1 3 31.1018 -880.32 0 0 0 0 0
490 1 3 31.1018 -876.96 0 0 0 0 0
491 1 3 31.1018 -873.6 0 0 0 0 0
492 1 3 31.1018 -870.24 0 0 0 0 0
493 1 3 31.1018 -866.88 0 0 0 0 0
494 1 3 31.1018 -863.52 0 0 0 0 0
495 1 3 31.1018 -860.16 0 0 0 0 0
496 1 3 31.1018 -856.8 0 0 0 0 0
497 1 3 31.1018 -853.44 0 0 0 0 0
498 1 3 31.1018 -850.08 0 0 0 0 0
499 1 3 31.1018 -846.72 0 0 0 0 0
500 1 3 31.1018 -843.36 0 0 0 0 0
501 1 3 31.1018 -840 0 0 0 0 0
502 1 3 31.1018 -836.64 0 0 0 0 0
503 1 3 31.1018 -833.28 0 0 0 0 0
504 1 3 31.1018 -829.92 0 0 0 0 0
505 1 3 31.1018 -826.56 0 0 0 0 0
506 1 3 31.1018 -823.2 0 0 0 0 0
507 1 3 31.1018 -819.84 0 0 0 0 0
508 1 3 31.1018 -816.48 0 0 0 0 0
509 1 3 31.1018 -813.12 0 0 0 0 0
510 1 3 31.1018 -809.76 0 0 0 0 0
511 1 3 31.1018 -806.4 0 0 0 0 0
512 1 3 31.1018 -803.04 0 0 0 0 0
513 1 3 31.1018 -799.68 0 0 0 0 0
514 1 3 31.1018 -796.32 0 0 0 0 0
515 1 3 31.1018 -792.96 0 0 0 0 0
516 1 3 31.1018 -789.6 0 0 0 0 0
517 1 3 31.1018 -786.24 0 0 0 0 0
518 1 3 31.1018 -782.88 0 0 0 0 0
519 1 3 31.1018 -779.52 0 0 0 0 0
520 1 3 31.1018 -776.16 0 0 0 0 0
521 1 3 31.1018 -772.8 0 0 0 0 0
522 1 3 31.1018 -769.44 0 0 0 0 0
523 1 3 31.1018 -766.08 0 0 0 0 0
524 1 3 31.1018 -762.72 0 0 0 0 0
525 1 3 31.1018 -759.36 0 0 0 0 0
526 1 3 31.1018 -756 0 0 0 0 0
527 1 3 31.1018 -752.64 0 0 0 0 0
528 1 3 31.1018 -749.28 0 0 0 0 0
529 1 3 31.1018 -745.92 0 0 0 0 0
530 1 3 31.1018 -742.56 0 0 0 0 0
531 1 3 31.1018 -739.2 0 0 0 0 0
532 1 3 31.1018 -735.84 0 0 0 0 0
533 1 3 31.1018 -732.48 0 0 0 0 0
534 1 3 31.1018 -729.12 0 0 0 0 0
535 1 3 31.1018 -725.76 0 0 0 0 0
536 1 3 31.1018 -722.4 0 0 0 0 0
537 1 3 31.1018 -719.04 0 0 0 0 0
538 1 3 31.1018 -715.68 0 0 0 0 0
539 1 3 31.1018 -712.32 0 0 0 0 0
540 1 3 31.1018 -708.96 0 0 0 0 0
541 1 3 31.1018 -705.6 0 0 0 0 0
542 1 3 31.1018 -702.24 0 0 0 0 0
543 1 3 31.1018 -698.88 0 0 0 0 0
544 1 3 31.1018 -695.52 0 0 0 0 0
545 1 3 31.1018 -692.16 0 0 0 0 0
546 1 3 31.1018 -688.8 0 0 0 0 0
547 1 3 31.1018 -685.44 0 0 0 0 0
548 1 3 31.1018 -682.08 0 0 0 0 0
549 1 3 31.1018 -678.72 0 0 0 0 0
550 1 3 31.1018 -675.36 0 0 0 0 0
551 1 3 31.1018 -672 0 0 0 0 0
552 1 3 31.1018 -668.64 0 0 0 0 0
553 1 3 31.1018 -665.28 0 0 0 0 0
554 1 3 31.1018 -661.92 0 0 0 0 0
555 1 3 31.1018 -658.56 0 0 0 0 0
556 1 3 31.1018 -655.2 0 0 0 0 0
557 1 3 31.1018 -651.84 0 0 0 0 0
558 1 3 31.1018 -648.48 0 0 0 0 0
559 1 3 31.1018 -645.12 0 0 0 0 0
560 1 3 31.1018 -641.76 0 0 0 0 0
561 1 3 31.1018 -638.4 0 0 0 0 0
562 1 3 31.1018 -635.04 0 0 0 0 0
563 1 3 31.1018 -631.68 0 0 0 0 0
564 1 3 31.1018 -628.32 0 0 0 0 0
565 1 3 31.1018 -624.96 0 0 0 0 0
566 1 3 31.1018 -621.6 0 0 0 0 0
567 1 3 31.1018 -618.24 0 0 0 0 0
568 1 3 31.1018 -614.88 0 0 0 0 0
569 1 3 31.1018 -611.52 0 0 0 0 0
570 1 3 31.1018 -608.16 0 0 0 0 0
571 1 3 31.1018 -604.8 0 0 0 0 0
572 1 3 31.1018 -601.44 0 0 0 0 0
573 1 3 31.1018 -598.08 0 0 0 0 0
574 1 3 31.1018 -594.72 0 0 0 0 0
575 1 3 31.1018 -591.36 0 0 0 0 0
576 1 3 31.1018 -588 0 0 0 0 0
577 1 3 31.1018 -584.64 0 0 0 0 0
578 1 3 31.1018 -581.28 0 0 0 0 0
579 1 3 31.1018 -577.92 0 0 0 0 0
580 1 3 31.1018 -574.56 0 0 0 0 0
581 1 3 31.1018 -571.2 0 0 0 0 0
582 1 3 31.1018 -567.84 0 0 0 0 0
583 1 3 31.1018 -564.48 0 0 0 0 0
584 1 3 31.1018 -561.12 0 0 0 0 0
585 1 3 31.1018 -557.76 0 0 0 0 0
586 1 3 31.1018 -554.4 0 0 0 0 0
587 1 3 31.1018 -551.04 0 0 0 0 0
588 1 3 31.1018 -547.68 0 0 0 0 0
589 1 3 31.1018 -544.32 0 0 0 0 0
590 1 3 31.1018 -540.96 0 0 0 0 0
591 1 3 31.1018 -537.6 0 0 0 0 0
592 1 3 31.1018 -534.24 0 0 0 0 0
593 1 3 31.1018 -530.88 0 0 0 0 0
594 1 3 31.1018 -527.52 0 0 0 0 0
595 1 3 31.1018 -524.16 0 0 0 0 0
596 1 3 31.1018 -520.8 0 0 0 0 0
597 1 3 31.1018 -517.44 0 0 0 0 0
598 1 3 31.1018 -514.08 0 0 0 0 0
599 1 3 31.1018 -510.72 0 0 0 0 0
600 1 3 31.1018 -507.36 0 0 0 0 0
601 1 3 31.1018 -504 0 0 0 0 0
602 1 3 31.1018 -500.64 0 0 0 0 0
603 1 3 31.1018 -497.28 0 0 0 0 0
604 1 3 31.1018 -493.92 0 0 0 0 0
605 1 3 31.1018 -490.56 0 0 0 0 0
606 1 3 31.1018 -487.2 0 0 0 0 0
607 1 3 31.1018 -483.84 0 0 0 0 0
608 1 3 31.1018 -480.48 0 0 0 0 0
609 1 3 31.1018 -477.12 0 0 0 0 0
610 1 3 31.1018 -473.76 0 0 0 0 0
611 1 3 31.1018 -470.4 0 0 0 0 0
612 1 3 31.1018 -467.04 0 0 0 0 0
613 1 3 31.1018 -463.68 0 0 0 0 0
614 1 3 31.1018 -460.32 0 0 0 0 0
615 1 3 31.1018 -456.96 0 0 0 0 0
616 1 3 31.1018 -453.6 0 0 0 0 0
617 1 3 31.1018 -450.24 0 0 0 0 0
618 1 3 31.1018 -446.88 0 0 0 0 0
619 1 3 31.1018 -443.52 0 0 0 0 0
620 1 3 31.1018 -440.16 0 0 0 0 0
621 1 3 31.1018 -436.8 0 0 0 0 0
622 1 3 31.1018 -433.44 0 0 0 0 0
623 1 3 31.1018 -430.08 0 0 0 0 0
624 1 3 31.1018 -426.72 0 0 0 0 0
625 1 3 31.1018 -423.36 0 0 0 0 0
626 1 3 31.1018 -420 0 0 0 0 0
627 1 3 31.1018 -416.64 0 0 0 0 0
628 1 3 31.1018 -413.28 0 0 0 0 0
629 1 3 31.1018 -409.92 0 0 0 0 0
630 1 3 31.1018 -406.56 0 0 0 0 0
631 1 3 31.1018 -403.2 0 0 0 0 0
632 1 3 31.1018 -399.84 0 0 0 0 0
633 1 3 31.1018 -396.48 0 0 0 0 0
634 1 3 31.1018 -393.12 0 0 0 0 0
635 1 3 31.1018 -389.76 0 0 0 0 0
636 1 3 31.1018 -386.4 0 0 0 0 0
637 1 3 31.1018 -383.04 0 0 0 0 0
638 1 3 31.1018 -379.68 0 0 0 0 0
639 1 3 31.1018 -376.32 0 0 0 0 0
640 1 3 31.1018 -372.96 0 0 0 0 0
641 1 3 31.1018 -369.6 0 0 0 0 0
642 1 3 31.1018 -366.24 0 0 0 0 0
643 1 3 31.1018 -362.88 0 0 0 0 0
644 1 3 31.1018 -359.52 0 0 0 0 0
645 1 3 31.1018 -356.16 0 0 0 0 0
646 1 3 31.1018 -352.8 0 0 0 0 0
647 1 3 31.1018 -349.44 0 0 0 0 0
648 1 3 31.1018 -346.08 0 0 0 0 0
649 1 3 31.1018 -342.72 0 0 0 0 0
650 1 3 31.1018 -339.36 0 0 0 0 0
651 1 3 31.1018 -336 0 0 0 0 0
652 1 3 31.1018 -332.64 0 0 0 0 0
653 1 3 31.1018 -329.28 0 0 0 0 0
654 1 3 31.1018 -325.92 0 0 0 0 0
655 1 3 31.1018 -322.56 0 0 0 0 0
656 1 3 31.1018 -319.2 0 0 0 0 0
657 1 3 31.1018 -315.84 0 0 0 0 0
658 1 3 31.1018 -312.48 0 0 0 0 0
659 1 3 31.1018 -309.12 0 0 0 0 0
660 1 3 31.1018 -305.76 0 0 0 0 0
661 1 3 31.1018 -302.4 0 0 0 0 0
662 1 3 31.1018 -299.04 0 0 0 0 0
663 1 3 31.1018 -295.68 0 0 0 0 0
664 1 3 31.1018 -292.32 0 0 0 0 0
665 1 3 31.1018 -288.96 0 0 0 0 0
666 1 3 31.1018 -285.6 0 0 0 0 0
667 1 3 31.1018 -282.24 0 0 0 0 0
668 1 3 31.1018 -278.88 0 0 0 0 0
669 1 3 31.1018 -275.52 0 0 0 0 0
670 1 3 31.1018 -272.16 0 0 0 0 0
671 1 3 31.1018 -268.8 0 0 0 0 0
672 1 3 31.1018 -265.44 0 0 0 0 0
673 1 3 31.1018 -262.08 0 0 0 0 0
674 1 3 31.1018 -258.72 0 0 0 0 0
675 1 3 31.1018 -255.36 0 0 0 0 0
676 1 3 31.1018 -252 0 0 0 0 0
677 1 3 31.1018 -248.64 0 0 0 0 0
678 1 3 31.1018 -245.28 0 0 0 0 0
679 1 3 31.1018 -241.92 0 0 0 0 0
680 1 3 31.1018 -238.56 0 0 0 0 0
681 1 3 31.1018 -235.2 0 0 0 0 0
682 1 3 31.1018 -231.84 0 0 0 0 0
683 1 3 31.1018 -228.48 0 0 0 0 0
684 1 3 31.1018 -225.12 0 0 0 0 0
685 1 3 31.1018 -221.76 0 0 0 0 0
686 1 3 31.1018 -218.4 0 0 0 0 0
687 1 3 31.1018 -215.04 0 0 0 0 0
688 1 3 31.1018 -211.68 0 0 0 0 0
689 1 3 31.1018 -208.32 0 0 0 0 0
690 1 3 31.1018 -204.96 0 0 0 0 0
691 1 3 31.1018 -201.6 0 0 0 0 0
692 1 3 31.1018 -198.24 0 0 0 0 0
693 1 3 31.1018 -194.88 0 0 0 0 0
694 1 3 31.1018 -191.52 0 0 0 0 0
695 1 3 31.1018 -188.16 0 0 0 0 0
696 1 3 31.1018 -184.8 0 0 0 0 0
697 1 3 31.1018 -181.44 0 0 0 0 0
698 1 3 31.1018 -178.08 0 0 0 0 0
699 1 3 31.1018 -174.72 0 0 0 0 0
700 1 3 31.1018 -171.36 0 0 0 0 0
701 1 3 31.1018 -168 0 0 0 0 0
702 1 3 31.1018 -164.64 0 0 0 0 0
703 1 3 31.1018 -161.28 0 0 0 0 0
704 1 3 31.1018 -157.92 0 0 0 0 0
705 1 3 31.1018 -154.56 0 0 0 0 0
706 1 3 31.1018 -151.2 0 0 0 0 0
707 1 3 31.1018 -147.84 0 0 0 0 0
708 1 3 31.1018 -144.48 0 0 0 0 0
709 1 3 31.1018 -141.12 0 0 0 0 0
710 1 3 31.1018 -137.76 0 0 0 0 0
711 1 3 31.1018 -134.4 0 0 0 0 0
712 1 3 31.1018 -131.04 0 0 0 0 0
713 1 3 31.1018 -127.68 0 0 0 0 0
714 1 3 31.1018 -124.32 0 0 0 0 0
715 1 3 31.1018 -120.96 0 0 0 0 0
716 1 3 31.1018 -117.6 0 0 0 0 0
717 1 3 31.1018 -114.24 0 0 0 0 0
718 1 3 31.1018 -110.88 0 0 0 0 0
719 1 3 31.1018 -107.52 0 0 0 0 0
720 1 3 31.1018 -104.16 0 0 0 0 0
721 1 3 31.1018 -100.8 0 0 0 0 0
722 1 3 31.1018 -97.44 0 0 0 0 0
723 1 3 31.1018 -94.08 0 0 0 0 0
724 1 3 31.1018 -90.72 0 0 0 0 0
725 1 3 31.1018 -87.36 0 0 0 0 0
726 1 3 31.1018 -84 0 0 0 0 0
727 1 3 31.1018 -80.64 0 0 0 0 0
728 1 3 31.1018 -77.28 0 0 0 0 0
729 1 3 31.1018 -73.92 0 0 0 0 0
730 1 3 31.1018 -70.56 0 0 0 0 0
731 1 3 31.1018 -67.2 0 0 0 0 0
732 1 3 31.1018 -63.84 0 0 0 0 0
733 1 3 31.1018 -60.48 0 0 0 0 0
734 1 3 31.1018 -57.12 0 0 0 0 0
735 1 3 31.1018 -53.76 0 0 0 0 0
736 1 3 31.1018 -50.4 0 0 0 0 0
737 1 3 31.1018 -47.04 0 0 0 0 0
738 1 3 31.1018 -43.68 0 0 0 0 0
739 1 3 31.1018 -40.32 0 0 0 0 0
740 1 3 31.1018 -36.96 0 0 0 0 0
741 1 3 31.1018 -33.6 0 0 0 0 0
742 1 3 31.1018 -30.24 0 0 0 0 0
743 1 3 31.1018 -26.88 0 0 0 0 0
744 1 3 31.1018 -23.52 0 0 0 0 0
745 1 3 31.1018 -20.16 0 0 0 0 0
746 1 3 31.1018 -16.8 0 0 0 0 0
747 1 3 31.1018 -13.44 0 0 0 0 0
748 1 3 31.1018 -10.08 0 0 0 0 0
749 1 3 31.1018 -6.72 0 0 0 0 0
750 1 3 31.1018 -3.36 0 0 0 0 0
1581 2 3 31.1018 -1260 0 2.9957 -3.27175e-13 0 16860
1582 2 3 31.1018 -1257 0 2.9957 0 0 -1000
1583 2 3 31.1018 -1254 0 2.9957 0 0 -1000
1584 2 3 31.1018 -1251 0 2.9957 0 0 -1000
1585 2 3 31.1018 -1248 0 2.9957 0 0 -1000
1586 2 3 31.1018 -1245 0 2.9957 0 0 -1000
1587 2 3 31.1018 -1242 0 2.9957 0 0 -1000
1588 2 3 31.1018 -1239 0 2.9957 0 0 -1000
1589 2 3 31.1018 -1236 0 2.9957 0 0 -1000
1590 2 3 31.1018 -1233 0 2.9957 197.397 0 4220.83
1591 2 3 31.1018 -1230 0 2.9957 0 0 -1000
1592 2 3 31.1018 -1227 0 2.9957 0 0 -1000
1593 2 3 31.1018 -1224 0 2.9957 0 0 -1000
1594 2 3 31.1018 -1221 0 2.9957 0 0 -1000
1595 2 3 31.1018 -1218 0 2.9957 0 0 -1000
1596 2 3 31.1018 -1215 0 2.9957 0 0 -1000