ITEM: TIMESTEP
300000
ITEM: NUMBER OF ATOMS
2501
ITEM: BOX BOUNDS pp pp pp
-2.3850000000000000e+03 2.3850000000000000e+03
-1.0000000000000000e+02 1.0000000000000000e+02
-1.0000000000000000e+02 1.0000000000000000e+02
ITEM: ATOMS id type diameter mass xu yu zu fx fy fz
1 1 3 31.1018 -2385 0 0 0 0 0
2 1 3 31.1018 -2381.82 0 0 0 0 0
3 1 3 31.1018 -2378.64 0 0 0 0 0
4 1 3 31.1018 -2375.46 0 0 0 0 0
5 1 3 31.1018 -2372.28 0 0 0 0 0
6 1 3 31.1018 -2369.1 0 0 0 0 0
7 1 3 31.1018 -2365.92 0 0 0 0 0
8 1 3 31.1018 -2362.74 0 0 0 0 0
9 1 3 31.1018 -2359.56 0 0 0 0 0
10 1 3 31.1018 -2356.38 0 0 0 0 0
11 1 3 31.1018 -2353.2 0 0 0 0 0
12 1 3 31.1018 -2350.02 0 0 0 0 0
13 1 3 31.1018 -2346.84 0 0 0 0 0
14 1 3 31.1018 -2343.66 0 0 0 0 0
15 1 3 31.1018 -2340.48 0 0 0 0 0
16 1 3 31.1018 -2337.3 0 0 0 0 0
17 1 3 31.1018 -2334.12 0 0 0 0 0
18 1 3 31.1018 -2330.94 0 0 0 0 0
19 1 3 31.1018 -2327.76 0 0 0 0 0
20 1 3 31.1018 -2324.58 0 0 0 0 0
21 1 3 31.1018 -2321.4 0 0 0 0 0
22 1 3 31.1018 -2318.22 0 0 0 0 0
23 1 3 31.1018 -2315.04 0 0 0 0 0
24 1 3 31.1018 -2311.86 0 0 0 0 0
25 1 3 31.1018 -2308.68 0 0 0 0 0
26 1 3 31.1018 -2305.5 0 0 0 0 0
27 1 3 31.1018 -2302.32 0 0 0 0 0
28 1 3 31.1018 -2299.14 0 0 0 0 0
29 1 3 31.1018 -2295.96 0 0 0 0 0
30 1 3 31.1018 -2292.78 0 0 0 0 0
31 1 3 31.1018 -2289.6 0 0 0 0 0
32 1 3 31.1018 -2286.42 0 0 0 0 0
33 1 3 31.1018 -2283.24 0 0 0 0 0
34 1 3 31.1018 -2280.06 0 0 0 0 0
35 1 3 31.1018 -2276.88 0 0 0 0 0
36 1 3 31.1018 -2273.7 0 0 0 0 0
37 1 3 31.1018 -2270.52 0 0 0 0 0
38 1 3 31.1018 -2267.34 0 0 0 0 0
39 1 3 31.1018 -2264.16 0 0 0 0 0
40 1 3 31.1018 -2260.98 0 0 0 0 0
41 1 3 31.1018 -2257.8 0 0 0 0 0
42 1 3 31.1018 -2254.62 0 0 0 0 0
43 1 3 31.1018 -2251.44 0 0 0 0 0
44 1 3 31.1018 -2248.26 0 0 0 0 0
45 1 3 31.1018 -2245.08 0 0 0 0 0
46 1 3 31.1018 -2241.9 0 0 0 0 0
47 1 3 31.1018 -2238.72 0 0 0 0 0
48 1 3 31.1018 -2235.54 0 0 0 0 0
49 1 3 31.1018 -2232.36 0 0 0 0 0
50 1 3 31.1018 -2229.18 0 0 0 0 0
51 1 3 31.1018 -2226 0 0 0 0 0
52 1 3 31.1018 -2222.82 0 0 0 0 0
53 1 3 31.1018 -2219.64 0 0 0 0 0
54 1 3 31.1018 -2216.46 0 0 0 0 0
55 1 3 31.1018 -2213.28 0 0 0 0 0
56 1 3 31.1018 -2210.1 0 0 0 0 0
57 1 3 31.1018 -2206.92 0 0 0 0 0
58 1 3 31.1018 -2203.74 0 0 0 0 0
59 1 3 31.1018 -2200.56 0 0 0 0 0
60 1 3 31.1018 -2197.38 0 0 0 0 0
61 1 3 31.1018 -2194.2 0 0 0 0 0
62 1 3 31.1018 -2191.02 0 0 0 0 0
63 1 3 31.1018 -2187.84 0 0 0 0 0
64 1 3 31.1018 -2184.66 0 0 0 0 0
65 1 3 31.1018 -2181.48 0 0 0 0 0
66 1 3 31.1018 -2178.3 0 0 0 0 0
67 1 3 31.1018 -2175.12 0 0 0 0 0
68 1 3 31.1018 -2171.94 0 0 0 0 0
69 1 3 31.1018 -2168.76 0 0 0 0 0
70 1 3 31.1018 -2165.58 0 0 0 0 0
71 1 3 31.1018 -2162.4 0 0 0 0 0
72 1 3 31.1018 -2159.22 0 0 0 0 0
73 1 3 31.1018 -2156.04 0 0 0 0 0
74 1 3 31.1018 -2152.86 0 0 0 0 0
75 1 3 31.1018 -2149.68 0 0 0 0 0
76 1 3 31.1018 -2146.5 0 0 0 0 0
77 1 3 31.1018 -2143.32 0 0 0 0 0
78 1 3 31.1018 -2140.14 0 0 0 0 0
79 1 3 31.1018 -2136.96 0 0 0 0 0
80 1 3 31.1018 -2133.78 0 0 0 0 0
81 1 3 31.1018 -2130.6 0 0 0 0 0
82 1 3 31.1018 -2127.42 0 0 0 0 0
83 1 3 31.1018 -2124.24 0 0 0 0 0
84 1 3 31.1018 -2121.06 0 0 0 0 0
85 1 3 31.1018 -2117.88 0 0 0 0 0
86 1 3 31.1018 -2114.7 0 0 0 0 0
87 1 3 31.1018 -2111.52 0 0 0 0 0
88 1 3 31.1018 -2108.34 0 0 0 0 0
89 1 3 31.1018 -2105.16 0 0 0 0 0
90 1 3 31.1018 -2101.98 0 0 0 0 0
91 1 3 31.1018 -2098.8 0 0 0 0 0
92 1 3 31.1018 -2095.62 0 0 0 0 0
93 1 3 31.1018 -2092.44 0 0 0 0 0
94 1 3 31.1018 -2089.26 0 0 0 0 0
95 1 3 31.1018 -2086.08 0 0 0 0 0
96 1 3 31.1018 -2082.9 0 0 0 0 0
97 1 3 31.1018 -2079.72 0 0 0 0 0
98 1 3 31.1018 -2076.54 0 0 0 0 0
99 1 3 31.1018 -2073.36 0 0 0 0 0
100 1 3 31.1018 -2070.18 0 0 0 0 0
101 1 3 31.1018 -2067 0 0 0 0 0
102 1 3 31.1018 -2063.82 0 0 0 0 0
103 1 3 31.1018 -2060.64 0 0 0 0 0
104 1 3 31.1018 -2057.46 0 0 0 0 0
105 1 3 31.1018 -2054.28 0 0 0 0 0
106 1 3 31.1018 -2051.1 0 0 0 0 0
107 1 3 31.1018 -2047.92 0 0 0 0 0
108 1 3 31.1018 -2044.74 0 0 0 0 0
109 1 3 31.1018 -2041.56 0 0 0 0 0
110 1 3 31.1018 -2038.38 0 0 0 0 0
111 1 3 31.1018 -2035.2 0 0 0 0 0
112 1 3 31.1018 -2032.02 0 0 0 0 0
113 1 3 31.1018 -2028.84 0 0 0 0 0
114 1 3 31.1018 -2025.66 0 0 0 0 0
115 1 3 31.1018 -2022.48 0 0 0 0 0
116 1 3 31.1018 -2019.3 0 0 0 0 0
117 1 3 31.1018 -2016.12 0 0 0 0 0
118 1 3 31.1018 -2012.94 0 0 0 0 0
119 1 3 31.1018 -2009.76 0 0 0 0 0
120 1 3 31.1018 -2006.58 0 0 0 0 0
121 1 3 31.1018 -2003.4 0 0 0 0 0
122 1 3 31.1018 -2000.22 0 0 0 0 0
123 1 3 31.1018 -1997.04 0 0 0 0 0
124 1 3 31.1018 -1993.86 0 0 0 0 0
125 1 3 31.1018 -1990.68 0 0 0 0 0
126 1 3 31.1018 -1987.5 0 0 0 0 0
127 1 3 31.1018 -1984.32 0 0 0 0 0
128 1 3 31.1018 -1981.14 0 0 0 0 0
129 1 3 31.1018 -1977.96 0 0 0 0 0
130 1 3 31.1018 -1974.78 0 0 0 0 0
131 1 3 31.1018 -1971.6 0 0 0 0 0
132 1 3 31.1018 -1968.42 0 0 0 0 0
133 1 3 31.1018 -1965.24 0 0 0 0 0
134 1 3 31.1018 -1962.06 0 0 0 0 0
135 1 3 31.1018 -1958.88 0 0 0 0 0
136 1 3 31.1018 -1955.7 0 0 0 0 0
137 1 3 31.1018 -1952.52 0 0 0 0 0
138 1 3 31.1018 -1949.34 0 0 0 0 0
139 1 3 31.1018 -1946.16 0 0 0 0 0
140 1 3 31.1018 -1942.98 0 0 0 0 0
141 1 3 31.1018 -1939.8 0 0 0 0 0
142 1 3 31.1018 -1936.62 0 0 0 0 0
143 1 3 31.1018 -1933.44 0 0 0 0 0
144 1 3 31.1018 -1930.26 0 0 0 0 0
145 1 3 31.1018 -1927.08 0 0 0 0 0
146 1 3 31.1018 -1923.9 0 0 0 0 0
147 1 3 31.1018 -1920.72 0 0 0 0 0
148 1 3 31.1018 -1917.54 0 0 0 0 0
149 1 3 31.1018 -1914.36 0 0 0 0 0
150 1 3 31.1018 -1911.18 0 0 0 0 0
151 1 3 31.1018 -1908 0 0 0 0 0
152 1 3 31.1018 -1904.82 0 0 0 0 0
153 1 3 31.1018 -1901.64 0 0 0 0 0
154 1 3 31.1018 -1898.46 0 0 0 0 0
155 1 3 31.1018 -1895.28 0 0 0 0 0
156 1 3 31.1018 -1892.1 0 0 0 0 0
157 1 3 31.1018 -1888.92 0 0 0 0 0
158 1 3 31.1018 -1885.74 0 0 0 0 0
159 1 3 31.1018 -1882.56 0 0 0 0 0
160 1 3 31.1018 -1879.38 0 0 0 0 0
161 1 3 31.1018 -1876.2 0 0 0 0 0
162 1 3 31.1018 -1873.02 0 0 0 0 0
163 1 3 31.1018 -1869.84 0 0 0 0 0
164 1 3 31.1018 -1866.66 0 0 0 0 0
165 1 3 31.1018 -1863.48 0 0 0 0 0
166 1 3 31.1018 -1860.3 0 0 0 0 0
167 1 3 31.1018 -1857.12 0 0 0 0 0
168 1 3 31.1018 -1853.94 0 0 0 0 0
169 1 3 31.1018 -1850.76 0 0 0 0 0
170 1 3 31.1018 -1847.58 0 0 0 0 0
171 1 3 31.1018 -1844.4 0 0 0 0 0
172 1 3 31.1018 -1841.22 0 0 0 0 0
173 1 3 31.1018 -1838.04 0 0 0 0 0
174 1 3 31.1018 -1834.86 0 0 0 0 0
175 1 3 31.1018 -1831.68 0 0 0 0 0
176 1 3 31.1018 -1828.5 0 0 0 0 0
177 1 3 31.1018 -1825.32 0 0 0 0 0
178 1 3 31.1018 -1822.14 0 0 0 0 0
179 1 3 31.1018 -1818.96 0 0 0 0 0
180 1 3 31.1018 -1815.78 0 0 0 0 0
181 1 3 31.1018 -1812.6 0 0 0 0 0
182 1 3 31.1018 -1809.42 0 0 0 0 0
183 1 3 31.1018 -1806.24 0 0 0 0 0
184 1 3 31.1018 -1803.06 0 0 0 0 0
185 1 3 31.1018 -1799.88 0 0 0 0 0
186 1 3 31.1018 -1796.7 0 0 0 0 0
187 1 3 31.1018 -1793.52 0 0 0 0 0
188 1 3 31.1018 -1790.34 0 0 0 0 0
189 1 3 31.1018 -1787.16 0 0 0 0 0
190 1 3 31.1018 -1783.98 0 0 0 0 0
191 1 3 31.1018 -1780.8 0 0 0 0 0
192 1 3 31.1018 -1777.62 0 0 0 0 0
193 1 3 31.1018 -1774.44 0 0 0 0 0
194 1 3 31.1018 -1771.26 0 0 0 0 0
195 1 3 31.1018 -1768.08 0 0 0 0 0
196 1 3 31.1018 -1764.9 0 0 0 0 0
197 1 3 31.1018 -1761.72 0 0 0 0 0
198 1 3 31.1018 -1758.54 0 0 0 0 0
199 1 3 31.1018 -1755.36 0 0 0 0 0
200 1 3 31.1018 -1752.18 0 0 0 0 0
201 1 3 31.1018 -1749 0 0 0 0 0
202 1 3 31.1018 -1745.82 0 0 0 0 0
203 1 3 31.1018 -1742.64 0 0 0 0 0
204 1 3 31.1018 -1739.46 0 0 0 0 0
205 1 3 31.1018 -1736.28 0 0 0 0 0
206 1 3 31.1018 -1733.1 0 0 0 0 0
207 1 3 31.1018 -1729.92 0 0 0 0 0
208 1 3 31.1018 -1726.74 0 0 0 0 0
209 1 3 31.1018 -1723.56 0 0 0 0 0
210 1 3 31.1018 -1720.38 0 0 0 0 0
211 1 3 31.1018 -1717.2 0 0 0 0 0
212 1 3 31.1018 -1714.02 0 0 0 0 0
213 1 3 31.1018 -1710.84 0 0 0 0 0
214 1 3 31.1018 -1707.66 0 0 0 0 0
215 1 3 31.1018 -1704.48 0 0 0 0 0
216 1 3 31.1018 -1701.3 0 0 0 0 0
217 1 3 31.1018 -1698.12 0 0 0 0 0
218 1 3 31.1018 -1694.94 0 0 0 0 0
219 1 3 31.1018 -1691.76 0 0 0 0 0
220 1 3 31.1018 -1688.58 0 0 0 0 0
221 1 3 31.1018 -1685.4 0 0 0 0 0
222 1 3 31.1018 -1682.22 0 0 0 0 0
223 1 3 31.1018 -1679.04 0 0 0 0 0
224 1 3 31.1018 -1675.86 0 0 0 0 0
225 1 3 31.1018 -1672.68 0 0 0 0 0
226 1 3 31.1018 -1669.5 0 0 0 0 0
227 1 3 31.1018 -1666.32 0 0 0 0 0
228 1 3 31.1018 -1663.14 0 0 0 0 0
229 1 3 31.1018 -1659.96 0 0 0 0 0
230 1 3 31.1018 -1656.78 0 0 0 0 0
231 1 3 31.1018 -1653.6 0 0 0 0 0
232 1 3 31.1018 -1650.42 0 0 0 0 0
233 1 3 31.1018 -1647.24 0 0 0 0 0
234 1 3 31.1018 -1644.06 0 0 0 0 0
235 1 3 31.1018 -1640.88 0 0 0 0 0
236 1 3 31.1018 -1637.7 0 0 0 0 0
237 1 3 31.1018 -1634.52 0 0 0 0 0
238 1 3 31.1018 -1631.34 0 0 0 0 0
239 1 3 31.1018 -1628.16 0 0 0 0 0
240 1 3 31.1018 -1624.98 0 0 0 0 0
241 1 3 31.1018 -1621.8 0 0 0 0 0
242 1 3 31.1018 -1618.62 0 0 0 0 0
243 1 3 31.1018 -1615.44 0 0 0 0 0
244 1 3 31.1018 -1612.26 0 0 0 0 0
245 1 3 31.1018 -1609.08 0 0 0 0 0
246 1 3 31.1018 -1605.9 0 0 0 0 0
247 1 3 31.1018 -1602.72 0 0 0 0 0
248 1 3 31.1018 -1599.54 0 0 0 0 0
249 1 3 31.1018 -1596.36 0 0 0 0 0
250 1 3 31.1018 -1593.18 0 0 0 0 0
251 1 3 31.1018 -1590 0 0 0 0 0
252 1 3 31.1018 -1586.82 0 0 0 0 0
253 1 3 31.1018 -1583.64 0 0 0 0 0
254 1 3 31.1018 -1580.46 0 0 0 0 0
255 1 3 31.1018 -1577.28 0 0 0 0 0
256 1 3 31.1018 -1574.1 0 0 0 0 0
257 1 3 31.1018 -1570.92 0 0 0 0 0
258 1 3 31.1018 -1567.74 0 0 0 0 0
259 1 3 31.1018 -1564.56 0 0 0 0 0
260 1 3 31.1018 -1561.38 0 0 0 0 0
261 1 3 31.1018 -1558.2 0 0 0 0 0
262 1 3 31.1018 -1555.02 0 0 0 0 0
263 1 3 31.1018 -1551.84 0 0 0 0 0
264 1 3 31.1018 -1548.66 0 0 0 0 0
265 1 3 31.1018 -1545.48 0 0 0 0 0
266 1 3 31.1018 -1542.3 0 0 0 0 0
267 1 3 31.1018 -1539.12 0 0 0 0 0
268 1 3 31.1018 -1535.94 0 0 0 0 0
269 1 3 31.1018 -1532.76 0 0 0 0 0
270 1 3 31.1018 -1529.58 0 0 0 0 0
271 1 3 31.1018 -1526.4 0 0 0 0 0
272 1 3 31.1018 -1523.22 0 0 0 0 0
273 1 3 31.1018 -1520.04 0 0 0 0 0
274 1 3 31.1018 -1516.86 0 0 0 0 0
275 1 3 31.1018 -1513.68 0 0 0 0 0
276 1 3 31.1018 -1510.5 0 0 0 0 0
277 1 3 31.1018 -1507.32 0 0 0 0 0
278 1 3 31.1018 -1504.14 0 0 0 0 0
279 1 3 31.1018 -1500.96 0 0 0 0 0
280 1 3 31.1018 -1497.78 0 0 0 0 0
281 1 3 31.1018 -1494.6 0 0 0 0 0
282 1 3 31.1018 -1491.42 0 0 0 0 0
283 1 3 31.1018 -1488.24 0 0 0 0 0
284 1 3 31.1018 -1485.06 0 0 0 0 0
285 1 3 31.1018 -1481.88 0 0 0 0 0
286 1 3 31.1018 -1478.7 0 0 0 0 0
287 1 3 31.1018 -1475.52 0 0 0 0 0
288 1 3 31.1018 -1472.34 0 0 0 0 0
289 1 3 31.1018 -1469.16 0 0 0 0 0
290 1 3 31.1018 -1465.98 0 0 0 0 0
291 1 3 31.1018 -1462.8 0 0 0 0 0
292 1 3 31.1018 -1459.62 0 0 0 0 0
293 1 3 31.1018 -1456.44 0 0 0 0 0
294 1 3 31.1018 -1453.26 0 0 0 0 0
295 1 3 31.1018 -1450.08 0 0 0 0 0
296 1 3 31.1018 -1446.9 0 0 0 0 0
297 1 3 31.1018 -1443.72 0 0 0 0 0
298 1 3 31.1018 -1440.54 0 0 0 0 0
299 1 3 31.1018 -1437.36 0 0 0 0 0
300 1 3 31.1018 -1434.18 0 0 0 0 0
301 1 3 31.1018 -1431 0 0 0 0 0
302 1 3 31.1018 -1427.82 0 0 0 0 0
303 1 3 31.1018 -1424.64 0 0 0 0 0
304 1 3 31.1018 -1421.46 0 0 0 0 0
305 1 3 31.1018 -1418.28 0 0 0 0 0
306 1 3 31.1018 -1415.1 0 0 0 0 0
307 1 3 31.1018 -1411.92 0 0 0 0 0
308 1 3 31.1018 -1408.74 0 0 0 0 0
309 1 3 31.1018 -1405.56 0 0 0 0 0
310 1 3 31.1018 -1402.38 0 0 0 0 0
311 1 3 31.1018 -1399.2 0 0 0 0 0
312 1 3 31.1018 -1396.02 0 0 0 0 0
313 1 3 31.1018 -1392.84 0 0 0 0 0
314 1 3 31.1018 -1389.66 0 0 0 0 0
315 1 3 31.1018 -1386.48 0 0 0 0 0
316 1 3 31.1018 -1383.3 0 0 0 0 0
317 1 3 31.1018 -1380.12 0 0 0 0 0
318 1 3 31.1018 -1376.94 0 0 0 0 0
319 1 3 31.1018 -1373.76 0 0 0 0 0
320 1 3 31.1018 -1370.58 0 0 0 0 0
321 1 3 31.1018 -1367.4 0 0 0 0 0
322 1 3 31.1018 -1364.22 0 0 0 0 0
323 1 3 31.1018 -1361.04 0 0 0 0 0
324 1 3 31.1018 -1357.86 0 0 0 0 0
325 1 3 31.1018 -1354.68 0 0 0 0 0
326 1 3 31.1018 -1351.5 0 0 0 0 0
327 1 3 31.1018 -1348.32 0 0 0 0 0
328 1 3 31.1018 -1345.14 0 0 0 0 0
329 1 3 31.1018 -1341.96 0 0 0 0 0
330 1 3 31.1018 -1338.78 0 0 0 0 0
331 1 3 31.1018 -1335.6 0 0 0 0 0
332 1 3 31.1018 -1332.42 0 0 0 0 0
333 1 3 31.1018 -1329.24 0 0 0 0 0
334 1 3 31.1018 -1326.06 0 0 0 0 0
335 1 3 31.1018 -1322.88 0 0 0 0 0
336 1 3 31.1018 -1319.7 0 0 0 0 0
337 1 3 31.1018 -1316.52 0 0 0 0 0
338 1 3 31.1018 -1313.34 0 0 0 0 0
339 1 3 31.1018 -1310.16 0 0 0 0 0
340 1 3 31.1018 -1306.98 0 0 0 0 0
341 1 3 31.1018 -1303.8 0 0 0 0 0
342 1 3 31.1018 -1300.62 0 0 0 0 0
343 1 3 31.1018 -1297.44 0 0 0 0 0
344 1 3 31.1018 -1294.26 0 0 0 0 0
345 1 3 31.1018 -1291.08 0 0 0 0 0
346 1 3 31.1018 -1287.9 0 0 0 0 0
347 1 3 31.1018 -1284.72 0 0 0 0 0
348 1 3 31.1018 -1281.54 0 0 0 0 0
349 1 3 31.1018 -1278.36 0 0 0 0 0
350 1 3 31.1018 -1275.18 0 0 0 0 0
351 1 3 31.1018 -1272 0 0 0 0 0
352 1 3 31.1018 -1268.82 0 0 0 0 0
353 1 3 31.1018 -1265.64 0 0 0 0 0
354 1 3 31.1018 -1262.46 0 0 0 0 0
355 1 3 31.1018 -1259.28 0 0 0 0 0
356 1 3 31.1018 -1256.1 0 0 0 0 0
357 1 3 31.1018 -1252.92 0 0 0 0 0
358 1 3 31.1018 -1249.74 0 0 0 0 0
359 1 3 31.1018 -1246.56 0 0 0 0 0
360 1 3 31.1018 -1243.38 0 0 0 0 0
361 1 3 31.1018 -1240.2 0 0 0 0 0
362 1 3 31.1018 -1237.02 0 0 0 0 0
363 1 3 31.1018 -1233.84 0 0 0 0 0
364 1 3 31.1018 -1230.66 0 0 0 0 0
365 1 3 31.1018 -1227.48 0 0 0 0 0
366 1 3 31.1018 -1224.3 0 0 0 0 0
367 1 3 31.1018 -1221.12 0 0 0 0 0
368 1 3 31.1018 -1217.94 0 0 0 0 0
369 1 3 31.1018 -1214.76 0 0 0 0 0
370 1 3 31.1018 -1211.58 0 0 0 0 0
371 1 3 31.1018 -1208.4 0 0 0 0 0
372 1 3 31.1018 -1205.22 0 0 0 0 0
373 1 3 31.1018 -1202.04 0 0 0 0 0
374 1 3 31.1018 -1198.86 0 0 0 0 0
375 1 3 31.1018 -1195.68 0 0 0 0 0
1501 2 3 31.1018 -1500 0 3.04521 0 0 -1000
1502 2 3 31.1018 -1497 0 3.04521 0 0 -1000
1503 2 3 31.1018 -1494 0 3.04521 0 0 -1000
1504 2 3 31.1018 -1491 0 3.04521 0 0 -1000
1505 2 3 31.1018 -1488 0 3.04521 0 0 -1000
1506 2 3 31.1018 -1485 0 3.04521 0 0 -1000
1507 2 3 31.1018 -1482 0 3.04521 0 0 -1000
1508 2 3 31.1018 -1479 0 3.04521 0 0 -1000
1509 2 3 31.1018 -1476 0 3.04521 0 0 -1000
1510 2 3 31.1018 -1473 0 3.04521 0 0 -1000
1511 2 3 31.1018 -1470 0 3.04521 0 0 -1000
1512 2 3 31.1018 -1467 0 3.04521 0 0 -1000
1513 2 3 31.1018 -1464 0 3.04521 0 0 -1000
1514 2 3 31.1018 -1461 0 3.04521 0 0 -1000
1515 2 3 31.1018 -1458 0 3.04521 0 0 -1000
1516 2 3 31.1018 -1455 0 3.04521 0 0 -1000
1517 2 3 31.1018 -1452 0 3.04521 0 0 -1000
1518 2 3 31.1018 -1449 0 3.04521 0 0 -1000
1519 2 3 31.1018 -1446 0 3.04521 0 0 -1000
1520 2 3 31.1018 -1443 0 3.04521 0 0 -1000
1521 2 3 31.1018 -1440 0 3.04521 0 0 -1000
1522 2 3 31.1018 -1437 0 3.04521 0 0 -1000
1523 2 3 31.1018 -1434 0 3.04521 0 0 -1000
1524 2 3 31.1018 -1431 0 3.04521 0 0 -1000
1525 2 3 31.1018 -1428 0 3.04521 0 0 -1000
1526 2 3 31.1018 -1425 0 3.04521 0 0 -1000
1527 2 3 31.1018 -1422 0 3.04521 0 0 -1000
1528 2 3 31.1018 -1419 0 3.04521 0 0 -1000
1529 2 3 31.1018 -1416 0 3.04521 0 0 -1000
1530 2 3 31.1018 -1413 0 3.04521 0 0 -1000
1531 2 3 31.1018 -1410 0 3.04521 0 0 -1000
1532 2 3 31.1018 -1407 0 3.04521 0 0 -1000
1533 2 3 31.1018 -1404 0 3.04521 0 0 -1000
1534 2 3 31.1018 -1401 0 3.04521 0 0 -1000
1535 2 3 31.1018 -1398 0 3.04521 0 0 -1000
1536 2 3 31.1018 -1395 0 3.04521 0 0 -1000
1537 2 3 31.1018 -1392 0 3.04521 0 0 -1000
1538 2 3 31.1018 -1389 0 3.04521 0 0 -1000
1539 2 3 31.1018 -1386 0 3.04521 0 0 -1000
1540 2 3 31.1018 -1383 0 3.04521 0 0 -1000
1541 2 3 31.1018 -1380 0 3.04521 0 0 -1000
1542 2 3 31.1018 -1377 0 3.04521 0 0 -1000
1543 2 3 31.1018 -1374 0 3.04521 0 0 -1000
1544 2 3 31.1018 -1371 0 3.04521 0 0 -1000
1545 2 3 31.1018 -1368 0 3.04521 0 0 -1000
1546 2 3 31.1018 -1365 0 3.04521 0 0 -1000
1547 2 3 31.1018 -1362 0 3.04521 0 0 -1000
1548 2 3 31.1018 -1359 0 3.04521 0 0 -1000
1549 2 3 31.1018 -1356 0 3.04521 0 0 -1000
1550 2 3 31.1018 -1353 0 3.04521 0 0 -1000
1551 2 3 31.1018 -1350 0 3.04521 0 0 -1000
1552 2 3 31.1018 -1347 0 3.04521 0 0 -1000
1553 2 3 31.1018 -1344 0 3.04521 0 0 -1000
1554 2 3 31.1018 -1341 0 3.04521 0 0 -1000
1555 2 3 31.1018 -1338 0 3.04521 0 0 -1000
1556 2 3 31.1018 -1335 0 3.04521 0 0 -1000
1557 2 3 31.1018 -1332 0 3.04521 0 0 -1000
1558 2 3 31.1018 -1329 0 3.04521 0 0 -1000
1559 2 3 31.1018 -1326 0 3.04521 0 0 -1000
1560 2 3 31.1018 -1323 0 3.04521 0 0 -1000
1561 2 3 31.1018 -1320 0 3.04521 0 0 -1000
1562 2 3 31.1018 -1317 0 3.04521 0 0 -1000
1563 2 3 31.1018 -1314 0 3.04521 0 0 -1000
1564 2 3 31.1018 -1311 0 3.04521 0 0 -1000
1565 2 3 31.1018 -1308 0 3.04521 0 0 -1000
1566 2 3 31.1018 -1305 0 3.04521 0 0 -1000
1567 2 3 31.1018 -1302 0 3.04521 0 0 -1000
1568 2 3 31.1018 -1299 0 3.04521 0 0 -1000
1569 2 3 31.1018 -1296 0 3.04521 0 0 -1000
1570 2 3 31.1018 -1293 0 3.04521 0 0 -1000
1571 2 3 31.1018 -1290 0 3.04521 0 0 -1000
1572 2 3 31.1018 -1287 0 3.04521 0 0 -1000
1573 2 3 31.1018 -1284 0 3.04521 0 0 -1000
1574 2 3 31.1018 -1281 0 3.04521 0 0 -1000
1575 2 3 31.1018 -1278 0 3.04521 0 0 -1000
1576 2 3 31.1018 -1275 0 3.04521 0 0 -1000
1577 2 3 31.1018 -1272 0 3.04521 0 0 -1000
1578 2 3 31.1018 -1269 0 3.04521 0 0 -1000
1579 2 3 31.1018 -1266 0 3.04521 0 0 -1000
1580 2 3 31.1018 -1263 0 3.04521 0 0 -1000
1581 2 3 31.1018 -1260 0 3.04521 0 0 -1000
1582 2 3 31.1018 -1257 0 3.04521 0 0 -1000
1583 2 3 31.1018 -1254 0 3.04521 0 0 -1000
1584 2 3 31.1018 -1251 0 3.04521 0 0 -1000
1585 2 3 31.1018 -1248 0 3.04521 0 0 -1000
1586 2 3 31.1018 -1245 0 3.04521 0 0 -1000
1587 2 3 31.1018 -1242 0 3.04521 0 0 -1000
1588 2 3 31.1018 -1239 0 3.04521 0 0 -1000
1589 2 3 31.1018 -1236 0 3.04521 0 0 -1000
1590 2 3 31.1018 -1233 0 3.04521 0 0 -1000
1591 2 3 31.1018 -1230 0 3.04521 0 0 -1000
1592 2 3 31.1018 -1227 0 3.04521 0 0 -1000
1593 2 3 31.1018 -1224 0 3.04521 0 0 -1000
1594 2 3 31.1018 -1221 0 3.04521 0 0 -1000
1595 2 3 31.1018 -1218 0 3.04521 0 0 -1000
1596 2 3 31.1018 -1215 0 3.04521 0 0 -1000
1597 2 3 31.1018 -1212 0 3.04521 0 0 -1000
1598 2 3 31.1018 -1209 0 3.04521 0 0 -1000
1599 2 3 31.1018 -1206 0 3.04521 0 0 -1000
1600 2 3 31.1018 -1203 0 3.04521 0 0 -1000
1601 2 3 31.1018 -1200 0 3.04521 0 0 -1000
1602 2 3 31.1018 -1197 0 3.04521 0 0 -1000
1603 2 3 31.1018 -1194 0 3.04521 0 0 -1000
376 1 3 31.1018 -1192.5 0 0 0 0 0
377 1 3 31.1018 -1189.32 0 0 0 0 0
378 1 3 31.1018 -1186.14 0 0 0 0 0
379 1 3 31.1018 -1182.96 0 0 0 0 0
380 1 3 31.1018 -1179.78 0 0 0 0 0
381 1 3 31.1018 -1176.6 0 0 0 0 0
382 1 3 31.1018 -1173.42 0 0 0 0 0
383 1 3 31.1018 -1170.24 0 0 0 0 0
384 1 3 31.1018 -1167.06 0 0 0 0 0
385 1 3 31.1018 -1163.88 0 0 0 0 0
386 1 3 31.1018 -1160.7 0 0 0 0 0
387 1 3 31.1018 -1157.52 0 0 0 0 0
388 1 3 31.1018 -1154.34 0 0 0 0 0
389 1 3 31.1018 -1151.16 0 0 0 0 0
390 1 3 31.1018 -1147.98 0 0 0 0 0
391 1 3 31.1018 -1144.8 0 0 0 0 0
392 1 3 31.1018 -1141.62 0 0 0 0 0
393 1 3 31.1018 -1138.44 0 0 0 0 0
394 1 3 31.1018 -1135.26 0 0 0 0 0
395 1 3 31.1018 -1132.08 0 0 0 0 0
396 1 3 31.1018 -1128.9 0 0 0 0 0
397 1 3 31.1018 -1125.72 0 0 0 0 0
398 1 3 31.1018 -1122.54 0 0 0 0 0
399 1 3 31.1018 -1119.36 0 0 0 0 0
400 1 3 31.1018 -1116.18 0 0 0 0 0
401 1 3 31.1018 -1113 0 0 0 0 0
402 1 3 31.1018 -1109.82 0 0 0 0 0
403 1 3 31.1018 -1106.64 0 0 0 0 0
404 1 3 31.1018 -1103.46 0 0 0 0 0
405 1 3 31.1018 -1100.28 0 0 0 0 0
406 1 3 31.1018 -1097.1 0 0 0 0 0
407 1 3 31.1018 -1093.92 0 0 0 0 0
408 1 3 31.1018 -1090.74 0 0 0 0 0
409 1 3 31.1018 -1087.56 0 0 0 0 0
410 1 3 31.1018 -1084.38 0 0 0 0 0
411 1 3 31.1018 -1081.2 0 0 0 0 0
412 1 3 31.1018 -1078.02 0 0 0 0 0
413 1 3 31.1018 -1074.84 0 0 0 0 0
414 1 3 31.1018 -1071.66 0 0 0 0 0
415 1 3 31.1018 -1068.48 0 0 0 0 0
416 1 3 31.1018 -1065.3 0 0 0 0 0
417 1 3 31.1018 -1062.12 0 0 0 0 0
418 1 3 31.1018 -1058.94 0 0 0 0 0
419 1 3 31.1018 -1055.76 0 0 0 0 0
420 1 3 31.1018 -1052.58 0 0 0 0 0
421 1 3 31.1018 -1049.4 0 0 0 0 0
422 1 3 31.1018 -1046.22 0 0 0 0 0
423 1 3 31.1018 -1043.04 0 0 0 0 0
424 1 3 31.1018 -1039.86 0 0 0 0 0
425 1 3 31.1018 -1036.68 0 0 0 0 0
426 1 3 31.1018 -1033.5 0 0 0 0 0
427 1 3 31.1018 -1030.32 0 0 0 0 0
428 1 3 31.1018 -1027.14 0 0 0 0 0
429 1 3 31.1018 -1023.96 0 0 0 0 0
430 1 3 31.1018 -1020.78 0 0 0 0 0
431 1 3 31.1018 -1017.6 0 0 0 0 0
432 1 3 31.1018 -1014.42 0 0 0 0 0
433 1 3 31.1018 -1011.24 0 0 0 0 0
434 1 3 31.1018 -1008.06 0 0 0 0 0
435 1 3 31.1018 -1004.88 0 0 0 0 0
436 1 3 31.1018 -1001.7 0 0 0 0 0
437 1 3 31.1018 -998.52 0 0 0 0 0
438 1 3 31.1018 -995.34 0 0 0 0 0
439 1 3 31.1018 -992.16 0 0 0 0 0
440 1 3 31.1018 -988.98 0 0 0 0 0
441 1 3 31.1018 -985.8 0 0 0 0 0
442 1 3 31.1018 -982.62 0 0 0 0 0
443 1 3 31.1018 -979.44 0 0 0 0 0
444 1 3 31.1018 -976.26 0 0 0 0 0
445 1 3 31.1018 -973.08 0 0 0 0 0
446 1 3 31.1018 -969.9 0 0 0 0 0
447 1 3 31.1018 -966.72 0 0 0 0 0
448 1 3 31.1018 -963.54 0 0 0 0 0
449 1 3 31.1018 -960.36 0 0 0 0 0
450 1 3 31.1018 -957.18 0 0 0 0 0
451 1 3 31.1018 -954 0 0 0 0 0
452 1 3 31.1018 -950.82 0 0 0 0 0
453 1 3 31.1018 -947.64 0 0 0 0 0
454 1 3 31.1018 -944.46 0 0 0 0 0
455 1 3 31.1018 -941.28 0 0 0 0 0
456 1 3 31.1018 -938.1 0 0 0 0 0
457 1 3 31.1018 -934.92 0 0 0 0 0
458 1 3 31.1018 -931.74 0 0 0 0 0
459 1 3 31.1018 -928.56 0 0 0 0 0
460 1 3 31.1018 -925.38 0 0 0 0 0
461 1 3 31.1018 -922.2 0 0 0 0 0
462 1 3 31.1018 -919.02 0 0 0 0 0
463 1 3 31.1018 -915.84 0 0 0 0 0
464 1 3 31.1018 -912.66 0 0 0 0 0
465 1 3 31.1018 -909.48 0 0 0 0 0
466 1 3 31.1018 -906.3 0 0 0 0 0
467 1 3 31.1018 -903.12 0 0 0 0 0
468 1 3 31.1018 -899.94 0 0 0 0 0
469 1 3 31.1018 -896.76 0 0 0 0 0
470 1 3 31.1018 -893.58 0 0 0 0 0
471 1 3 31.1018 -890.4 0 0 0 0 0
472 1 3 31.1018 -887.22 0 0 0 0 0
473 1 3 31.1018 -884.04 0 0 0 0 0
474 1 3 31.1018 -880.86 0 0 0 0 0
475 1 3 31.1018 -877.68 0 0 0 0 0
476 1 3 31.1018 -874.5 0 0 0 0 0
477 1 3 31.1018 -871.32 0 0 0 0 0
478 1 3 31.1018 -868.14 0 0 0 0 0
479 1 3 31.1018 -864.96 0 0 0 0 0
480 1 3 31.1018 -861.78 0 0 0 0 0
481 1 3 31.1018 -858.6 0 0 0 0 0
482 1 3 31.1018 -855.42 0 0 0 0 0
483 1 3 31.1018 -852.24 0 0 0 0 0
484 1 3 31.1018 -849.06 0 0 0 0 0
485 1 3 31.1018 -845.88 0 0 0 0 0
486 1 3 31.1018 -842.7 0 0 0 0 0
487 1 3 31.1018 -839.52 0 0 0 0 0
488 1 3 31.1018 -836.34 0 0 0 0 0
489 1 3 31.1018 -833.16 0 0 0 0 0
490 1 3 31.1018 -829.98 0 0 0 0 0
491 1 3 31.1018 -826.8 0 0 0 0 0
492 1 3 31.1018 -823.62 0 0 0 0 0
493 1 3 31.1018 -820.44 0 0 0 0 0
494 1 3 31.1018 -817.26 0 0 0 0 0
495 1 3 31.1018 -814.08 0 0 0 0 0
496 1 3 31.1018 -810.9 0 0 0 0 0
497 1 3 31.1018 -807.72 0 0 0 0 0
498 1 3 31.1018 -804.54 0 0 0 0 0
499 1 3 31.1018 -801.36 0 0 0 0 0
500 1 3 31.1018 -798.18 0 0 0 0 0
501 1 3 31.1018 -795 0 0 0 0 0
502 1 3 31.1018 -791.82 0 0 0 0 0
503 1 3 31.1018 -788.64 0 0 0 0 0
504 1 3 31.1018 -785.46 0 0 0 0 0
505 1 3 31.1018 -782.28 0 0 0 0 0
506 1 3 31.1018 -779.1 0 0 0 0 0
507 1 3 31.1018 -775.92 0 0 0 0 0
508 1 3 31.1018 -772.74 0 0 0 0 0
509 1 3 31.1018 -769.56 0 0 0 0 0
510 1 3 31.1018 -766.38 0 0 0 0 0
511 1 3 31.1018 -763.2 0 0 0 0 0
512 1 3 31.1018 -760.02 0 0 0 0 0
513 1 3 31.1018 -756.84 0 0 0 0 0
514 1 3 31.1018 -753.66 0 0 0 0 0
515 1 3 31.1018 -750.48 0 0 0 0 0
516 1 3 31.1018 -747.3 0 0 0 0 0
517 1 3 31.1018 -744.12 0 0 0 0 0
518 1 3 31.1018 -740.94 0 0 0 0 0
519 1 3 31.1018 -737.76 0 0 0 0 0
520 1 3 31.1018 -734.58 0 0 0 0 0
521 1 3 31.1018 -731.4 0 0 0 0 0
522 1 3 31.1018 -728.22 0 0 0 0 0
523 1 3 31.1018 -725.04 0 0 0 0 0
524 1 3 31.1018 -721.86 0 0 0 0 0
525 1 3 31.1018 -718.68 0 0 0 0 0
526 1 3 31.1018 -715.5 0 0 0 0 0
527 1 3 31.1018 -712.32 0 0 0 0 0
528 1 3 31.1018 -709.14 0 0 0 0 0
529 1 3 31.1018 -705.96 0 0 0 0 0
530 1 3 31.1018 -702.78 0 0 0 0 0
531 1 3 31.1018 -699.6 0 0 0 0 0
532 1 3 31.1018 -696.42 0 0 0 0 0
533 1 3 31.1018 -693.24 0 0 0 0 0
534 1 3 31.1018 -690.06 0 0 0 0 0
535 1 3 31.1018 -686.88 0 0 0 0 0
536 1 3 31.1018 -683.7 0 0 0 0 0
537 1 3 31.1018 -680.52 0 0 0 0 0
538 1 3 31.1018 -677.34 0 0 0 0 0
539 1 3 31.1018 -674.16 0 0 0 0 0
540 1 3 31.1018 -670.98 0 0 0 0 0
541 1 3 31.1018 -667.8 0 0 0 0 0
542 1 3 31.1018 -664.62 0 0 0 0 0
543 1 3 31.1018 -661.44 0 0 0 0 0
544 1 3 31.1018 -658.26 0 0 0 0 0
545 1 3 31.1018 -655.08 0 0 0 0 0
546 1 3 31.1018 -651.9 0 0 0 0 0
547 1 3 31.1018 -648.72 0 0 0 0 0
548 1 3 31.1018 -645.54 0 0 0 0 0
549 1 3 31.1018 -642.36 0 0 0 0 0
550 1 3 31.1018 -639.18 0 0 0 0 0
551 1 3 31.1018 -636 0 0 0 0 0
552 1 3 31.1018 -632.82 0 0 0 0 0
553 1 3 31.1018 -629.64 0 0 0 0 0
554 1 3 31.1018 -626.46 0 0 0 0 0
555 1 3 31.1018 -623.28 0 0 0 0 0
556 1 3 31.1018 -620.1 0 0 0 0 0
557 1 3 31.1018 -616.92 0 0 0 0 0
558 1 3 31.1018 -613.74 0 0 0 0 0
559 1 3 31.1018 -610.56 0 0 0 0 0
560 1 3 31.1018 -607.38 0 0 0 0 0
561 1 3 31.1018 -604.2 0 0 0 0 0
562 1 3 31.1018 -601.02 0 0 0 0 0
563 1 3 31.1018 -597.84 0 0 0 0 0
564 1 3 31.1018 -594.66 0 0 0 0 0
565 1 3 31.1018 -591.48 0 0 0 0 0
566 1 3 31.1018 -588.3 0 0 0 0 0
567 1 3 31.1018 -585.12 0 0 0 0 0
568 1 3 31.1018 -581.94 0 0 0 0 0
569 1 3 31.1018 -578.76 0 0 0 0 0
570 1 3 31.1018 -575.58 0 0 0 0 0
571 1 3 31.1018 -572.4 0 0 0 0 0
572 1 3 31.1018 -569.22 0 0 0 0 0
573 1 3 31.1018 -566.04 0 0 0 0 0
574 1 3 31.1018 -562.86 0 0 0 0 0
575 1 3 31.1018 -559.68 0 0 0 0 0
576 1 3 31.1018 -556.5 0 0 0 0 0
577 1 3 31.1018 -553.32 0 0 0 0 0
578 1 3 31.1018 -550.14 0 0 0 0 0
579 1 3 31.1018 -546.96 0 0 0 0 0
580 1 3 31.1018 -543.78 0 0 0 0 0
581 1 3 31.1018 -540.6 0 0 0 0 0
582 1 3 31.1018 -537.42 0 0 0 0 0
583 1 3 31.1018 -534.24 0 0 0 0 0
584 1 3 31.1018 -531.06 0 0 0 0 0
585 1 3 31.1018 -527.88 0 0 0 0 0
586 1 3 31.1018 -524.7 0 0 0 0 0
587 1 3 31.1018 -521.52 0 0 0 0 0
588 1 3 31.1018 -518.34 0 0 0 0 0
589 1 3 31.1018 -515.16 0 0 0 0 0
590 1 3 31.1018 -511.98 0 0 0 0 0
591 1 3 31.1018 -508.8 0 0 0 0 0
592 1 3 31.1018 -505.62 0 0 0 0 0
593 1 3 31.1018 -502.44 0 0 0 0 0
594 1 3 31.1018 -499.26 0 0 0 0 0
595 1 3 31.1018 -496.08 0 0 0 0 0
596 1 3 31.1018 -492.9 0 0 0 0 0
597 1 3 31.1018 -489.72 0 0 0 0 0
598 1 3 31.1018 -486.54 0 0 0 0 0
599 1 3 31.1018 -483.36 0 0 0 0 0
600 1 3 31.1018 -480.18 0 0 0 0 0
601 1 3 31.1018 -477 0 0 0 0 0
602 1 3 31.1018 -473.82 0 0 0 0 0
603 1 3 31.1018 -470.64 0 0 0 0 0
604 1 3 31.1018 -467.46 0 0 0 0 0
605 1 3 31.1018 -464.28 0 0 0 0 0
606 1 3 31.1018 -461.1 0 0 0 0 0
607 1 3 31.1018 -457.92 0 0 0 0 0
608 1 3 31.1018 -454.74 0 0 0 0 0
609 1 3 31.1018 -451.56 0 0 0 0 0
610 1 3 31.1018 -448.38 0 0 0 0 0
611 1 3 31.1018 -445.2 0 0 0 0 0
612 1 3 31.1018 -442.02 0 0 0 0 0
613 1 3 31.1018 -438.84 0 0 0 0 0
614 1 3 31.1018 -435.66 0 0 0 0 0
615 1 3 31.1018 -432.48 0 0 0 0 0
616 1 3 31.1018 -429.3 0 0 0 0 0
617 1 3 31.1018 -426.12 0 0 0 0 0
618 1 3 31.1018 -422.94 0 0 0 0 0
619 1 3 31.1018 -419.76 0 0 0 0 0
620 1 3 31.1018 -416.58 0 0 0 0 0
621 1 3 31.1018 -413.4 0 0 0 0 0
622 1 3 31.1018 -410.22 0 0 0 0 0
623 1 3 31.1018 -407.04 0 0 0 0 0
624 1 3 31.1018 -403.86 0 0 0 0 0
625 1 3 31.1018 -400.68 0 0 0 0 0
626 1 3 31.1018 -397.5 0 0 0 0 0
627 1 3 31.1018 -394.32 0 0 0 0 0
628 1 3 31.1018 -391.14 0 0 0 0 0
629 1 3 31.1018 -387.96 0 0 0 0 0
630 1 3 31.1018 -384.78 0 0 0 0 0
631 1 3 31.1018 -381.6 0 0 0 0 0
632 1 3 31.1018 -378.42 0 0 0 0 0
633 1 3 31.1018 -375.24 0 0 0 0 0
634 1 3 31.1018 -372.06 0 0 0 0 0
635 1 3 31.1018 -368.88 0 0 0 0 0
636 1 3 31.1018 -365.7 0 0 0 0 0
637 1 3 31.1018 -362.52 0 0 0 0 0
638 1 3 31.1018 -359.34 0 0 0 0 0
639 1 3 31.1018 -356.16 0 0 0 0 0
640 1 3 31.1018 -352.98 0 0 0 0 0
641 1 3 31.1018 -349.8 0 0 0 0 0
642 1 3 31.1018 -346.62 0 0 0 0 0
643 1 3 31.1018 -343.44 0 0 0 0 0
644 1 3 31.1018 -340.26 0 0 0 0 0
645 1 3 31.1018 -337.08 0 0 0 0 0
646 1 3 31.1018 -333.9 0 0 0 0 0
647 1 3 31.1018 -330.72 0 0 0 0 0
648 1 3 31.1018 -327.54 0 0 0 0 0
649 1 3 31.1018 -324.36 0 0 0 0 0
650 1 3 31.1018 -321.18 0 0 0 0 0
651 1 3 31.1018 -318 0 0 0 0 0
652 1 3 31.1018 -314.82 0 0 0 0 0
653 1 3 31.1018 -311.64 0 0 0 0 0
654 1 3 31.1018 -308.46 0 0 0 0 0
655 1 3 31.1018 -305.28 0 0 0 0 0
656 1 3 31.1018 -302.1 0 0 0 0 0
657 1 3 31.1018 -298.92 0 0 0 0 0
658 1 3 31.1018 -295.74 0 0 0 0 0
659 1 3 31.1018 -292.56 0 0 0 0 0
660 1 3 31.1018 -289.38 0 0 0 0 0
661 1 3 31.1018 -286.2 0 0 0 0 0
662 1 3 31.1018 -283.02 0 0 0 0 0
663 1 3 31.1018 -279.84 0 0 0 0 0
664 1 3 31.1018 -276.66 0 0 0 0 0
665 1 3 31.1018 -273.48 0 0 0 0 0
666 1 3 31.1018 -270.3 0 0 0 0 0
667 1 3 31.1018 -267.12 0 0 0 0 0
668 1 3 31.1018 -263.94 0 0 0 0 0
669 1 3 31.1018 -260.76 0 0 0 0 0
670 1 3 31.1018 -257.58 0 0 0 0 0
671 1 3 31.1018 -254.4 0 0 0 0 0
672 1 3 31.1018 -251.22 0 0 0 0 0
673 1 3 31.1018 -248.04 0 0 0 0 0
674 1 3 31.1018 -244.86 0 0 0 0 0
675 1 3 31.1018 -241.68 0 0 0 0 0
676 1 3 31.1018 -238.5 0 0 0 0 0
677 1 3 31.1018 -235.32 0 0 0 0 0
678 1 3 31.1018 -232.14 0 0 0 0 0
679 1 3 31.1018 -228.96 0 0 0 0 0
680 1 3 31.1018 -225.78 0 0 0 0 0
681 1 3 31.1018 -222.6 0 0 0 0 0
682 1 3 31.1018 -219.42 0 0 0 0 0
683 1 3 31.1018 -216.24 0 0 0 0 0
684 1 3 31.1018 -213.06 0 0 0 0 0
685 1 3 31.1018 -209.88 0 0 0 0 0
686 1 3 31.1018 -206.7 0 0 0 0 0
687 1 3 31.1018 -203.52 0 0 0 0 0
688 1 3 31.1018 -200.34 0 0 0 0 0
689 1 3 31.1018 -197.16 0 0 0 0 0
690 1 3 31.1018 -193.98 0 0 0 0 0
691 1 3 31.1018 -190.8 0 0 0 0 0
692 1 3 31.1018 -187.62 0 0 0 0 0
693 1 3 31.1018 -184.44 0 0 0 0 0
694 1 3 31.1018 -181.26 0 0 0 0 0
695 1 3 31.1018 -178.08 0 0 0 0 0
696 1 3 31.1018 -174.9 0 0 0 0 0
697 1 3 31.1018 -171.72 0 0 0 0 0
698 1 3 31.1018 -168.54 0 0 0 0 0
699 1 3 31.1018 -165.36 0 0 0 0 0
700 1 3 31.1018 -162.18 0 0 0 0 0
701 1 3 31.1018 -159 0 0 0 0 0
702 1 3 31.1018 -155.82 0 0 0 0 0
703 1 3 31.1018 -152.64 0 0 0 0 0
704 1 3 31.1018 -149.46 0 0 0 0 0
705 1 3 31.1018 -146.28 0 0 0 0 0
706 1 3 31.1018 -143.1 0 0 0 0 0
707 1 3 31.1018 -139.92 0 0 0 0 0
708 1 3 31.1018 -136.74 0 0 0 0 0
709 1 3 31.1018 -133.56 0 0 0 0 0
710 1 3 31.1018 -130.38 0 0 0 0 0
711 1 3 31.1018 -127.2 0 0 0 0 0
712 1 3 31.1018 -124.02 0 0 0 0 0
713 1 3 31.1018 -120.84 0 0 0 0 0
714 1 3 31.1018 -117.66 0 0 0 0 0
715 1 3 31.1018 -114.48 0 0 0 0 0
716 1 3 31.1018 -111.3 0 0 0 0 0
717 1 3 31.1018 -108.12 0 0 0 0 0
718 1 3 31.1018 -104.94 0 0 0 0 0
719 1 3 31.1018 -101.76 0 0 0 0 0
720 1 3 31.1018 -98.58 0 0 0 0 0
721 1 3 31.1018 -95.4 0 0 0 0 0
722 1 3 31.1018 -92.22 0 0 0 0 0
723 1 3 31.1018 -89.04 0 0 0 0 0
724 1 3 31.1018 -85.86 0 0 0 0 0
725 1 3 31.1018 -82.68 0 0 0 0 0
726 1 3 31.1018 -79.5 0 0 0 0 0
727 1 3 31.1018 -76.32 0 0 0 0 0
728 1 3 31.1018 -73.14 0 0 0 0 0
729 1 3 31.1018 -69.96 0 0 0 0 0
730 1 3 31.1018 -66.78 0 0 0 0 0
731 1 3 31.1018 -63.6 0 0 0 0 0
732 1 3 31.1018 -60.42 0 0 0 0 0
733 1 3 31.1018 -57.24 0 0 0 0 0
734 1 3 31.1018 -54.06 0 0 0 0 0
735 1 3 31.1018 -50.88 0 0 0 0 0
736 1 3 31.1018 -47.7 0 0 0 0 0
737 1 3 31.1018 -44.52 0 0 0 0 0
738 1 3 31.1018 -41.34 0 0 0 0 0
739 1 3 31.1018 -38.16 0 0 0 0 0
740 1 3 31.1018 -34.98 0 0 0 0 0