LAMMPS (23 Jun 2022 - Update 1)
  using 1 OpenMP thread(s) per MPI task
Lattice spacing in x,y,z = 3 3 3
Created orthogonal box = (-2250 -100 -100) to (2250 100 100)
  4 by 1 by 1 MPI processor grid
Created 1500 atoms
  using lattice units in orthogonal box = (-2250 -100 -100) to (2250 100 100)
  create_atoms CPU = 0.001 seconds
Lattice spacing in x,y,z = 3 3 3
Created 1001 atoms
  using lattice units in orthogonal box = (-2250 -100 -100) to (2250 100 100)
  create_atoms CPU = 0.002 seconds
Setting atom values ...
  1500 settings made for diameter
Setting atom values ...
  1500 settings made for mass
Setting atom values ...
  1001 settings made for diameter
Setting atom values ...
  1001 settings made for mass
1500 atoms in group substrate
1001 atoms in group slider1
  1 rigid bodies with 1001 atoms
Generated 0 of 1 mixed pair_coeff terms from geometric mixing rule
Neighbor list info ...
  update every 1 steps, delay 0 steps, check yes
  max neighbors/atom: 2000, page size: 100000
  master list distance cutoff = 3.1
  ghost atom cutoff = 3.1
  binsize = 1.55, bins = 2904 130 130
  1 neighbor lists, perpetual/occasional/extra = 1 0 0
  (1) pair granular, perpetual
      attributes: half, newton on, size, history
      pair build: half/size/bin/newton
      stencil: half/bin/3d
      bin: standard
Setting up Verlet run ...
  Unit style    : micro
  Current step  : 0
  Time step     : 1e-05
Per MPI rank memory allocation (min/avg/max) = 63.68 | 63.68 | 63.68 Mbytes
   Step           Lx             Ly             Lz           Press           Pxx            Pyy            Pzz           KinEng         PotEng          Temp          c_1[1]         c_1[2]         c_1[3]    
         0   4500           200            200            0              0              0              0              0              0              0             -5.9828895e-14  0              6            
    100000   4500           200            200            0.0046190318  -4.4877374e-36  0              0.013857095    604440.47      0              5.8372534e+10 -5.9828895e-14  0              3.3129534    
    200000   4500           200            200            0.0018359417   4.4877489e-36  0              0.005507825    176363.51      0              1.7031925e+10 -5.9828895e-14  0              3.0475848    
    300000   4500           200            200            0.00053343636  2.2438722e-36  0              0.0016003091   24838.755      0              2.3987492e+09 -5.9828895e-14  0              3.0314324    
    400000   4500           200            200            0.033129216    1.4237836e-42  0              0.099387649    10021.225      0              9.6777821e+08 -5.9828895e-14  0              2.9979465    
    500000   4500           200            200           -5.3861823e-05 -5.609676e-37   0             -0.00016158547  396.07411      0              38250003      -5.9828895e-14  0              3.0020564    
    600000   4500           200            200            0.001802731   -5.6096765e-37  0              0.005408193    373.05952      0              36027418      -5.9828895e-14  0              2.9996976    
    700000   4500           200            200            0.0044408954   3.0311927e-44  0              0.013322686    58.036439      0              5604743.8     -5.9828895e-14  0              2.9994571    
    800000   4500           200            200            0.0054030741  -1.7530242e-38  0              0.016209222    8.7094228      0              841093.72     -5.9828895e-14  0              2.9993826    
    900000   4500           200            200            0.0053430165   3.5060485e-38  0              0.016029049    0.85654573     0              82719.056     -5.9828895e-14  0              2.9993876    
   1000000   4500           200            200            0.0054285671  -7.0120969e-38  0              0.016285701    0.038315189    0              3700.2067     -5.9828895e-14  0              2.9993813    
   1100000   4500           200            200            0.0055049088   4.1033639e-48  0              0.016514726    2.8146755e-09  0              0.00027182121 -5.9828895e-14  0              2.9993755    
   1200000   4500           200            200            0.005542601    4.9990434e-49  0              0.016627803    0.00067658371  0              65.339612     -5.9828895e-14  0              2.9993727    
   1300000   4500           200            200            0.0055562967   4.3825606e-39  0              0.01666889     0.00026977422  0              26.052863     -5.9828895e-14  0              2.9993716    
   1400000   4500           200            200            0.0055599413   8.7651212e-39  0              0.016679824    4.7844162e-05  0              4.6204467     -5.9828895e-14  0              2.9993714    
   1500000   4500           200            200            0.0055604262   8.7651212e-39  0              0.016681279    4.7892944e-06  0              0.46251577    -5.9828895e-14  0              2.9993713    
   1600000   4500           200            200            0.0055602495   1.0555458e-50  0              0.016680748    2.1587372e-07  0              0.020847539   -5.9828895e-14  0              2.9993713    
   1700000   4500           200            200            0.0055600737   1.7530242e-38  0              0.016680221    1.094892e-11   0              1.0573684e-06 -5.9828895e-14  0              2.9993714    
   1800000   4500           200            200            0.0055599863  -1.7530242e-38  0              0.016679959    3.5329864e-09  0              0.00034119054 -5.9828895e-14  0              2.9993714    
   1900000   4500           200            200            0.0055599544  -1.4024194e-37  0              0.016679863    1.4391602e-09  0              0.00013898379 -5.9828895e-14  0              2.9993714    
   2000000   4500           200            200            0.0055599459   4.0763406e-55  0              0.016679838    2.5795571e-10  0              2.4911516e-05 -5.9828895e-14  0              2.9993714    
   2100000   4500           200            200            0.0055599447   1.7530242e-38  0              0.016679834    2.6078535e-11  0              2.5184782e-06 -5.9828895e-14  0              2.9993714    
   2200000   4500           200            200            0.0055599451  -8.7651212e-39  0              0.016679835    1.1983822e-12  0              1.1573117e-07 -5.9828895e-14  0              2.9993714    
   2300000   4500           200            200            0.0055599455  -8.7651212e-39  0              0.016679837    1.8338567e-16  0              1.7710076e-11 -5.9828895e-14  0              2.9993714    
   2400000   4500           200            200            0.0055599457  -8.7651212e-39  0              0.016679837    1.8811499e-14  0              1.8166799e-09 -5.9828895e-14  0              2.9993714    
   2500000   4500           200            200            0.0055599458  -3.5060485e-38  0              0.016679837    7.7795361e-15  0              7.5129191e-10 -5.9828895e-14  0              2.9993714    
   2600000   4500           200            200            0.0055599458   6.1023206e-57  0              0.016679837    1.3993356e-15  0              1.3513782e-10 -5.9828895e-14  0              2.9993714    
   2700000   4500           200            200            0.0055599458  -8.7651212e-39  0              0.016679837    1.1536597e-16  0              1.1141219e-11 -5.9828895e-14  0              2.9993714    
   2800000   4500           200            200            0.0055599458   9.4304222e-57  0              0.016679837    3.1070976e-22  0              3.0006125e-17 -5.9828895e-14  0              2.9993714    
   2900000   4500           200            200            0.0055599458   8.7651212e-39  0              0.016679837    1.0999287e-18  0              1.0622324e-13 -5.9828895e-14  0              2.9993714    
   3000000   4500           200            200            0.0055599458   1.7530242e-38  0              0.016679837    5.6817113e-18  0              5.4869901e-13 -5.9828895e-14  0              2.9993714    
Loop time of 323.187 on 4 procs for 3000000 steps with 2501 atoms

Performance: 8020128.930 ns/day, 0.000 hours/ns, 9282.557 timesteps/s
100.0% CPU use with 4 MPI tasks x 1 OpenMP threads

MPI task timing breakdown:
Section |  min time  |  avg time  |  max time  |%varavg| %total
---------------------------------------------------------------
Pair    | 67.937     | 98.711     | 131.91     | 308.0 | 30.54
Neigh   | 2.2037     | 2.2125     | 2.2222     |   0.5 |  0.68
Comm    | 24.947     | 56.241     | 87.442     | 387.6 | 17.40
Output  | 0.22827    | 0.22845    | 0.22866    |   0.0 |  0.07
Modify  | 112.23     | 129.9      | 145.93     | 138.6 | 40.19
Other   |            | 35.9       |            |       | 11.11

Nlocal:         625.25 ave         751 max         500 min
Histogram: 2 0 0 0 0 0 0 0 0 2
Nghost:           5.25 ave           7 max           4 min
Histogram: 1 0 0 2 0 0 0 0 0 1
Neighs:         875.25 ave        1126 max         625 min
Histogram: 2 0 0 0 0 0 0 0 0 2

Total # of neighbors = 3501
Ave neighs/atom = 1.3998401
Neighbor list builds = 174
Dangerous builds = 0
  using 1 OpenMP thread(s) per MPI task
Lattice spacing in x,y,z = 3.01 3.01 3.01
Created orthogonal box = (-2257.5 -100 -100) to (2257.5 100 100)
  4 by 1 by 1 MPI processor grid
Created 1500 atoms
  using lattice units in orthogonal box = (-2257.5 -100 -100) to (2257.5 100 100)
  create_atoms CPU = 0.001 seconds
Lattice spacing in x,y,z = 3 3 3
Created 1001 atoms
  using lattice units in orthogonal box = (-2257.5 -100 -100) to (2257.5 100 100)
  create_atoms CPU = 0.000 seconds
Setting atom values ...
  1500 settings made for diameter
Setting atom values ...
  1500 settings made for mass
Setting atom values ...
  1001 settings made for diameter
Setting atom values ...
  1001 settings made for mass
1500 atoms in group substrate
1001 atoms in group slider1
  1 rigid bodies with 1001 atoms
Generated 0 of 1 mixed pair_coeff terms from geometric mixing rule
Neighbor list info ...
  update every 1 steps, delay 0 steps, check yes
  max neighbors/atom: 2000, page size: 100000
  master list distance cutoff = 3.1
  ghost atom cutoff = 3.1
  binsize = 1.55, bins = 2913 130 130
  1 neighbor lists, perpetual/occasional/extra = 1 0 0
  (1) pair granular, perpetual
      attributes: half, newton on, size, history
      pair build: half/size/bin/newton
      stencil: half/bin/3d
      bin: standard
Setting up Verlet run ...
  Unit style    : micro
  Current step  : 0
  Time step     : 1e-05
Per MPI rank memory allocation (min/avg/max) = 63.88 | 63.89 | 63.89 Mbytes
   Step           Lx             Ly             Lz           Press           Pxx            Pyy            Pzz           KinEng         PotEng          Temp          c_1[1]         c_1[2]         c_1[3]    
         0   4515           200            200            0              0              0              0              0              0              0              0              0              6            
    100000   4515           200            200            0.0045121193   1.7891491e-35  0              0.013536358    586761.28      0              5.6665205e+10  0              0              3.3252125    
    200000   4515           200            200            0.0016145803  -8.9456557e-36  0              0.0048437409   145260.22      0              1.4028193e+10  0              0              3.0719383    
    300000   4515           200            200            0.00014452513  8.9456776e-36  0              0.00043357539  2349.3026      0              2.2687883e+08  0              0              3.0453312    
    400000   4515           200            200            0.017064783    0.0070384314   0              0.044155916    8373.4968      0              8.0865238e+08  0              0              2.9930993    
    500000   4515           200            200            0.0024366413   0.00079655984  0              0.006513364    1146.9026      0              1.1075964e+08  0              0              2.9972718    
    600000   4515           200            200            0.0036537921   0.0012522701   0              0.0097091062   6.9419233      0              670401.26      0              0              2.9967311    
    700000   4515           200            200            0.0071679518   0.0021699729   0              0.019333883    2.7155903      0              262252.27      0              0              2.9953934    
    800000   4515           200            200            0.0058620004   0.0019722063   0              0.015613795    0.14204387     0              13717.58       0              0              2.9958587    
    900000   4515           200            200            0.006332702    0.0020229549   0              0.016975151    0.013087455    0              1263.8927      0              0              2.9956818    
   1000000   4515           200            200            0.0061589155   0.0020069368   0              0.01646981     0.0025124396   0              242.63344      0              0              2.9957466    
   1100000   4515           200            200            0.006221803    0.0020124849   0              0.016652924    0.00065412052  0              63.170278      0              0              2.995723     
   1200000   4515           200            200            0.0061991168   0.0020104577   0              0.016586893    0.0001580489   0              15.263232      0              0              2.9957314    
   1300000   4515           200            200            0.0062071778   0.0020111614   0              0.016610372    3.2985131e-05  0              3.1854679      0              0              2.9957284    
   1400000   4515           200            200            0.006204331    0.0020109114   0              0.016602082    6.1496875e-06  0              0.5938928      0              0              2.9957295    
   1500000   4515           200            200            0.0062053275   0.0020109979   0              0.016604985    1.0800711e-06  0              0.10430554     0              0              2.9957291    
   1600000   4515           200            200            0.006204982    0.0020109683   0              0.016603978    1.8145523e-07  0              0.017523647    0              0              2.9957292    
   1700000   4515           200            200            0.0062051005   0.0020109784   0              0.016604323    2.9437102e-08  0              0.0028428246   0              0              2.9957292    
   1800000   4515           200            200            0.0062050604   0.002010975    0              0.016604206    4.6385376e-09  0              0.00044795676  0              0              2.9957292    
   1900000   4515           200            200            0.0062050738   0.0020109761   0              0.016604245    7.129922e-10   0              6.8855683e-05  0              0              2.9957292    
   2000000   4515           200            200            0.0062050694   0.0020109758   0              0.016604232    1.0723866e-10  0              1.0356342e-05  0              0              2.9957292    
   2100000   4515           200            200            0.0062050708   0.0020109759   0              0.016604237    1.581842e-11   0              1.5276298e-06  0              0              2.9957292    
   2200000   4515           200            200            0.0062050704   0.0020109758   0              0.016604235    2.2916627e-12  0              2.2131238e-07  0              0              2.9957292    
   2300000   4515           200            200            0.0062050705   0.0020109759   0              0.016604236    3.2665017e-13  0              3.1545535e-08  0              0              2.9957292    
   2400000   4515           200            200            0.0062050705   0.0020109759   0              0.016604236    4.5956553e-14  0              4.4381549e-09  0              0              2.9957292    
   2500000   4515           200            200            0.0062050705   0.0020109759   0              0.016604236    6.3429582e-15  0              6.125575e-10   0              0              2.9957292    
   2600000   4515           200            200            0.0062050705   0.0020109759   0              0.016604236    8.6293675e-16  0              8.3336254e-11  0              0              2.9957292    
   2700000   4515           200            200            0.0062050705   0.0020109759   0              0.016604236    1.1155188e-16  0              1.0772882e-11  0              0              2.9957292    
   2800000   4515           200            200            0.0062050705   0.0020109759   0              0.016604236    1.5050231e-17  0              1.4534436e-12  0              0              2.9957292    
   2900000   4515           200            200            0.0062050705   0.0020109759   0              0.016604236    6.3780753e-18  0              6.1594886e-13  0              0              2.9957292    
   3000000   4515           200            200            0.0062050705   0.0020109759   0              0.016604236    6.4736593e-19  0              6.2517968e-14  0              0              2.9957292    
Loop time of 265.416 on 4 procs for 3000000 steps with 2501 atoms

Performance: 9765785.270 ns/day, 0.000 hours/ns, 11302.992 timesteps/s
100.0% CPU use with 4 MPI tasks x 1 OpenMP threads

MPI task timing breakdown:
Section |  min time  |  avg time  |  max time  |%varavg| %total
---------------------------------------------------------------
Pair    | 39.81      | 58.443     | 77.113     | 238.2 | 22.02
Neigh   | 2.0784     | 2.0841     | 2.0895     |   0.4 |  0.79
Comm    | 23.287     | 41.561     | 60.737     | 277.6 | 15.66
Output  | 0.22311    | 0.22328    | 0.22347    |   0.0 |  0.08
Modify  | 109.43     | 127.4      | 144.84     | 151.9 | 48.00
Other   |            | 35.71      |            |       | 13.45

Nlocal:         625.25 ave         752 max         499 min
Histogram: 2 0 0 0 0 0 0 0 0 2
Nghost:           4.75 ave           6 max           4 min
Histogram: 2 0 0 0 0 1 0 0 0 1
Neighs:         742.75 ave         984 max         502 min
Histogram: 2 0 0 0 0 0 0 0 0 2

Total # of neighbors = 2971
Ave neighs/atom = 1.1879248
Neighbor list builds = 164
Dangerous builds = 0
  using 1 OpenMP thread(s) per MPI task
Lattice spacing in x,y,z = 3.02 3.02 3.02
Created orthogonal box = (-2265 -100 -100) to (2265 100 100)
  4 by 1 by 1 MPI processor grid
Created 1500 atoms
  using lattice units in orthogonal box = (-2265 -100 -100) to (2265 100 100)
  create_atoms CPU = 0.000 seconds
Lattice spacing in x,y,z = 3 3 3
Created 1001 atoms
  using lattice units in orthogonal box = (-2265 -100 -100) to (2265 100 100)
  create_atoms CPU = 0.000 seconds
Setting atom values ...
  1500 settings made for diameter
Setting atom values ...
  1500 settings made for mass
Setting atom values ...
  1001 settings made for diameter
Setting atom values ...
  1001 settings made for mass
1500 atoms in group substrate
1001 atoms in group slider1
  1 rigid bodies with 1001 atoms
Generated 0 of 1 mixed pair_coeff terms from geometric mixing rule
Neighbor list info ...
  update every 1 steps, delay 0 steps, check yes
  max neighbors/atom: 2000, page size: 100000
  master list distance cutoff = 3.1
  ghost atom cutoff = 3.1
  binsize = 1.55, bins = 2923 130 130
  1 neighbor lists, perpetual/occasional/extra = 1 0 0
  (1) pair granular, perpetual
      attributes: half, newton on, size, history
      pair build: half/size/bin/newton
      stencil: half/bin/3d
      bin: standard
Setting up Verlet run ...
  Unit style    : micro
  Current step  : 0
  Time step     : 1e-05
Per MPI rank memory allocation (min/avg/max) = 64.02 | 64.03 | 64.03 Mbytes
   Step           Lx             Ly             Lz           Press           Pxx            Pyy            Pzz           KinEng         PotEng          Temp          c_1[1]         c_1[2]         c_1[3]    
         0   4530           200            200            0              0              0              0              0              0              0              0              0              6            
    100000   4530           200            200            0.0045064017  -1.0699247e-34  0              0.013519205    588565.37      0              5.6839431e+10  0              0              3.3237831    
    200000   4530           200            200            0.0016310518   1.783212e-35   0              0.0048931555   148348.1       0              1.4326397e+10  0              0              3.0693703    
    300000   4530           200            200            0.00017933134  2.6916141e-44  0              0.00053799402  3543.4264      0              3.4219876e+08  0              0              3.0449115    
    400000   4530           200            200            0.034087042    0.010689898    0              0.091571226    0.05664084     0              5469.9669      0              0              2.9906892    
    500000   4530           200            200            0.0031476519   0.00023835056  0              0.0092046053   1464.9498      0              1.4147437e+08  0              0              2.9971077    
    600000   4530           200            200            0.0035757036   0.00055724217  0              0.010169869    58.779248      0              5676479        0              0              2.9969121    
    700000   4530           200            200            0.0062664415   0.00093323413  0              0.017866091    25.204716      0              2434091.1      0              0              2.9958976    
    800000   4530           200            200            0.0061273368   0.00093636081  0              0.01744565     1.2917174      0              124744.82      0              0              2.9959407    
    900000   4530           200            200            0.0057331171   0.00091966265  0              0.016279689    0.29948115     0              28921.746      0              0              2.9960798    
   1000000   4530           200            200            0.0057956425   0.00092220019  0              0.016464727    0.048253143    0              4659.9432      0              0              2.9960583    
   1100000   4530           200            200            0.0058408562   0.00092406022  0              0.016598508    0.0021153115   0              204.28165      0              0              2.9960421    
   1200000   4530           200            200            0.0058266936   0.00092349874  0              0.016556582    0.0012580553   0              121.49398      0              0              2.996047     
   1300000   4530           200            200            0.00582241     0.00092332126  0              0.016543909    2.8027581e-06  0              0.27067032     0              0              2.9960486    
   1400000   4530           200            200            0.005824863    0.00092341997  0              0.016551169    2.4912197e-05  0              2.4058416      0              0              2.9960477    
   1500000   4530           200            200            0.0058251277   0.00092343131  0              0.016551952    1.6845018e-07  0              0.016267713    0              0              2.9960476    
   1600000   4530           200            200            0.0058247635   0.00092341658  0              0.016550874    3.8449835e-07  0              0.037132099    0              0              2.9960477    
   1700000   4530           200            200            0.0058247742   0.00092341693  0              0.016550906    1.8035871e-08  0              0.0017417754   0              0              2.9960477    
   1800000   4530           200            200            0.0058248219   0.00092341887  0              0.016551047    4.4117655e-09  0              0.00042605674  0              0              2.9960477    
   1900000   4530           200            200            0.0058248144   0.00092341858  0              0.016551025    7.0515727e-10  0              6.8099042e-05  0              0              2.9960477    
   2000000   4530           200            200            0.0058248089   0.00092341835  0              0.016551008    3.0967234e-11  0              2.9905938e-06  0              0              2.9960477    
   2100000   4530           200            200            0.0058248106   0.00092341842  0              0.016551013    1.8369354e-11  0              1.7739808e-06  0              0              2.9960477    
   2200000   4530           200            200            0.0058248111   0.00092341844  0              0.016551015    4.1467988e-14  0              4.0046815e-09  0              0              2.9960477    
   2300000   4530           200            200            0.0058248108   0.00092341843  0              0.016551014    3.6389491e-13  0              3.5142366e-08  0              0              2.9960477    
   2400000   4530           200            200            0.0058248108   0.00092341843  0              0.016551014    2.4685597e-15  0              2.3839582e-10  0              0              2.9960477    
   2500000   4530           200            200            0.0058248109   0.00092341843  0              0.016551014    5.619577e-15   0              5.4269852e-10  0              0              2.9960477    
   2600000   4530           200            200            0.0058248109   0.00092341843  0              0.016551014    2.626766e-16   0              2.5367426e-11  0              0              2.9960477    
   2700000   4530           200            200            0.0058248109   0.00092341843  0              0.016551014    7.6176954e-17  0              7.3566249e-12  0              0              2.9960477    
   2800000   4530           200            200            0.0058248109   0.00092341843  0              0.016551014    8.68578e-18    0              8.3881046e-13  0              0              2.9960477    
   2900000   4530           200            200            0.0058248109   0.00092341843  0              0.016551014    3.3605358e-19  0              3.2453649e-14  0              0              2.9960477    
   3000000   4530           200            200            0.0058248109   0.00092341843  0              0.016551014    2.1546345e-18  0              2.0807918e-13  0              0              2.9960477    
Loop time of 260.703 on 4 procs for 3000000 steps with 2501 atoms

Performance: 9942330.143 ns/day, 0.000 hours/ns, 11507.327 timesteps/s
100.0% CPU use with 4 MPI tasks x 1 OpenMP threads

MPI task timing breakdown:
Section |  min time  |  avg time  |  max time  |%varavg| %total
---------------------------------------------------------------
Pair    | 46.021     | 59.909     | 73.731     | 177.9 | 22.98
Neigh   | 2.107      | 2.1138     | 2.1204     |   0.4 |  0.81
Comm    | 23.887     | 37.522     | 51.203     | 217.8 | 14.39
Output  | 0.22507    | 0.22523    | 0.22541    |   0.0 |  0.09
Modify  | 108.15     | 125.45     | 142.45     | 151.2 | 48.12
Other   |            | 35.48      |            |       | 13.61

Nlocal:         625.25 ave         753 max         498 min
Histogram: 2 0 0 0 0 0 0 0 0 2
Nghost:           4.75 ave           6 max           4 min
Histogram: 2 0 0 0 0 1 0 0 0 1
Neighs:         763.25 ave         951 max         576 min
Histogram: 2 0 0 0 0 0 0 0 0 2

Total # of neighbors = 3053
Ave neighs/atom = 1.2207117
Neighbor list builds = 166
Dangerous builds = 0
  using 1 OpenMP thread(s) per MPI task
Lattice spacing in x,y,z = 3.03 3.03 3.03
Created orthogonal box = (-2272.5 -100 -100) to (2272.5 100 100)
  4 by 1 by 1 MPI processor grid
Created 1500 atoms
  using lattice units in orthogonal box = (-2272.5 -100 -100) to (2272.5 100 100)
  create_atoms CPU = 0.000 seconds
Lattice spacing in x,y,z = 3 3 3
Created 1001 atoms
  using lattice units in orthogonal box = (-2272.5 -100 -100) to (2272.5 100 100)
  create_atoms CPU = 0.001 seconds
Setting atom values ...
  1500 settings made for diameter
Setting atom values ...
  1500 settings made for mass
Setting atom values ...
  1001 settings made for diameter
Setting atom values ...
  1001 settings made for mass
1500 atoms in group substrate
1001 atoms in group slider1
  1 rigid bodies with 1001 atoms
Generated 0 of 1 mixed pair_coeff terms from geometric mixing rule
Neighbor list info ...
  update every 1 steps, delay 0 steps, check yes
  max neighbors/atom: 2000, page size: 100000
  master list distance cutoff = 3.1
  ghost atom cutoff = 3.1
  binsize = 1.55, bins = 2933 130 130
  1 neighbor lists, perpetual/occasional/extra = 1 0 0
  (1) pair granular, perpetual
      attributes: half, newton on, size, history
      pair build: half/size/bin/newton
      stencil: half/bin/3d
      bin: standard
Setting up Verlet run ...
  Unit style    : micro
  Current step  : 0
  Time step     : 1e-05
Per MPI rank memory allocation (min/avg/max) = 64.23 | 64.24 | 64.24 Mbytes
   Step           Lx             Ly             Lz           Press           Pxx            Pyy            Pzz           KinEng         PotEng          Temp          c_1[1]         c_1[2]         c_1[3]    
         0   4545           200            200            0              0              0              0              0              0              0              0              0              6            
    100000   4545           200            200            0.0044860537   2.2216585e-36  0              0.013458161    587512.77      0              5.6737778e+10  0              0              3.3244561    
    200000   4545           200            200            0.0016131719   7.4082422e-43  0              0.0048395156   146582.16      0              1.4155856e+10  0              0              3.0706175    
    300000   4545           200            200            0.00015709738  2.1340971e-43  0              0.00047129214  2783.3632      0              2.6879729e+08  0              0              3.0450279    
    400000   4545           200            200            0.014959465   -0.017654939    0              0.062533334    5479.7719      0              5.2919715e+08  0              0              2.9917887    
    500000   4545           200            200            0.00096523739  8.0659934e-05  0              0.0028150522   498.87397      0              48177677       0              0              2.9981847    
    600000   4545           200            200            0.0036734734   0.00042291644  0              0.010597504    64.527094      0              6231564.9      0              0              2.9965914    
    700000   4545           200            200            0.0055856438  -0.00016878798  0              0.016925719    29.50784       0              2849656        0              0              2.9956724    
    800000   4545           200            200            0.005830369    8.2300112e-06  0              0.017482877    0.38933706     0              37599.387      0              0              2.9956094    
    900000   4545           200            200            0.0054828978   8.2122534e-05  0              0.016366571    0.4798294      0              46338.489      0              0              2.9957493    
   1000000   4545           200            200            0.0054826687   8.1943588e-05  0              0.016366063    0.010190239    0              984.10035      0              0              2.9957485    
   1100000   4545           200            200            0.0055307914   7.7865108e-05  0              0.016514509    0.008338341    0              805.25729      0              0              2.9957297    
   1200000   4545           200            200            0.0055298508   7.7965853e-05  0              0.016511587    0.00024105212  0              23.279089      0              0              2.9957302    
   1300000   4545           200            200            0.0055233728   7.8494359e-05  0              0.016491624    0.00014349474  0              13.857695      0              0              2.9957327    
   1400000   4545           200            200            0.0055236349   7.8469495e-05  0              0.016492435    5.4768857e-06  0              0.52891842     0              0              2.9957326    
   1500000   4545           200            200            0.0055245021   7.8398479e-05  0              0.016495108    2.450995e-06   0              0.23669956     0              0              2.9957322    
   1600000   4545           200            200            0.0055244488   7.8403294e-05  0              0.016494943    1.2099539e-07  0              0.011684869    0              0              2.9957322    
   1700000   4545           200            200            0.005524333    7.8412758e-05  0              0.016494586    4.1505719e-08  0              0.0040083253   0              0              2.9957323    
   1800000   4545           200            200            0.0055243426   7.8411913e-05  0              0.016494616    2.6111565e-09  0              0.00025216681  0              0              2.9957323    
   1900000   4545           200            200            0.005524358    7.8410655e-05  0              0.016494663    6.9644146e-10  0              6.7257331e-05  0              0              2.9957323    
   2000000   4545           200            200            0.0055243564   7.8410795e-05  0              0.016494658    5.5256234e-11  0              5.3362515e-06  0              0              2.9957323    
   2100000   4545           200            200            0.0055243544   7.8410961e-05  0              0.016494652    1.1571586e-11  0              1.117501e-06   0              0              2.9957323    
   2200000   4545           200            200            0.0055243546   7.8410939e-05  0              0.016494653    1.1500556e-12  0              1.1106414e-07  0              0              2.9957323    
   2300000   4545           200            200            0.0055243549   7.8410917e-05  0              0.016494654    1.8973356e-13  0              1.8323109e-08  0              0              2.9957323    
   2400000   4545           200            200            0.0055243548   7.8410921e-05  0              0.016494654    2.3352069e-14  0              2.2551756e-09  0              0              2.9957323    
   2500000   4545           200            200            0.0055243548   7.8410923e-05  0              0.016494654    3.1931231e-15  0              3.0836897e-10  0              0              2.9957323    
   2600000   4545           200            200            0.0055243548   7.8410923e-05  0              0.016494654    4.8777112e-16  0              4.7105444e-11  0              0              2.9957323    
   2700000   4545           200            200            0.0055243548   7.8410923e-05  0              0.016494654    3.518855e-17   0              3.3982583e-12  0              0              2.9957323    
   2800000   4545           200            200            0.0055243548   7.8410923e-05  0              0.016494654    6.1313276e-18  0              5.9211973e-13  0              0              2.9957323    
   2900000   4545           200            200            0.0055243548   7.8410923e-05  0              0.016494654    3.9543542e-18  0              3.8188322e-13  0              0              2.9957323    
   3000000   4545           200            200            0.0055243548   7.8410925e-05  0              0.016494654    4.1453488e-20  0              4.0032811e-15  0              0              2.9957323    
Loop time of 261.947 on 4 procs for 3000000 steps with 2501 atoms

Performance: 9895138.048 ns/day, 0.000 hours/ns, 11452.706 timesteps/s
100.0% CPU use with 4 MPI tasks x 1 OpenMP threads

MPI task timing breakdown:
Section |  min time  |  avg time  |  max time  |%varavg| %total
---------------------------------------------------------------
Pair    | 45.041     | 59.299     | 73.394     | 182.7 | 22.64
Neigh   | 2.0909     | 2.0967     | 2.1019     |   0.4 |  0.80
Comm    | 23.97      | 37.857     | 52.067     | 222.3 | 14.45
Output  | 0.22568    | 0.22585    | 0.22604    |   0.0 |  0.09
Modify  | 108.17     | 126.19     | 144.35     | 157.3 | 48.17
Other   |            | 36.28      |            |       | 13.85

Nlocal:         625.25 ave         754 max         497 min
Histogram: 2 0 0 0 0 0 0 0 0 2
Nghost:           4.75 ave           6 max           4 min
Histogram: 2 0 0 0 0 1 0 0 0 1
Neighs:         755.25 ave         941 max         570 min
Histogram: 2 0 0 0 0 0 0 0 0 2

Total # of neighbors = 3021
Ave neighs/atom = 1.2079168
Neighbor list builds = 164
Dangerous builds = 0
  using 1 OpenMP thread(s) per MPI task
Lattice spacing in x,y,z = 3.04 3.04 3.04
Created orthogonal box = (-2280 -100 -100) to (2280 100 100)
  4 by 1 by 1 MPI processor grid
Created 1500 atoms
  using lattice units in orthogonal box = (-2280 -100 -100) to (2280 100 100)
  create_atoms CPU = 0.001 seconds
Lattice spacing in x,y,z = 3 3 3
Created 1001 atoms
  using lattice units in orthogonal box = (-2280 -100 -100) to (2280 100 100)
  create_atoms CPU = 0.001 seconds
Setting atom values ...
  1500 settings made for diameter
Setting atom values ...
  1500 settings made for mass
Setting atom values ...
  1001 settings made for diameter
Setting atom values ...
  1001 settings made for mass
1500 atoms in group substrate
1001 atoms in group slider1
  1 rigid bodies with 1001 atoms
Generated 0 of 1 mixed pair_coeff terms from geometric mixing rule
Neighbor list info ...
  update every 1 steps, delay 0 steps, check yes
  max neighbors/atom: 2000, page size: 100000
  master list distance cutoff = 3.1
  ghost atom cutoff = 3.1
  binsize = 1.55, bins = 2942 130 130
  1 neighbor lists, perpetual/occasional/extra = 1 0 0
  (1) pair granular, perpetual
      attributes: half, newton on, size, history
      pair build: half/size/bin/newton
      stencil: half/bin/3d
      bin: standard
Setting up Verlet run ...
  Unit style    : micro
  Current step  : 0
  Time step     : 1e-05
Per MPI rank memory allocation (min/avg/max) = 64.31 | 64.34 | 64.37 Mbytes
   Step           Lx             Ly             Lz           Press           Pxx            Pyy            Pzz           KinEng         PotEng          Temp          c_1[1]         c_1[2]         c_1[3]    
         0   4560           200            200            0              0              0              0              0              0              0              0              0              6            
    100000   4560           200            200            0.0044724153   4.3015672e-42  0              0.013417246    587710.94      0              5.6756916e+10  0              0              3.3244591    
    200000   4560           200            200            0.0016100533  -5.5358658e-37  0              0.00483016     146882.76      0              1.4184886e+10  0              0              3.0705901    
    300000   4560           200            200            0.00016149767  1.3839666e-37  0              0.00048449302  2949.3246      0              2.8482466e+08  0              0              3.0451396    
    400000   4560           200            200            0.026757314    0.0041838175   0              0.076088124    2962.4763      0              2.8609476e+08  0              0              2.9911972    
    500000   4560           200            200            0.0004078462   1.5118437e-05  0              0.0012084202   30.013713      0              2898509.6      0              0              2.9988946    
    600000   4560           200            200            0.0082929912   0.00070827303  0              0.0241707      29.68101       0              2866379.5      0              0              2.9950187    
    700000   4560           200            200            0.0057150452   0.00047664467  0              0.016668491    29.979359      0              2895191.9      0              0              2.9958715    
    800000   4560           200            200            0.0054211922   0.00047496511  0              0.015788612    2.3924572      0              231046.39      0              0              2.9959783    
    900000   4560           200            200            0.0057550791   0.00048138328  0              0.016783854    0.089608275    0              8653.7258      0              0              2.9958511    
   1000000   4560           200            200            0.005594461    0.00047838561  0              0.016304998    0.00021951482  0              21.19917       0              0              2.9959126    
   1100000   4560           200            200            0.0056546806   0.00047954501  0              0.016484497    0.0024997053   0              241.40364      0              0              2.9958893    
   1200000   4560           200            200            0.0056368703   0.00047920222  0              0.016431409    0.00094259668  0              91.029241      0              0              2.9958962    
   1300000   4560           200            200            0.0056404      0.00047927189  0              0.016441928    0.0001782798   0              17.216987      0              0              2.9958948    
   1400000   4560           200            200            0.0056404906   0.00047927266  0              0.016442199    2.1139101e-05  0              2.041463       0              0              2.9958948    
   1500000   4560           200            200            0.0056399558   0.00047926278  0              0.016440605    1.4608284e-06  0              0.14107635     0              0              2.995895     
   1600000   4560           200            200            0.0056402935   0.00047926914  0              0.016441611    2.9297921e-08  0              0.0028293835   0              0              2.9958949    
   1700000   4560           200            200            0.0056401446   0.00047926631  0              0.016441168    2.5899266e-09  0              0.00025011657  0              0              2.995895     
   1800000   4560           200            200            0.0056401965   0.0004792673   0              0.016441322    3.1763364e-09  0              0.00030674783  0              0              2.9958949    
   1900000   4560           200            200            0.0056401826   0.00047926703  0              0.016441281    9.0077544e-10  0              8.6990445e-05  0              0              2.9958949    
   2000000   4560           200            200            0.0056401847   0.00047926707  0              0.016441287    1.4496642e-10  0              1.3999819e-05  0              0              2.9958949    
   2100000   4560           200            200            0.0056401852   0.00047926708  0              0.016441289    1.4695856e-11  0              1.4192205e-06  0              0              2.9958949    
   2200000   4560           200            200            0.0056401846   0.00047926707  0              0.016441287    7.8322308e-13  0              7.5638079e-08  0              0              2.9958949    
   2300000   4560           200            200            0.0056401849   0.00047926708  0              0.016441288    3.8005043e-15  0              3.670255e-10   0              0              2.9958949    
   2400000   4560           200            200            0.0056401848   0.00047926707  0              0.016441287    6.0573222e-15  0              5.8497282e-10  0              0              2.9958949    
   2500000   4560           200            200            0.0056401849   0.00047926708  0              0.016441287    3.6257459e-15  0              3.5014859e-10  0              0              2.9958949    
   2600000   4560           200            200            0.0056401848   0.00047926708  0              0.016441287    8.1314775e-16  0              7.852799e-11   0              0              2.9958949    
   2700000   4560           200            200            0.0056401848   0.00047926708  0              0.016441287    1.1314587e-16  0              1.0926819e-11  0              0              2.9958949    
   2800000   4560           200            200            0.0056401848   0.00047926708  0              0.016441287    7.0727809e-18  0              6.8303855e-13  0              0              2.9958949    
   2900000   4560           200            200            0.0056401848   0.00047926708  0              0.016441287    1.0725259e-18  0              1.0357687e-13  0              0              2.9958949    
   3000000   4560           200            200            0.0056401848   0.00047926707  0              0.016441287    1.1514834e-19  0              1.1120202e-14  0              0              2.9958949    
Loop time of 262.104 on 4 procs for 3000000 steps with 2501 atoms

Performance: 9889217.570 ns/day, 0.000 hours/ns, 11445.854 timesteps/s
100.0% CPU use with 4 MPI tasks x 1 OpenMP threads

MPI task timing breakdown:
Section |  min time  |  avg time  |  max time  |%varavg| %total
---------------------------------------------------------------
Pair    | 44.135     | 58.836     | 73.679     | 191.4 | 22.45
Neigh   | 2.0967     | 2.101      | 2.1055     |   0.3 |  0.80
Comm    | 24.028     | 38.459     | 53.294     | 230.8 | 14.67
Output  | 0.22657    | 0.22675    | 0.22694    |   0.0 |  0.09
Modify  | 108.22     | 126.25     | 144.1      | 156.2 | 48.17
Other   |            | 36.23      |            |       | 13.82

Nlocal:         625.25 ave         756 max         495 min
Histogram: 2 0 0 0 0 0 0 0 0 2
Nghost:           5.25 ave           7 max           4 min
Histogram: 1 0 0 2 0 0 0 0 0 1
Neighs:         751.75 ave         951 max         553 min
Histogram: 2 0 0 0 0 0 0 0 0 2

Total # of neighbors = 3007
Ave neighs/atom = 1.2023191
Neighbor list builds = 164
Dangerous builds = 0
  using 1 OpenMP thread(s) per MPI task
Lattice spacing in x,y,z = 3.05 3.05 3.05
Created orthogonal box = (-2287.5 -100 -100) to (2287.5 100 100)
  4 by 1 by 1 MPI processor grid
Created 1500 atoms
  using lattice units in orthogonal box = (-2287.5 -100 -100) to (2287.5 100 100)
  create_atoms CPU = 0.000 seconds
Lattice spacing in x,y,z = 3 3 3
Created 1001 atoms
  using lattice units in orthogonal box = (-2287.5 -100 -100) to (2287.5 100 100)
  create_atoms CPU = 0.001 seconds
Setting atom values ...
  1500 settings made for diameter
Setting atom values ...
  1500 settings made for mass
Setting atom values ...
  1001 settings made for diameter
Setting atom values ...
  1001 settings made for mass
1500 atoms in group substrate
1001 atoms in group slider1
  1 rigid bodies with 1001 atoms
Generated 0 of 1 mixed pair_coeff terms from geometric mixing rule
Neighbor list info ...
  update every 1 steps, delay 0 steps, check yes
  max neighbors/atom: 2000, page size: 100000
  master list distance cutoff = 3.1
  ghost atom cutoff = 3.1
  binsize = 1.55, bins = 2952 130 130
  1 neighbor lists, perpetual/occasional/extra = 1 0 0
  (1) pair granular, perpetual
      attributes: half, newton on, size, history
      pair build: half/size/bin/newton
      stencil: half/bin/3d
      bin: standard
Setting up Verlet run ...
  Unit style    : micro
  Current step  : 0
  Time step     : 1e-05
Per MPI rank memory allocation (min/avg/max) = 64.51 | 64.51 | 64.52 Mbytes
   Step           Lx             Ly             Lz           Press           Pxx            Pyy            Pzz           KinEng         PotEng          Temp          c_1[1]         c_1[2]         c_1[3]    
         0   4575           200            200            0              0              0              0              0              0              0              0              0              6            
    100000   4575           200            200            0.0044603878  -5.5177146e-37  0              0.013381163    588231.59      0              5.6807196e+10  0              0              3.3240481    
    200000   4575           200            200            0.0016110478  -1.7656672e-35  0              0.0048331433   147780.5       0              1.4271583e+10  0              0              3.0698417    
    300000   4575           200            200            0.00017109489 -2.7588573e-37  0              0.00051328466  3306.1198      0              3.1928138e+08  0              0              3.0450067    
    400000   4575           200            200            0.030734774    0.0041855758   0              0.088018746    490.95184      0              47412614       0              0              2.9907118    
    500000   4575           200            200            0.0012088337   1.9090138e-05  0              0.0036074109   755.33802      0              72945140       0              0              2.9981594    
    600000   4575           200            200            0.0036370431   0.00027624118  0              0.010634888    85.310641      0              8238691.1      0              0              2.996767     
    700000   4575           200            200            0.004655566    0.00032726035  0              0.013639438    0.20111245     0              19422.001      0              0              2.9963295    
    800000   4575           200            200            0.0056233908   0.00036123795  0              0.016508934    4.149546       0              400733.45      0              0              2.9959589    
    900000   4575           200            200            0.0056927542   0.00036580189  0              0.016712461    0.17292357     0              16699.721      0              0              2.9959322    
   1000000   4575           200            200            0.0055411707   0.00036285722  0              0.016260655    0.016446553    0              1588.2903      0              0              2.9959866    
   1100000   4575           200            200            0.0055842387   0.00036367248  0              0.016389044    0.010181745    0              983.28007      0              0              2.9959714    
   1200000   4575           200            200            0.0055894228   0.00036377509  0              0.016404493    0.00033842599  0              32.68276       0              0              2.9959694    
   1300000   4575           200            200            0.005581784    0.00036363225  0              0.01638172     5.0142467e-05  0              4.8424005      0              0              2.9959722    
   1400000   4575           200            200            0.0055837911   0.00036366914  0              0.016387704    2.4845427e-05  0              2.3993935      0              0              2.9959715    
   1500000   4575           200            200            0.0055841095   0.00036367538  0              0.016388653    6.5703258e-07  0              0.063451504    0              0              2.9959713    
   1600000   4575           200            200            0.0055837264   0.00036366821  0              0.016387511    1.4785152e-07  0              0.014278441    0              0              2.9959715    
   1700000   4575           200            200            0.0055838191   0.00036366991  0              0.016387787    6.0177311e-08  0              0.005811494    0              0              2.9959714    
   1800000   4575           200            200            0.0055838379   0.00036367027  0              0.016387843    1.2280442e-09  0              0.00011859572  0              0              2.9959714    
   1900000   4575           200            200            0.0055838188   0.00036366991  0              0.016387786    4.2602051e-10  0              4.1142011e-05  0              0              2.9959714    
   2000000   4575           200            200            0.005583823    0.00036366999  0              0.016387799    1.446703e-10   0              1.3971222e-05  0              0              2.9959714    
   2100000   4575           200            200            0.0055838241   0.00036367001  0              0.016387802    2.1812996e-12  0              2.106543e-07   0              0              2.9959714    
   2200000   4575           200            200            0.0055838231   0.00036366999  0              0.016387799    1.2037383e-12  0              1.1624843e-07  0              0              2.9959714    
   2300000   4575           200            200            0.0055838233   0.00036367     0              0.0163878      3.4495194e-13  0              3.331299e-08   0              0              2.9959714    
   2400000   4575           200            200            0.0055838234   0.00036367     0              0.0163878      3.7068968e-15  0              3.5798556e-10  0              0              2.9959714    
   2500000   4575           200            200            0.0055838233   0.00036367     0              0.0163878      3.3204327e-15  0              3.2066362e-10  0              0              2.9959714    
   2600000   4575           200            200            0.0055838233   0.00036367     0              0.0163878      8.2237139e-16  0              7.9418743e-11  0              0              2.9959714    
   2700000   4575           200            200            0.0055838234   0.00036367     0              0.0163878      1.1945939e-18  0              1.1536533e-13  0              0              2.9959714    
   2800000   4575           200            200            0.0055838234   0.00036367     0              0.0163878      5.3229007e-18  0              5.1404765e-13  0              0              2.9959714    
   2900000   4575           200            200            0.0055838234   0.00036367     0              0.0163878      5.9808945e-18  0              5.7759198e-13  0              0              2.9959714    
   3000000   4575           200            200            0.0055838234   0.00036367     0              0.0163878      7.0291022e-18  0              6.7882038e-13  0              0              2.9959714    
Loop time of 265.626 on 4 procs for 3000000 steps with 2501 atoms

Performance: 9758070.927 ns/day, 0.000 hours/ns, 11294.064 timesteps/s
100.0% CPU use with 4 MPI tasks x 1 OpenMP threads

MPI task timing breakdown:
Section |  min time  |  avg time  |  max time  |%varavg| %total
---------------------------------------------------------------
Pair    | 44.469     | 59.971     | 75.46      | 198.1 | 22.58
Neigh   | 2.1281     | 2.1339     | 2.1396     |   0.4 |  0.80
Comm    | 23.804     | 38.938     | 54.176     | 239.8 | 14.66
Output  | 0.22497    | 0.22515    | 0.22534    |   0.0 |  0.08
Modify  | 109.19     | 127.19     | 146.22     | 159.5 | 47.88
Other   |            | 37.17      |            |       | 13.99

Nlocal:         625.25 ave         757 max         494 min
Histogram: 2 0 0 0 0 0 0 0 0 2
Nghost:           4.75 ave           6 max           4 min
Histogram: 2 0 0 0 0 1 0 0 0 1
Neighs:         755.25 ave         958 max         553 min
Histogram: 2 0 0 0 0 0 0 0 0 2

Total # of neighbors = 3021
Ave neighs/atom = 1.2079168
Neighbor list builds = 166
Dangerous builds = 0
  using 1 OpenMP thread(s) per MPI task
Lattice spacing in x,y,z = 3.06 3.06 3.06
Created orthogonal box = (-2295 -100 -100) to (2295 100 100)
  4 by 1 by 1 MPI processor grid
Created 1500 atoms
  using lattice units in orthogonal box = (-2295 -100 -100) to (2295 100 100)
  create_atoms CPU = 0.000 seconds
Lattice spacing in x,y,z = 3 3 3
Created 1001 atoms
  using lattice units in orthogonal box = (-2295 -100 -100) to (2295 100 100)
  create_atoms CPU = 0.001 seconds
Setting atom values ...
  1500 settings made for diameter
Setting atom values ...
  1500 settings made for mass
Setting atom values ...
  1001 settings made for diameter
Setting atom values ...
  1001 settings made for mass
1500 atoms in group substrate
1001 atoms in group slider1
  1 rigid bodies with 1001 atoms
Generated 0 of 1 mixed pair_coeff terms from geometric mixing rule
Neighbor list info ...
  update every 1 steps, delay 0 steps, check yes
  max neighbors/atom: 2000, page size: 100000
  master list distance cutoff = 3.1
  ghost atom cutoff = 3.1
  binsize = 1.55, bins = 2962 130 130
  1 neighbor lists, perpetual/occasional/extra = 1 0 0
  (1) pair granular, perpetual
      attributes: half, newton on, size, history
      pair build: half/size/bin/newton
      stencil: half/bin/3d
      bin: standard
Setting up Verlet run ...
  Unit style    : micro
  Current step  : 0
  Time step     : 1e-05
Per MPI rank memory allocation (min/avg/max) = 64.66 | 64.69 | 64.72 Mbytes
   Step           Lx             Ly             Lz           Press           Pxx            Pyy            Pzz           KinEng         PotEng          Temp          c_1[1]         c_1[2]         c_1[3]    
         0   4590           200            200            0              0              0              0              0              0              0              0              0              6            
    100000   4590           200            200            0.0044416458   8.7995346e-36  0              0.013324938    587406.43      0              5.6727508e+10  0              0              3.3246983    
    200000   4590           200            200            0.0015959484   4.3997556e-36  0              0.0047878452   146369.56      0              1.4135324e+10  0              0              3.0710118    
    300000   4590           200            200            0.00015449074  2.1998745e-36  0              0.00046347221  2747.3636      0              2.6532071e+08  0              0              3.04521      
    400000   4590           200            200            0.022663827    0.0022931022   0              0.065698378    4894.5343      0              4.7267908e+08  0              0              2.9917118    
    500000   4590           200            200            0.00044983581  1.7677909e-05  0              0.0013318295   59.171962      0              5714404.5      0              0              2.998801     
    600000   4590           200            200            0.006917818    0.00038547756  0              0.020367976    168.95141      0              16316118       0              0              2.995385     
    700000   4590           200            200            0.0047883739   0.00033587253  0              0.014029249    8.5633048      0              826982.68      0              0              2.9961696    
    800000   4590           200            200            0.0053057374   0.00034697193  0              0.01557024     1.8189499      0              175661.16      0              0              2.9959612    
    900000   4590           200            200            0.0056137425   0.00035176174  0              0.016489466    0.4529702      0              43744.62       0              0              2.995844     
   1000000   4590           200            200            0.005607411    0.0003516407   0              0.016470592    0.0013500373   0              130.37694      0              0              2.9958472    
   1100000   4590           200            200            0.0055645072   0.00035100534  0              0.016342516    0.0097220927   0              938.89012      0              0              2.9958635    
   1200000   4590           200            200            0.0055560202   0.00035088203  0              0.016317179    0.0002778949   0              26.8371        0              0              2.9958667    
   1300000   4590           200            200            0.0055599311   0.00035094158  0              0.016328852    9.2703142e-05  0              8.9526059      0              0              2.9958651    
   1400000   4590           200            200            0.0055619333   0.00035097124  0              0.016334829    1.8991634e-05  0              1.8340761      0              0              2.9958644    
   1500000   4590           200            200            0.0055618453   0.00035096973  0              0.016334566    1.1677102e-07  0              0.011276909    0              0              2.9958644    
   1600000   4590           200            200            0.0055615563   0.00035096541  0              0.016333703    4.3840716e-07  0              0.042338225    0              0              2.9958645    
   1700000   4590           200            200            0.0055615047   0.00035096466  0              0.01633355     9.831573e-09   0              0.00094946295  0              0              2.9958646    
   1800000   4590           200            200            0.0055615324   0.00035096508  0              0.016333632    4.552358e-09   0              0.00043963415  0              0              2.9958645    
   1900000   4590           200            200            0.0055615454   0.00035096527  0              0.016333671    7.9277491e-10  0              7.6560527e-05  0              0              2.9958645    
   2000000   4590           200            200            0.0055615445   0.00035096526  0              0.016333668    8.5066034e-12  0              8.2150687e-07  0              0              2.9958645    
   2100000   4590           200            200            0.0055615426   0.00035096523  0              0.016333662    1.9656982e-11  0              1.8983307e-06  0              0              2.9958645    
   2200000   4590           200            200            0.0055615423   0.00035096523  0              0.016333662    3.3596025e-13  0              3.2444637e-08  0              0              2.9958645    
   2300000   4590           200            200            0.0055615425   0.00035096523  0              0.016333662    2.2123579e-13  0              2.1365369e-08  0              0              2.9958645    
   2400000   4590           200            200            0.0055615425   0.00035096523  0              0.016333662    3.2780843e-14  0              3.1657392e-09  0              0              2.9958645    
   2500000   4590           200            200            0.0055615425   0.00035096523  0              0.016333662    6.0383227e-16  0              5.8313799e-11  0              0              2.9958645    
   2600000   4590           200            200            0.0055615425   0.00035096523  0              0.016333662    8.77539e-16    0              8.4746436e-11  0              0              2.9958645    
   2700000   4590           200            200            0.0055615425   0.00035096523  0              0.016333662    2.606476e-18   0              2.5171479e-13  0              0              2.9958645    
   2800000   4590           200            200            0.0055615425   0.00035096523  0              0.016333662    8.4673127e-18  0              8.1771246e-13  0              0              2.9958645    
   2900000   4590           200            200            0.0055615425   0.00035096523  0              0.016333662    2.7451772e-18  0              2.6510956e-13  0              0              2.9958645    
   3000000   4590           200            200            0.0055615425   0.00035096523  0              0.016333662    5.0238644e-18  0              4.8516886e-13  0              0              2.9958645    
Loop time of 263.162 on 4 procs for 3000000 steps with 2501 atoms

Performance: 9849453.774 ns/day, 0.000 hours/ns, 11399.831 timesteps/s
100.0% CPU use with 4 MPI tasks x 1 OpenMP threads

MPI task timing breakdown:
Section |  min time  |  avg time  |  max time  |%varavg| %total
---------------------------------------------------------------
Pair    | 43.925     | 59.356     | 74.887     | 199.5 | 22.55
Neigh   | 2.1104     | 2.1152     | 2.1205     |   0.3 |  0.80
Comm    | 23.774     | 38.843     | 54.607     | 241.8 | 14.76
Output  | 0.22396    | 0.22413    | 0.22433    |   0.0 |  0.09
Modify  | 107.63     | 126.09     | 144.65     | 159.4 | 47.91
Other   |            | 36.54      |            |       | 13.88

Nlocal:         625.25 ave         758 max         493 min
Histogram: 2 0 0 0 0 0 0 0 0 2
Nghost:           4.75 ave           6 max           4 min
Histogram: 2 0 0 0 0 1 0 0 0 1
Neighs:         755.25 ave         960 max         550 min
Histogram: 2 0 0 0 0 0 0 0 0 2

Total # of neighbors = 3021
Ave neighs/atom = 1.2079168
Neighbor list builds = 164
Dangerous builds = 0
  using 1 OpenMP thread(s) per MPI task
Lattice spacing in x,y,z = 3.07 3.07 3.07
Created orthogonal box = (-2302.5 -100 -100) to (2302.5 100 100)
  4 by 1 by 1 MPI processor grid
Created 1500 atoms
  using lattice units in orthogonal box = (-2302.5 -100 -100) to (2302.5 100 100)
  create_atoms CPU = 0.000 seconds
Lattice spacing in x,y,z = 3 3 3
Created 1001 atoms
  using lattice units in orthogonal box = (-2302.5 -100 -100) to (2302.5 100 100)
  create_atoms CPU = 0.001 seconds
Setting atom values ...
  1500 settings made for diameter
Setting atom values ...
  1500 settings made for mass
Setting atom values ...
  1001 settings made for diameter
Setting atom values ...
  1001 settings made for mass
1500 atoms in group substrate
1001 atoms in group slider1
  1 rigid bodies with 1001 atoms
Generated 0 of 1 mixed pair_coeff terms from geometric mixing rule
Neighbor list info ...
  update every 1 steps, delay 0 steps, check yes
  max neighbors/atom: 2000, page size: 100000
  master list distance cutoff = 3.1
  ghost atom cutoff = 3.1
  binsize = 1.55, bins = 2971 130 130
  1 neighbor lists, perpetual/occasional/extra = 1 0 0
  (1) pair granular, perpetual
      attributes: half, newton on, size, history
      pair build: half/size/bin/newton
      stencil: half/bin/3d
      bin: standard
Setting up Verlet run ...
  Unit style    : micro
  Current step  : 0
  Time step     : 1e-05
Per MPI rank memory allocation (min/avg/max) = 64.86 | 64.86 | 64.86 Mbytes
   Step           Lx             Ly             Lz           Press           Pxx            Pyy            Pzz           KinEng         PotEng          Temp          c_1[1]         c_1[2]         c_1[3]    
         0   4605           200            200            0              0              0              0              0              0              0              0              0              6            
    100000   4605           200            200            0.0044293488  -5.4817685e-37  0              0.013288047    587837.62      0              5.676915e+10   0              0              3.3243601    
    200000   4605           200            200            0.0015958197   4.3854198e-36  0              0.004787459    147098.54      0              1.4205724e+10  0              0              3.0704122    
    300000   4605           200            200            0.00016233244  1.0152844e-45  0              0.00048699731  3033.2672      0              2.9293123e+08  0              0              3.0451108    
    400000   4605           200            200            0.026361899    0.00024659806  0              0.0788391      2236.9955      0              2.1603301e+08  0              0              2.9910343    
    500000   4605           200            200            0.00038531067 -0.00033387667  0              0.0014898087   131.96834      0              12744557       0              0              2.9988093    
    600000   4605           200            200            0.007010766   -0.00077559657  0              0.021807895    120.45988      0              11633153       0              0              2.9952665    
    700000   4605           200            200            0.0061266756  -0.00075308845  0              0.019133115    0.76209318     0              73597.504      0              0              2.9955761    
    800000   4605           200            200            0.0055045027  -0.00079337763  0              0.017306886    0.13124526     0              12674.728      0              0              2.9957948    
    900000   4605           200            200            0.005272758   -0.00080407731  0              0.016622351    0.10949796     0              10574.529      0              0              2.9958793    
   1000000   4605           200            200            0.0051950741  -0.00079978861  0              0.016385011    0.033353263    0              3221.0194      0              0              2.9959088    
   1100000   4605           200            200            0.0051700522  -0.00079843188  0              0.016308589    0.00714621     0              690.12982      0              0              2.9959183    
   1200000   4605           200            200            0.0051627896  -0.00079804304  0              0.016286412    0.0012389378   0              119.64775      0              0              2.995921     
   1300000   4605           200            200            0.0051610209  -0.00079794995  0              0.016281013    0.0001825407   0              17.628474      0              0              2.9959217    
   1400000   4605           200            200            0.0051607482  -0.00079793642  0              0.016280181    2.3185387e-05  0              2.2390787      0              0              2.9959218    
   1500000   4605           200            200            0.0051607936  -0.00079793939  0              0.01628032     2.5148399e-06  0              0.24286524     0              0              2.9959218    
   1600000   4605           200            200            0.0051608625  -0.00079794331  0              0.016280531    2.2376367e-07  0              0.021609494    0              0              2.9959217    
   1700000   4605           200            200            0.0051609051  -0.00079794569  0              0.016280661    1.4630564e-08  0              0.0014129151   0              0              2.9959217    
   1800000   4605           200            200            0.0051609259  -0.00079794684  0              0.016280725    4.7653443e-10  0              4.6020285e-05  0              0              2.9959217    
   1900000   4605           200            200            0.0051609349  -0.00079794733  0              0.016280752    7.3044615e-13  0              7.0541261e-08  0              0              2.9959217    
   2000000   4605           200            200            0.0051609385  -0.00079794753  0              0.016280763    1.2575639e-11  0              1.2144652e-06  0              0              2.9959217    
   2100000   4605           200            200            0.0051609398  -0.0007979476   0              0.016280767    5.7254375e-12  0              5.5292177e-07  0              0              2.9959217    
   2200000   4605           200            200            0.0051609403  -0.00079794762  0              0.016280768    1.4764947e-12  0              1.4258929e-07  0              0              2.9959217    
   2300000   4605           200            200            0.0051609404  -0.00079794763  0              0.016280769    2.8858225e-13  0              2.7869208e-08  0              0              2.9959217    
   2400000   4605           200            200            0.0051609404  -0.00079794763  0              0.016280769    4.6744824e-14  0              4.5142805e-09  0              0              2.9959217    
   2500000   4605           200            200            0.0051609404  -0.00079794763  0              0.016280769    6.4993512e-15  0              6.2766082e-10  0              0              2.9959217    
   2600000   4605           200            200            0.0051609404  -0.00079794763  0              0.016280769    7.8456444e-16  0              7.5767618e-11  0              0              2.9959217    
   2700000   4605           200            200            0.0051609404  -0.00079794763  0              0.016280769    6.0390625e-17  0              5.8320943e-12  0              0              2.9959217    
   2800000   4605           200            200            0.0051609404  -0.00079794763  0              0.016280769    5.5843133e-18  0              5.39293e-13    0              0              2.9959217    
   2900000   4605           200            200            0.0051609404  -0.00079794763  0              0.016280769    6.9110742e-18  0              6.6742208e-13  0              0              2.9959217    
   3000000   4605           200            200            0.0051609404  -0.00079794763  0              0.016280769    7.6499207e-18  0              7.3877458e-13  0              0              2.9959217    
Loop time of 262.712 on 4 procs for 3000000 steps with 2501 atoms

Performance: 9866331.046 ns/day, 0.000 hours/ns, 11419.365 timesteps/s
100.0% CPU use with 4 MPI tasks x 1 OpenMP threads

MPI task timing breakdown:
Section |  min time  |  avg time  |  max time  |%varavg| %total
---------------------------------------------------------------
Pair    | 44.57      | 59.649     | 74.654     | 193.6 | 22.71
Neigh   | 2.1408     | 2.1487     | 2.1562     |   0.4 |  0.82
Comm    | 23.658     | 38.432     | 53.546     | 235.5 | 14.63
Output  | 0.22728    | 0.22746    | 0.22765    |   0.0 |  0.09
Modify  | 107.54     | 125.88     | 143.83     | 158.8 | 47.91
Other   |            | 36.38      |            |       | 13.85

Nlocal:         625.25 ave         759 max         492 min
Histogram: 2 0 0 0 0 0 0 0 0 2
Nghost:           4.75 ave           6 max           4 min
Histogram: 2 0 0 0 0 1 0 0 0 1
Neighs:         753.75 ave         951 max         557 min
Histogram: 2 0 0 0 0 0 0 0 0 2

Total # of neighbors = 3015
Ave neighs/atom = 1.2055178
Neighbor list builds = 166
Dangerous builds = 0
  using 1 OpenMP thread(s) per MPI task
Lattice spacing in x,y,z = 3.08 3.08 3.08
Created orthogonal box = (-2310 -100 -100) to (2310 100 100)
  4 by 1 by 1 MPI processor grid
Created 1500 atoms
  using lattice units in orthogonal box = (-2310 -100 -100) to (2310 100 100)
  create_atoms CPU = 0.001 seconds
Lattice spacing in x,y,z = 3 3 3
Created 1001 atoms
  using lattice units in orthogonal box = (-2310 -100 -100) to (2310 100 100)
  create_atoms CPU = 0.001 seconds
Setting atom values ...
  1500 settings made for diameter
Setting atom values ...
  1500 settings made for mass
Setting atom values ...
  1001 settings made for diameter
Setting atom values ...
  1001 settings made for mass
1500 atoms in group substrate
1001 atoms in group slider1
  1 rigid bodies with 1001 atoms
Generated 0 of 1 mixed pair_coeff terms from geometric mixing rule
Neighbor list info ...
  update every 1 steps, delay 0 steps, check yes
  max neighbors/atom: 2000, page size: 100000
  master list distance cutoff = 3.1
  ghost atom cutoff = 3.1
  binsize = 1.55, bins = 2981 130 130
  1 neighbor lists, perpetual/occasional/extra = 1 0 0
  (1) pair granular, perpetual
      attributes: half, newton on, size, history
      pair build: half/size/bin/newton
      stencil: half/bin/3d
      bin: standard
Setting up Verlet run ...
  Unit style    : micro
  Current step  : 0
  Time step     : 1e-05
Per MPI rank memory allocation (min/avg/max) = 65.07 | 65.07 | 65.07 Mbytes
   Step           Lx             Ly             Lz           Press           Pxx            Pyy            Pzz           KinEng         PotEng          Temp          c_1[1]         c_1[2]         c_1[3]    
         0   4620           200            200            0              0              0              0              0              0              0              0              0              6            
    100000   4620           200            200            0.004414332    1.1885491e-42  0              0.013242996    587710.94      0              5.6756916e+10  0              0              3.3244591    
    200000   4620           200            200            0.0015891435   1.3659929e-36  0              0.0047674306   146882.76      0              1.4184886e+10  0              0              3.0705901    
    300000   4620           200            200            0.0001594003   1.3819976e-42  0              0.0004782009   2949.3246      0              2.8482466e+08  0              0              3.0451396    
    400000   4620           200            200            0.017622921   -0.022231204    0              0.075099966    2962.4763      0              2.8609476e+08  0              0              2.9911972    
    500000   4620           200            200            0.00021383424 -0.00055122369  0              0.0011927264   30.013713      0              2898509.6      0              0              2.9988946    
    600000   4620           200            200            0.0061267245  -0.0054766217   0              0.023856795    29.68101       0              2866379.5      0              0              2.9950187    
    700000   4620           200            200            0.0041065931  -0.0041322376   0              0.016452017    29.979359      0              2895191.9      0              0              2.9958715    
    800000   4620           200            200            0.0038167969  -0.0041331742   0              0.015583565    2.3924572      0              231046.39      0              0              2.9959783    
    900000   4620           200            200            0.0041269035  -0.0041851715   0              0.016565882    0.089608275    0              8653.7258      0              0              2.9958511    
   1000000   4620           200            200            0.0039773813  -0.0041611005   0              0.016093244    0.00021951482  0              21.19917       0              0              2.9959126    
   1100000   4620           200            200            0.0040333182  -0.004170458    0              0.016270413    0.0024997053   0              241.40364      0              0              2.9958893    
   1200000   4620           200            200            0.004016772   -0.0041676975   0              0.016218014    0.00094259669  0              91.029241      0              0              2.9958962    
   1300000   4620           200            200            0.0040200459  -0.0041682589   0              0.016228396    0.0001782798   0              17.216987      0              0              2.9958948    
   1400000   4620           200            200            0.004020133   -0.0041682651   0              0.016228664    2.11391e-05    0              2.041463       0              0              2.9958948    
   1500000   4620           200            200            0.0040196349  -0.0041681855   0              0.01622709     1.4608284e-06  0              0.14107635     0              0              2.995895     
   1600000   4620           200            200            0.0040199491  -0.0041682368   0              0.016228084    2.9297966e-08  0              0.0028293878   0              0              2.9958949    
   1700000   4620           200            200            0.0040198107  -0.004168214    0              0.016227646    2.5899447e-09  0              0.00025011832  0              0              2.995895     
   1800000   4620           200            200            0.0040198589  -0.004168222    0              0.016227799    3.1763336e-09  0              0.00030674756  0              0              2.9958949    
   1900000   4620           200            200            0.004019846   -0.0041682198   0              0.016227758    9.0076552e-10  0              8.6989486e-05  0              0              2.9958949    
   2000000   4620           200            200            0.0040198479  -0.0041682201   0              0.016227764    1.4496167e-10  0              1.3999361e-05  0              0              2.9958949    
   2100000   4620           200            200            0.0040198484  -0.0041682202   0              0.016227765    1.4695935e-11  0              1.4192282e-06  0              0              2.9958949    
   2200000   4620           200            200            0.0040198478  -0.0041682201   0              0.016227764    7.8325884e-13  0              7.5641532e-08  0              0              2.9958949    
[...]
   2900000   5955           200            200            0.0041028695  -0.00027900088  0              0.012587609    3.7422567e-19  0              3.6140037e-14  1.1965779e-13  0              2.9953732    
   3000000   5955           200            200            0.0041028695  -0.00027900088  0              0.012587609    9.2191758e-19  0              8.9032201e-14  1.1965779e-13  0              2.9953732    
Loop time of 293.729 on 4 procs for 3000000 steps with 2501 atoms

Performance: 8824453.645 ns/day, 0.000 hours/ns, 10213.488 timesteps/s
100.0% CPU use with 4 MPI tasks x 1 OpenMP threads

MPI task timing breakdown:
Section |  min time  |  avg time  |  max time  |%varavg| %total
---------------------------------------------------------------
Pair    | 11.7       | 38.272     | 65.007     | 428.3 | 13.03
Neigh   | 3.6629     | 3.7401     | 3.8176     |   3.6 |  1.27
Comm    | 27.533     | 54.479     | 80.957     | 355.2 | 18.55
Output  | 0.26212    | 0.26243    | 0.26275    |   0.1 |  0.09
Modify  | 107.32     | 141.78     | 175.76     | 281.8 | 48.27
Other   |            | 55.2       |            |       | 18.79

Nlocal:         625.25 ave         872 max         379 min
Histogram: 2 0 0 0 0 0 0 0 0 2
Nghost:           2.75 ave           4 max           2 min
Histogram: 2 0 0 0 0 1 0 0 0 1
Neighs:         348.75 ave         692 max           6 min
Histogram: 2 0 0 0 0 0 0 0 0 2

Total # of neighbors = 1395
Ave neighs/atom = 0.55777689
Neighbor list builds = 164
Dangerous builds = 0
  using 1 OpenMP thread(s) per MPI task
Lattice spacing in x,y,z = 3.98 3.98 3.98
Created orthogonal box = (-2985 -100 -100) to (2985 100 100)
  4 by 1 by 1 MPI processor grid
Created 1500 atoms
  using lattice units in orthogonal box = (-2985 -100 -100) to (2985 100 100)
  create_atoms CPU = 0.001 seconds
Lattice spacing in x,y,z = 3 3 3
Created 1001 atoms
  using lattice units in orthogonal box = (-2985 -100 -100) to (2985 100 100)
  create_atoms CPU = 0.001 seconds
Setting atom values ...
  1500 settings made for diameter
Setting atom values ...
  1500 settings made for mass
Setting atom values ...
  1001 settings made for diameter
Setting atom values ...
  1001 settings made for mass
1500 atoms in group substrate
1001 atoms in group slider1
  1 rigid bodies with 1001 atoms
Generated 0 of 1 mixed pair_coeff terms from geometric mixing rule
Neighbor list info ...
  update every 1 steps, delay 0 steps, check yes
  max neighbors/atom: 2000, page size: 100000
  master list distance cutoff = 3.1
  ghost atom cutoff = 3.1
  binsize = 1.55, bins = 3852 130 130
  1 neighbor lists, perpetual/occasional/extra = 1 0 0
  (1) pair granular, perpetual
      attributes: half, newton on, size, history
      pair build: half/size/bin/newton
      stencil: half/bin/3d
      bin: standard
Setting up Verlet run ...
  Unit style    : micro
  Current step  : 0
  Time step     : 1e-05
Per MPI rank memory allocation (min/avg/max) = 80.16 | 80.16 | 80.17 Mbytes
   Step           Lx             Ly             Lz           Press           Pxx            Pyy            Pzz           KinEng         PotEng          Temp          c_1[1]         c_1[2]         c_1[3]    
         0   5970           200            200            0              0              0              0              0              0              0              1.1965779e-13  0              6            
    100000   5970           200            200            0.00340373     4.1921553e-40  0              0.01021119     584523.24      0              5.644907e+10   1.1965779e-13  0              3.3269652    
    200000   5970           200            200            0.0012004403   1.8943281e-34  0              0.0036013208   141440.17      0              1.365928e+10   1.1965779e-13  0              3.0750838    
    300000   5970           200            200            7.6445147e-05  3.9063463e-41  0              0.00022933544  1190.595       0              1.1497915e+08  1.1965779e-13  0              3.045505     
    400000   5970           200            200            0.00034164954 -4.7638431e-05  0              0.0010725871   8011.0044      0              7.7364547e+08  1.1965779e-13  0              2.9991226    
    500000   5970           200            200            0.0041140856  -0.0011501012   0              0.013492358    1583.2772      0              1.5290158e+08  1.1965779e-13  0              2.9951988    
    600000   5970           200            200            0.0045665854  -0.0020107888   0              0.015710545    144.38267      0              13943445       1.1965779e-13  0              2.9947542    
    700000   5970           200            200            0.0037613132  -0.0015611074   0              0.012845047    28.244038      0              2727607        1.1965779e-13  0              2.9952748    
    800000   5970           200            200            0.0035062969  -0.0013228041   0              0.011841695    0.033497603    0              3234.9588      1.1965779e-13  0              2.9954558    
    900000   5970           200            200            0.0037387739  -0.0014109751   0              0.012627297    0.47999735     0              46354.708      1.1965779e-13  0              2.9953078    
   1000000   5970           200            200            0.0037439868  -0.001411312    0              0.012643273    0.014134401    0              1364.9993      1.1965779e-13  0              2.9953058    
   1100000   5970           200            200            0.0037089061  -0.0014077962   0              0.012534515    0.0060345981   0              582.77829      1.1965779e-13  0              2.9953259    
   1200000   5970           200            200            0.0037128457  -0.0014082288   0              0.012546766    0.00068610393  0              66.259007      1.1965779e-13  0              2.9953235    
   1300000   5970           200            200            0.0037170512  -0.0014086576   0              0.012559811    4.9588831e-05  0              4.7889344      1.1965779e-13  0              2.9953211    
   1400000   5970           200            200            0.0037159688  -0.001408544    0              0.012556451    1.9839779e-05  0              1.9159838      1.1965779e-13  0              2.9953217    
   1500000   5970           200            200            0.0037155437  -0.0014085012   0              0.012555132    1.3362262e-07  0              0.012904316    1.1965779e-13  0              2.995322     
   1600000   5970           200            200            0.0037157453  -0.0014085222   0              0.012555758    4.2034076e-07  0              0.040593502    1.1965779e-13  0              2.9953219    
   1700000   5970           200            200            0.0037157762  -0.0014085252   0              0.012555854    1.2733223e-09  0              0.00012296835  1.1965779e-13  0              2.9953218    
   1800000   5970           200            200            0.003715745   -0.001408522    0              0.012555757    6.8429176e-09  0              0.00066084     1.1965779e-13  0              2.9953219    
   1900000   5970           200            200            0.0037157449  -0.001408522    0              0.012555757    2.4493852e-10  0              2.3654409e-05  1.1965779e-13  0              2.9953219    
   2000000   5970           200            200            0.0037157491  -0.0014085224   0              0.01255577     8.2817263e-11  0              7.9978985e-06  1.1965779e-13  0              2.9953219    
   2100000   5970           200            200            0.0037157486  -0.0014085224   0              0.012555768    1.0905273e-11  0              1.0531532e-06  1.1965779e-13  0              2.9953219    
   2200000   5970           200            200            0.0037157481  -0.0014085223   0              0.012555767    6.3027562e-13  0              6.0867508e-08  1.1965779e-13  0              2.9953219    
   2300000   5970           200            200            0.0037157482  -0.0014085223   0              0.012555767    3.0178889e-13  0              2.9144611e-08  1.1965779e-13  0              2.9953219    
   2400000   5970           200            200            0.0037157483  -0.0014085223   0              0.012555767    1.1887709e-15  0              1.1480299e-10  1.1965779e-13  0              2.9953219    
   2500000   5970           200            200            0.0037157483  -0.0014085223   0              0.012555767    6.1734765e-15  0              5.9619017e-10  1.1965779e-13  0              2.9953219    
   2600000   5970           200            200            0.0037157483  -0.0014085223   0              0.012555767    4.1379199e-17  0              3.9961069e-12  1.1965779e-13  0              2.9953219    
   2700000   5970           200            200            0.0037157483  -0.0014085223   0              0.012555767    9.3298731e-17  0              9.0101236e-12  1.1965779e-13  0              2.9953219    
   2800000   5970           200            200            0.0037157483  -0.0014085223   0              0.012555767    6.7420654e-19  0              6.5110042e-14  1.1965779e-13  0              2.9953219    
   2900000   5970           200            200            0.0037157483  -0.0014085223   0              0.012555767    4.430044e-19   0              4.2782194e-14  1.1965779e-13  0              2.9953219    
   3000000   5970           200            200            0.0037157483  -0.0014085223   0              0.012555767    2.0846438e-18  0              2.0131997e-13  1.1965779e-13  0              2.9953219    
Loop time of 295.339 on 4 procs for 3000000 steps with 2501 atoms

Performance: 8776341.113 ns/day, 0.000 hours/ns, 10157.802 timesteps/s
100.0% CPU use with 4 MPI tasks x 1 OpenMP threads

MPI task timing breakdown:
Section |  min time  |  avg time  |  max time  |%varavg| %total
---------------------------------------------------------------
Pair    | 11.686     | 38.415     | 65.244     | 431.1 | 13.01
Neigh   | 3.6242     | 3.7013     | 3.7786     |   3.5 |  1.25
Comm    | 29.124     | 55.846     | 83.703     | 352.6 | 18.91
Output  | 0.26098    | 0.26128    | 0.2616     |   0.1 |  0.09
Modify  | 105.98     | 141.72     | 175.92     | 282.3 | 47.99
Other   |            | 55.4       |            |       | 18.76

Nlocal:         625.25 ave         873 max         378 min
Histogram: 2 0 0 0 0 0 0 0 0 2
Nghost:           2.75 ave           4 max           2 min
Histogram: 2 0 0 0 0 1 0 0 0 1
Neighs:         349.75 ave         695 max           4 min
Histogram: 2 0 0 0 0 0 0 0 0 2

Total # of neighbors = 1399
Ave neighs/atom = 0.55937625
Neighbor list builds = 164
Dangerous builds = 0
  using 1 OpenMP thread(s) per MPI task
Lattice spacing in x,y,z = 3.99 3.99 3.99
Created orthogonal box = (-2992.5 -100 -100) to (2992.5 100 100)
  4 by 1 by 1 MPI processor grid
Created 1500 atoms
  using lattice units in orthogonal box = (-2992.5 -100 -100) to (2992.5 100 100)
  create_atoms CPU = 0.000 seconds
Lattice spacing in x,y,z = 3 3 3
Created 1001 atoms
  using lattice units in orthogonal box = (-2992.5 -100 -100) to (2992.5 100 100)
  create_atoms CPU = 0.001 seconds
Setting atom values ...
  1500 settings made for diameter
Setting atom values ...
  1500 settings made for mass
Setting atom values ...
  1001 settings made for diameter
Setting atom values ...
  1001 settings made for mass
1500 atoms in group substrate
1001 atoms in group slider1
  1 rigid bodies with 1001 atoms
Generated 0 of 1 mixed pair_coeff terms from geometric mixing rule
Neighbor list info ...
  update every 1 steps, delay 0 steps, check yes
  max neighbors/atom: 2000, page size: 100000
  master list distance cutoff = 3.1
  ghost atom cutoff = 3.1
  binsize = 1.55, bins = 3862 130 130
  1 neighbor lists, perpetual/occasional/extra = 1 0 0
  (1) pair granular, perpetual
      attributes: half, newton on, size, history
      pair build: half/size/bin/newton
      stencil: half/bin/3d
      bin: standard
Setting up Verlet run ...
  Unit style    : micro
  Current step  : 0
  Time step     : 1e-05
Per MPI rank memory allocation (min/avg/max) = 80.31 | 80.34 | 80.37 Mbytes
   Step           Lx             Ly             Lz           Press           Pxx            Pyy            Pzz           KinEng         PotEng          Temp          c_1[1]         c_1[2]         c_1[3]    
         0   5985           200            200            0              0              0              0              0              0              0              1.1965779e-13  0              6            
    100000   5985           200            200            0.0033940944   1.265341e-36   0              0.010182283    584269.47      0              5.6424563e+10  1.1965779e-13  0              3.3269377    
    200000   5985           200            200            0.0011948976   5.3988245e-35  0              0.0035846929   140985.46      0              1.3615366e+10  1.1965779e-13  0              3.0751801    
    300000   5985           200            200            6.9519863e-05  4.1926163e-41  0              0.00020855959  997.24958      0              96307227       1.1965779e-13  0              3.0453442    
    400000   5985           200            200            0.00018242955  1.3497057e-35  0              0.00054728866  6266.3921      0              6.051633e+08   1.1965779e-13  0              3.0006992    
    500000   5985           200            200            0.00081520457 -0.0002010005   0              0.0026466142   369.4778       0              35681521       1.1965779e-13  0              2.9978303    
    600000   5985           200            200            0.0026289502  -0.0016403448   0              0.0095271954   133.49784      0              12892266       1.1965779e-13  0              2.995792     
    700000   5985           200            200            0.0039488082  -0.0024720588   0              0.014318484    4.240355       0              409503.13      1.1965779e-13  0              2.9948248    
    800000   5985           200            200            0.0033879646  -0.0023356349   0              0.012499529    3.7793161      0              364979.3       1.1965779e-13  0              2.9951633    
    900000   5985           200            200            0.003323404   -0.0023252245   0              0.012295437    0.10053941     0              9709.3764      1.1965779e-13  0              2.9952058    
   1000000   5985           200            200            0.0034196207  -0.0023395518   0              0.012598414    0.026030287    0              2513.8188      1.1965779e-13  0              2.9951467    
   1100000   5985           200            200            0.0033980462  -0.0023365291   0              0.012530668    0.008852356    0              854.89718      1.1965779e-13  0              2.9951595    
   1200000   5985           200            200            0.0033919002  -0.0023356039   0              0.012511304    6.7116229e-05  0              6.481605       1.1965779e-13  0              2.9951634    
   1300000   5985           200            200            0.0033967618  -0.0023363105   0              0.012526596    0.0001015652   0              9.8084404      1.1965779e-13  0              2.9951604    
   1400000   5985           200            200            0.0033960441  -0.0023362108   0              0.012524343    1.8583442e-05  0              1.7946558      1.1965779e-13  0              2.9951609    
   1500000   5985           200            200            0.0033956169  -0.0023361474   0              0.012522998    1.6226809e-10  0              1.5670691e-05  1.1965779e-13  0              2.9951611    
   1600000   5985           200            200            0.0033958496  -0.002336181    0              0.01252373     3.3311127e-07  0              0.032169502    1.1965779e-13  0              2.995161     
   1700000   5985           200            200            0.0033958332  -0.0023361788   0              0.012523678    3.4349519e-08  0              0.0033172306   1.1965779e-13  0              2.995161     
   1800000   5985           200            200            0.003395807   -0.002336175    0              0.012523596    3.5540308e-10  0              3.4322285e-05  1.1965779e-13  0              2.995161     
   1900000   5985           200            200            0.0033958175  -0.0023361765   0              0.012523629    9.6015736e-10  0              9.2725125e-05  1.1965779e-13  0              2.995161     
   2000000   5985           200            200            0.0033958177  -0.0023361765   0              0.01252363     5.3521635e-11  0              5.1687364e-06  1.1965779e-13  0              2.995161     
   2100000   5985           200            200            0.0033958162  -0.0023361763   0              0.012523625    3.4220996e-12  0              3.3048188e-07  1.1965779e-13  0              2.995161     
   2200000   5985           200            200            0.0033958167  -0.0023361764   0              0.012523626    2.481433e-12   0              2.3963904e-07  1.1965779e-13  0              2.995161     
   2300000   5985           200            200            0.0033958167  -0.0023361764   0              0.012523627    6.3356499e-14  0              6.1185172e-09  1.1965779e-13  0              2.995161     
   2400000   5985           200            200            0.0033958167  -0.0023361764   0              0.012523626    1.7407743e-14  0              1.6811152e-09  1.1965779e-13  0              2.995161     
   2500000   5985           200            200            0.0033958167  -0.0023361764   0              0.012523626    5.7690033e-15  0              5.5712904e-10  1.1965779e-13  0              2.995161     
   2600000   5985           200            200            0.0033958167  -0.0023361764   0              0.012523626    3.74509e-17    0              3.6167398e-12  1.1965779e-13  0              2.995161     
   2700000   5985           200            200            0.0033958167  -0.0023361764   0              0.012523626    6.4150042e-17  0              6.1951519e-12  1.1965779e-13  0              2.995161     
   2800000   5985           200            200            0.0033958167  -0.0023361764   0              0.012523626    1.3843034e-17  0              1.3368611e-12  1.1965779e-13  0              2.995161     
   2900000   5985           200            200            0.0033958167  -0.0023361764   0              0.012523626    9.0143643e-19  0              8.7054278e-14  1.1965779e-13  0              2.995161     
   3000000   5985           200            200            0.0033958167  -0.0023361764   0              0.012523626    1.6942423e-18  0              1.636178e-13   1.1965779e-13  0              2.995161     
Loop time of 294.376 on 4 procs for 3000000 steps with 2501 atoms

Performance: 8805069.142 ns/day, 0.000 hours/ns, 10191.052 timesteps/s
100.0% CPU use with 4 MPI tasks x 1 OpenMP threads

MPI task timing breakdown:
Section |  min time  |  avg time  |  max time  |%varavg| %total
---------------------------------------------------------------
Pair    | 11.505     | 38.252     | 65.057     | 430.4 | 12.99
Neigh   | 3.6508     | 3.7288     | 3.8069     |   3.6 |  1.27
Comm    | 27.844     | 54.541     | 81.305     | 356.3 | 18.53
Output  | 0.26406    | 0.26436    | 0.26469    |   0.1 |  0.09
Modify  | 107.16     | 141.98     | 176.38     | 282.7 | 48.23
Other   |            | 55.61      |            |       | 18.89

Nlocal:         625.25 ave         874 max         377 min
Histogram: 2 0 0 0 0 0 0 0 0 2
Nghost:           2.75 ave           4 max           2 min
Histogram: 2 0 0 0 0 1 0 0 0 1
Neighs:         351.75 ave         701 max           3 min
Histogram: 2 0 0 0 0 0 0 0 0 2

Total # of neighbors = 1407
Ave neighs/atom = 0.56257497
Neighbor list builds = 164
Dangerous builds = 0
  using 1 OpenMP thread(s) per MPI task
Total wall time: 7:31:47
