ITEM: TIMESTEP
2270000
ITEM: NUMBER OF ATOMS
50
ITEM: BOX BOUNDS pp pp pp
-4.7399999999999999e+01 4.7399999999999999e+01
-1.0000000000000000e+02 1.0000000000000000e+02
-1.0000000000000000e+02 1.0000000000000000e+02
ITEM: ATOMS id type diameter mass xu yu zu fx fy fz
1 1 3 31.1018 -44.24 0 0 0 0 0
2 1 3 31.1018 -41.08 0 0 0 0 0
3 1 3 31.1018 -37.92 0 0 0 0 0
4 1 3 31.1018 -34.76 0 0 0 0 0
5 1 3 31.1018 -31.6 0 0 0 0 0
6 1 3 31.1018 -28.44 0 0 0 0 0
7 1 3 31.1018 -25.28 0 0 0 0 0
8 1 3 31.1018 -22.12 0 0 0 0 0
9 1 3 31.1018 -18.96 0 0 0 0 0
10 1 3 31.1018 -15.8 0 0 0 0 0
11 1 3 31.1018 -12.64 0 0 0 0 0
12 1 3 31.1018 -9.48 0 0 0 0 0
13 1 3 31.1018 -6.32 0 0 0 0 0
14 1 3 31.1018 -3.16 0 0 0 0 0
15 1 3 31.1018 0 0 0 0 0 0
16 1 3 31.1018 3.16 0 0 0 0 0
17 1 3 31.1018 6.32 0 0 0 0 0
18 1 3 31.1018 9.48 0 0 0 0 0
19 1 3 31.1018 12.64 0 0 0 0 0
20 1 3 31.1018 15.8 0 0 0 0 0
21 1 3 31.1018 18.96 0 0 0 0 0
22 1 3 31.1018 22.12 0 0 0 0 0
23 1 3 31.1018 25.28 0 0 0 0 0
24 1 3 31.1018 28.44 0 0 0 0 0
25 1 3 31.1018 31.6 0 0 0 0 0
26 1 3 31.1018 34.76 0 0 0 0 0
27 1 3 31.1018 37.92 0 0 0 0 0
28 1 3 31.1018 41.08 0 0 0 0 0
29 1 3 31.1018 44.24 0 0 0 0 0
30 2 3 31.1018 -30 0 2.99536 0 0 -1000
31 2 3 31.1018 -27 0 2.99536 0 0 -1000
32 2 3 31.1018 -24 0 2.99536 0 0 -1000
33 2 3 31.1018 -21 0 2.99536 0 0 -1000
34 2 3 31.1018 -18 0 2.99536 0 0 -1000
35 2 3 31.1018 -15 0 2.99536 0 0 -1000
36 2 3 31.1018 -12 0 2.99536 0 0 -1000
37 2 3 31.1018 -9 0 2.99536 0 0 -1000
38 2 3 31.1018 -6 0 2.99536 -1.67938e-31 0 -1000
39 2 3 31.1018 -3 0 2.99536 23.7755 0 -541.153
40 2 3 31.1018 1.16027e-16 0 2.99536 -3.57194e-12 0 19082.3
41 2 3 31.1018 3 0 2.99536 -23.7755 0 -541.153
42 2 3 31.1018 6 0 2.99536 -1.67938e-31 0 -1000
43 2 3 31.1018 9 0 2.99536 1.67938e-31 0 -1000
44 2 3 31.1018 12 0 2.99536 0 0 -1000
45 2 3 31.1018 15 0 2.99536 0 0 -1000
46 2 3 31.1018 18 0 2.99536 0 0 -1000
47 2 3 31.1018 21 0 2.99536 0 0 -1000
48 2 3 31.1018 24 0 2.99536 0 0 -1000
49 2 3 31.1018 27 0 2.99536 0 0 -1000
50 2 3 31.1018 30 0 2.99536 0 0 -1000
