ITEM: TIMESTEP
1580000
ITEM: NUMBER OF ATOMS
51
ITEM: BOX BOUNDS pp pp pp
-4.5000000000000000e+01 4.5000000000000000e+01
-1.0000000000000000e+02 1.0000000000000000e+02
-1.0000000000000000e+02 1.0000000000000000e+02
ITEM: ATOMS id type diameter mass xu yu zu fx fy fz
1 1 3 31.1018 -45 0 0 0 0 0
2 1 3 31.1018 -42 0 0 0 0 0
3 1 3 31.1018 -39 0 0 0 0 0
4 1 3 31.1018 -36 0 0 0 0 0
5 1 3 31.1018 -33 0 0 0 0 0
6 1 3 31.1018 -30 0 0 0 0 0
7 1 3 31.1018 -27 0 0 0 0 0
8 1 3 31.1018 -24 0 0 0 0 0
9 1 3 31.1018 -21 0 0 0 0 0
10 1 3 31.1018 -18 0 0 0 0 0
11 1 3 31.1018 -15 0 0 0 0 0
12 1 3 31.1018 -12 0 0 0 0 0
13 1 3 31.1018 -9 0 0 0 0 0
14 1 3 31.1018 -6 0 0 0 0 0
15 1 3 31.1018 -3 0 0 0 0 0
16 1 3 31.1018 0 0 0 0 0 0
17 1 3 31.1018 3 0 0 0 0 0
18 1 3 31.1018 6 0 0 0 0 0
19 1 3 31.1018 9 0 0 0 0 0
20 1 3 31.1018 12 0 0 0 0 0
21 1 3 31.1018 15 0 0 0 0 0
22 1 3 31.1018 18 0 0 0 0 0
23 1 3 31.1018 21 0 0 0 0 0
24 1 3 31.1018 24 0 0 0 0 0
25 1 3 31.1018 27 0 0 0 0 0
26 1 3 31.1018 30 0 0 0 0 0
27 1 3 31.1018 33 0 0 0 0 0
28 1 3 31.1018 36 0 0 0 0 0
29 1 3 31.1018 39 0 0 0 0 0
30 1 3 31.1018 42 0 0 0 0 0
31 2 3 31.1018 -30 0 2.99937 3.32041e-17 0 -0.0426587
32 2 3 31.1018 -27 0 2.99937 3.32041e-17 0 -0.0426587
33 2 3 31.1018 -24 0 2.99937 3.32041e-17 0 -0.0426587
34 2 3 31.1018 -21 0 2.99937 3.32041e-17 0 -0.0426587
35 2 3 31.1018 -18 0 2.99937 3.32041e-17 0 -0.0426587
36 2 3 31.1018 -15 0 2.99937 3.32041e-17 0 -0.0426587
37 2 3 31.1018 -12 0 2.99937 3.32041e-17 0 -0.0426587
38 2 3 31.1018 -9 0 2.99937 3.32041e-17 0 -0.0426587
39 2 3 31.1018 -6 0 2.99937 3.32041e-17 0 -0.0426587
40 2 3 31.1018 -3 0 2.99937 3.32041e-17 0 -0.0426587
41 2 3 31.1018 1.42113e-17 0 2.99937 -6.26246e-16 0 -0.0426587
42 2 3 31.1018 3 0 2.99937 3.32041e-17 0 -0.0426587
43 2 3 31.1018 6 0 2.99937 3.32041e-17 0 -0.0426587
44 2 3 31.1018 9 0 2.99937 3.32041e-17 0 -0.0426587
45 2 3 31.1018 12 0 2.99937 3.32041e-17 0 -0.0426587
46 2 3 31.1018 15 0 2.99937 3.32041e-17 0 -0.0426587
47 2 3 31.1018 18 0 2.99937 3.32041e-17 0 -0.0426587
48 2 3 31.1018 21 0 2.99937 3.32041e-17 0 -0.0426587
49 2 3 31.1018 24 0 2.99937 3.32041e-17 0 -0.0426587
50 2 3 31.1018 27 0 2.99937 3.32041e-17 0 -0.0426587
51 2 3 31.1018 30 0 2.99937 3.32041e-17 0 -0.0426587
