ITEM: TIMESTEP
2830000
ITEM: NUMBER OF ATOMS
51
ITEM: BOX BOUNDS pp pp pp
-4.5299999999999997e+01 4.5299999999999997e+01
-1.0000000000000000e+02 1.0000000000000000e+02
-1.0000000000000000e+02 1.0000000000000000e+02
ITEM: ATOMS id type diameter mass xu yu zu fx fy fz
1 1 3 31.1018 -45.3 0 0 0 0 0
2 1 3 31.1018 -42.28 0 0 0 0 0
3 1 3 31.1018 -39.26 0 0 0 0 0
4 1 3 31.1018 -36.24 0 0 0 0 0
5 1 3 31.1018 -33.22 0 0 0 0 0
6 1 3 31.1018 -30.2 0 0 0 0 0
7 1 3 31.1018 -27.18 0 0 0 0 0
8 1 3 31.1018 -24.16 0 0 0 0 0
9 1 3 31.1018 -21.14 0 0 0 0 0
10 1 3 31.1018 -18.12 0 0 0 0 0
11 1 3 31.1018 -15.1 0 0 0 0 0
12 1 3 31.1018 -12.08 0 0 0 0 0
13 1 3 31.1018 -9.06 0 0 0 0 0
14 1 3 31.1018 -6.04 0 0 0 0 0
15 1 3 31.1018 -3.02 0 0 0 0 0
16 1 3 31.1018 0 0 0 0 0 0
17 1 3 31.1018 3.02 0 0 0 0 0
18 1 3 31.1018 6.04 0 0 0 0 0
19 1 3 31.1018 9.06 0 0 0 0 0
20 1 3 31.1018 12.08 0 0 0 0 0
21 1 3 31.1018 15.1 0 0 0 0 0
22 1 3 31.1018 18.12 0 0 0 0 0
23 1 3 31.1018 21.14 0 0 0 0 0
24 1 3 31.1018 24.16 0 0 0 0 0
25 1 3 31.1018 27.18 0 0 0 0 0
26 1 3 31.1018 30.2 0 0 0 0 0
27 1 3 31.1018 33.22 0 0 0 0 0
28 1 3 31.1018 36.24 0 0 0 0 0
29 1 3 31.1018 39.26 0 0 0 0 0
30 1 3 31.1018 42.28 0 0 0 0 0
31 2 3 31.1018 -30 0 2.99849 0 0 -1000
32 2 3 31.1018 -27 0 2.99849 0 0 -1000
33 2 3 31.1018 -24 0 2.99849 0 0 -1000
34 2 3 31.1018 -21 0 2.99849 0 0 -1000
35 2 3 31.1018 -18 0 2.99849 0 0 -1000
36 2 3 31.1018 -15 0 2.99849 0 0 -1000
37 2 3 31.1018 -12 0 2.99849 14.0672 0 -401.822
38 2 3 31.1018 -9 0 2.99849 27.325 0 750.495
39 2 3 31.1018 -6 0 2.99849 18.913 0 1792.47
40 2 3 31.1018 -3 0 2.99849 -5.47352 0 2491.21
41 2 3 31.1018 4.7155e-17 0 2.99849 -4.45044e-12 0 2735.29
42 2 3 31.1018 3 0 2.99849 5.47352 0 2491.21
43 2 3 31.1018 6 0 2.99849 -18.913 0 1792.47
44 2 3 31.1018 9 0 2.99849 -27.325 0 750.495
45 2 3 31.1018 12 0 2.99849 -14.0672 0 -401.822
46 2 3 31.1018 15 0 2.99849 0 0 -1000
47 2 3 31.1018 18 0 2.99849 0 0 -1000
48 2 3 31.1018 21 0 2.99849 0 0 -1000
49 2 3 31.1018 24 0 2.99849 0 0 -1000
50 2 3 31.1018 27 0 2.99849 0 0 -1000
51 2 3 31.1018 30 0 2.99849 0 0 -1000
