ITEM: TIMESTEP
1200000
ITEM: NUMBER OF ATOMS
51
ITEM: BOX BOUNDS pp pp pp
-4.8750000000000000e+01 4.8750000000000000e+01
-1.0000000000000000e+02 1.0000000000000000e+02
-1.0000000000000000e+02 1.0000000000000000e+02
ITEM: ATOMS id type diameter mass xu yu zu fx fy fz
1 1 3 31.1018 -48.75 0 0 0 0 0
2 1 3 31.1018 -45.5 0 0 0 0 0
3 1 3 31.1018 -42.25 0 0 0 0 0
4 1 3 31.1018 -39 0 0 0 0 0
5 1 3 31.1018 -35.75 0 0 0 0 0
6 1 3 31.1018 -32.5 0 0 0 0 0
7 1 3 31.1018 -29.25 0 0 0 0 0
8 1 3 31.1018 -26 0 0 0 0 0
9 1 3 31.1018 -22.75 0 0 0 0 0
10 1 3 31.1018 -19.5 0 0 0 0 0
11 1 3 31.1018 -16.25 0 0 0 0 0
12 1 3 31.1018 -13 0 0 0 0 0
13 1 3 31.1018 -9.75 0 0 0 0 0
14 1 3 31.1018 -6.5 0 0 0 0 0
15 1 3 31.1018 -3.25 0 0 0 0 0
16 1 3 31.1018 0 0 0 0 0 0
17 1 3 31.1018 3.25 0 0 0 0 0
18 1 3 31.1018 6.5 0 0 0 0 0
19 1 3 31.1018 9.75 0 0 0 0 0
20 1 3 31.1018 13 0 0 0 0 0
21 1 3 31.1018 16.25 0 0 0 0 0
22 1 3 31.1018 19.5 0 0 0 0 0
23 1 3 31.1018 22.75 0 0 0 0 0
24 1 3 31.1018 26 0 0 0 0 0
25 1 3 31.1018 29.25 0 0 0 0 0
26 1 3 31.1018 32.5 0 0 0 0 0
27 1 3 31.1018 35.75 0 0 0 0 0
28 1 3 31.1018 39 0 0 0 0 0
29 1 3 31.1018 42.25 0 0 0 0 0
30 1 3 31.1018 45.5 0 0 0 0 0
31 2 3 31.1018 -30 0 2.99522 0 0 -1000
32 2 3 31.1018 -27 0 2.99522 0 0 -1000
33 2 3 31.1018 -24 0 2.99522 0 0 -1000
34 2 3 31.1018 -21 0 2.99522 0 0 -1000
35 2 3 31.1018 -18 0 2.99522 0 0 -1000
36 2 3 31.1018 -15 0 2.99522 0 0 -1000
37 2 3 31.1018 -12 0 2.99522 0 0 -1000
38 2 3 31.1018 -9 0 2.99522 0 0 -1000
39 2 3 31.1018 -6 0 2.99522 -1.67938e-31 0 -1000
40 2 3 31.1018 -3 0 2.99522 1.67938e-31 0 -1000
41 2 3 31.1018 1.4169e-16 0 2.99522 6.99873e-15 0 19989.1
42 2 3 31.1018 3 0 2.99522 0 0 -1000
43 2 3 31.1018 6 0 2.99522 -1.67938e-31 0 -1000
44 2 3 31.1018 9 0 2.99522 1.67938e-31 0 -1000
45 2 3 31.1018 12 0 2.99522 0 0 -1000
46 2 3 31.1018 15 0 2.99522 0 0 -1000
47 2 3 31.1018 18 0 2.99522 0 0 -1000
48 2 3 31.1018 21 0 2.99522 0 0 -1000
49 2 3 31.1018 24 0 2.99522 0 0 -1000
50 2 3 31.1018 27 0 2.99522 0 0 -1000
51 2 3 31.1018 30 0 2.99522 0 0 -1000
