ITEM: TIMESTEP
1340000
ITEM: NUMBER OF ATOMS
51
ITEM: BOX BOUNDS pp pp pp
-5.0399999999999999e+01 5.0399999999999999e+01
-1.0000000000000000e+02 1.0000000000000000e+02
-1.0000000000000000e+02 1.0000000000000000e+02
ITEM: ATOMS id type diameter mass xu yu zu fx fy fz
1 1 3 31.1018 -50.4 0 0 0 0 0
2 1 3 31.1018 -47.04 0 0 0 0 0
3 1 3 31.1018 -43.68 0 0 0 0 0
4 1 3 31.1018 -40.32 0 0 0 0 0
5 1 3 31.1018 -36.96 0 0 0 0 0
6 1 3 31.1018 -33.6 0 0 0 0 0
7 1 3 31.1018 -30.24 0 0 0 0 0
8 1 3 31.1018 -26.88 0 0 0 0 0
9 1 3 31.1018 -23.52 0 0 0 0 0
10 1 3 31.1018 -20.16 0 0 0 0 0
11 1 3 31.1018 -16.8 0 0 0 0 0
12 1 3 31.1018 -13.44 0 0 0 0 0
13 1 3 31.1018 -10.08 0 0 0 0 0
14 1 3 31.1018 -6.72 0 0 0 0 0
15 1 3 31.1018 -3.36 0 0 0 0 0
16 1 3 31.1018 0 0 0 0 0 0
17 1 3 31.1018 3.36 0 0 0 0 0
18 1 3 31.1018 6.72 0 0 0 0 0
19 1 3 31.1018 10.08 0 0 0 0 0
20 1 3 31.1018 13.44 0 0 0 0 0
21 1 3 31.1018 16.8 0 0 0 0 0
22 1 3 31.1018 20.16 0 0 0 0 0
23 1 3 31.1018 23.52 0 0 0 0 0
24 1 3 31.1018 26.88 0 0 0 0 0
25 1 3 31.1018 30.24 0 0 0 0 0
26 1 3 31.1018 33.6 0 0 0 0 0
27 1 3 31.1018 36.96 0 0 0 0 0
28 1 3 31.1018 40.32 0 0 0 0 0
29 1 3 31.1018 43.68 0 0 0 0 0
30 1 3 31.1018 47.04 0 0 0 0 0
31 2 3 31.1018 -30 0 2.99624 0 0 -1000
32 2 3 31.1018 -27 0 2.99624 -120.46 0 2178.11
33 2 3 31.1018 -24 0 2.99624 0 0 -1000
34 2 3 31.1018 -21 0 2.99624 0 0 -1000
35 2 3 31.1018 -18 0 2.99624 0 0 -1000
36 2 3 31.1018 -15 0 2.99624 0 0 -1000
37 2 3 31.1018 -12 0 2.99624 0 0 -1000
38 2 3 31.1018 -9 0 2.99624 0 0 -1000
39 2 3 31.1018 -6 0 2.99624 0 0 -1000
40 2 3 31.1018 -3 0 2.99624 0 0 -1000
41 2 3 31.1018 1.53071e-17 0 2.99624 2.82415e-14 0 13637
42 2 3 31.1018 3 0 2.99624 0 0 -1000
43 2 3 31.1018 6 0 2.99624 0 0 -1000
44 2 3 31.1018 9 0 2.99624 0 0 -1000
45 2 3 31.1018 12 0 2.99624 0 0 -1000
46 2 3 31.1018 15 0 2.99624 0 0 -1000
47 2 3 31.1018 18 0 2.99624 0 0 -1000
48 2 3 31.1018 21 0 2.99624 0 0 -1000
49 2 3 31.1018 24 0 2.99624 0 0 -1000
50 2 3 31.1018 27 0 2.99624 120.46 0 2178.11
51 2 3 31.1018 30 0 2.99624 0 0 -1000
