ITEM: TIMESTEP
890000
ITEM: NUMBER OF ATOMS
51
ITEM: BOX BOUNDS pp pp pp
-4.5149999999999999e+01 4.5149999999999999e+01
-1.0000000000000000e+02 1.0000000000000000e+02
-1.0000000000000000e+02 1.0000000000000000e+02
ITEM: ATOMS id type diameter mass xu yu zu fx fy fz
1 1 3 31.1018 -45.15 0 0 0 0 0
2 1 3 31.1018 -42.14 0 0 0 0 0
3 1 3 31.1018 -39.13 0 0 0 0 0
4 1 3 31.1018 -36.12 0 0 0 0 0
5 1 3 31.1018 -33.11 0 0 0 0 0
6 1 3 31.1018 -30.1 0 0 0 0 0
7 1 3 31.1018 -27.09 0 0 0 0 0
8 1 3 31.1018 -24.08 0 0 0 0 0
9 1 3 31.1018 -21.07 0 0 0 0 0
10 1 3 31.1018 -18.06 0 0 0 0 0
11 1 3 31.1018 -15.05 0 0 0 0 0
12 1 3 31.1018 -12.04 0 0 0 0 0
13 1 3 31.1018 -9.03 0 0 0 0 0
14 1 3 31.1018 -6.02 0 0 0 0 0
15 1 3 31.1018 -3.01 0 0 0 0 0
16 1 3 31.1018 0 0 0 0 0 0
17 1 3 31.1018 3.01 0 0 0 0 0
18 1 3 31.1018 6.02 0 0 0 0 0
19 1 3 31.1018 9.03 0 0 0 0 0
20 1 3 31.1018 12.04 0 0 0 0 0
21 1 3 31.1018 15.05 0 0 0 0 0
22 1 3 31.1018 18.06 0 0 0 0 0
23 1 3 31.1018 21.07 0 0 0 0 0
24 1 3 31.1018 24.08 0 0 0 0 0
25 1 3 31.1018 27.09 0 0 0 0 0
26 1 3 31.1018 30.1 0 0 0 0 0
27 1 3 31.1018 33.11 0 0 0 0 0
28 1 3 31.1018 36.12 0 0 0 0 0
29 1 3 31.1018 39.13 0 0 0 0 0
30 1 3 31.1018 42.14 0 0 0 0 0
31 2 3 31.1018 -30 0 2.99897 0 0 -1000
32 2 3 31.1018 -27 0 2.99897 0 0 -1000
33 2 3 31.1018 -24 0 2.99897 0 0 -1000
34 2 3 31.1018 -21 0 2.99897 4.88565 0 -798.475
35 2 3 31.1018 -18 0 2.99897 9.98505 0 -428.801
36 2 3 31.1018 -15 0 2.99897 12.018 0 -29.6441
37 2 3 31.1018 -12 0 2.99897 9.85122 0 345.614
38 2 3 31.1018 -9 0 2.99897 2.8855 0 664.524
39 2 3 31.1018 -6 0 2.99897 -2.98808 0 905.733
40 2 3 31.1018 -3 0 2.99897 -1.61213 0 1055.55
41 2 3 31.1018 2.60101e-17 0 2.99897 -1.03814e-12 0 1106.32
42 2 3 31.1018 3 0 2.99897 1.61213 0 1055.55
43 2 3 31.1018 6 0 2.99897 2.98808 0 905.733
44 2 3 31.1018 9 0 2.99897 -2.8855 0 664.524
45 2 3 31.1018 12 0 2.99897 -9.85122 0 345.614
46 2 3 31.1018 15 0 2.99897 -12.018 0 -29.6441
47 2 3 31.1018 18 0 2.99897 -9.98505 0 -428.801
48 2 3 31.1018 21 0 2.99897 -4.88565 0 -798.475
49 2 3 31.1018 24 0 2.99897 0 0 -1000
50 2 3 31.1018 27 0 2.99897 0 0 -1000
51 2 3 31.1018 30 0 2.99897 0 0 -1000
