ITEM: TIMESTEP
1610000
ITEM: NUMBER OF ATOMS
51
ITEM: BOX BOUNDS pp pp pp
-4.5149999999999999e+01 4.5149999999999999e+01
-1.0000000000000000e+02 1.0000000000000000e+02
-1.0000000000000000e+02 1.0000000000000000e+02
ITEM: ATOMS id type diameter mass xu yu zu fx fy fz
1 1 3 31.1018 -45.15 0 0 0 0 0
2 1 3 31.1018 -42.14 0 0 0 0 0
3 1 3 31.1018 -39.13 0 0 0 0 0
4 1 3 31.1018 -36.12 0 0 0 0 0
5 1 3 31.1018 -33.11 0 0 0 0 0
6 1 3 31.1018 -30.1 0 0 0 0 0
7 1 3 31.1018 -27.09 0 0 0 0 0
8 1 3 31.1018 -24.08 0 0 0 0 0
9 1 3 31.1018 -21.07 0 0 0 0 0
10 1 3 31.1018 -18.06 0 0 0 0 0
11 1 3 31.1018 -15.05 0 0 0 0 0
12 1 3 31.1018 -12.04 0 0 0 0 0
13 1 3 31.1018 -9.03 0 0 0 0 0
14 1 3 31.1018 -6.02 0 0 0 0 0
15 1 3 31.1018 -3.01 0 0 0 0 0
16 1 3 31.1018 0 0 0 0 0 0
17 1 3 31.1018 3.01 0 0 0 0 0
18 1 3 31.1018 6.02 0 0 0 0 0
19 1 3 31.1018 9.03 0 0 0 0 0
20 1 3 31.1018 12.04 0 0 0 0 0
21 1 3 31.1018 15.05 0 0 0 0 0
22 1 3 31.1018 18.06 0 0 0 0 0
23 1 3 31.1018 21.07 0 0 0 0 0
24 1 3 31.1018 24.08 0 0 0 0 0
25 1 3 31.1018 27.09 0 0 0 0 0
26 1 3 31.1018 30.1 0 0 0 0 0
27 1 3 31.1018 33.11 0 0 0 0 0
28 1 3 31.1018 36.12 0 0 0 0 0
29 1 3 31.1018 39.13 0 0 0 0 0
30 1 3 31.1018 42.14 0 0 0 0 0
31 2 3 31.1018 -30 0 2.99893 0 0 -1000
32 2 3 31.1018 -27 0 2.99893 0 0 -1000
33 2 3 31.1018 -24 0 2.99893 0.0148741 0 -999.374
34 2 3 31.1018 -21 0 2.99893 5.08898 0 -742.29
35 2 3 31.1018 -18 0 2.99893 10.1702 0 -350.918
36 2 3 31.1018 -15 0 2.99893 12.1428 0 62.6997
37 2 3 31.1018 -12 0 2.99893 9.87848 0 448.286
38 2 3 31.1018 -9 0 2.99893 2.77347 0 774.561
39 2 3 31.1018 -6 0 2.99893 -3.16833 0 1020.74
40 2 3 31.1018 -3 0 2.99893 -1.70453 0 1173.44
41 2 3 31.1018 2.59438e-17 0 2.99893 -1.04333e-12 0 1225.16
42 2 3 31.1018 3 0 2.99893 1.70453 0 1173.44
43 2 3 31.1018 6 0 2.99893 3.16833 0 1020.74
44 2 3 31.1018 9 0 2.99893 -2.77347 0 774.561
45 2 3 31.1018 12 0 2.99893 -9.87848 0 448.286
46 2 3 31.1018 15 0 2.99893 -12.1428 0 62.6997
47 2 3 31.1018 18 0 2.99893 -10.1702 0 -350.918
48 2 3 31.1018 21 0 2.99893 -5.08898 0 -742.29
49 2 3 31.1018 24 0 2.99893 -0.0148741 0 -999.374
50 2 3 31.1018 27 0 2.99893 0 0 -1000
51 2 3 31.1018 30 0 2.99893 0 0 -1000
