ITEM: TIMESTEP
900000
ITEM: NUMBER OF ATOMS
51
ITEM: BOX BOUNDS pp pp pp
-4.5149999999999999e+01 4.5149999999999999e+01
-1.0000000000000000e+02 1.0000000000000000e+02
-1.0000000000000000e+02 1.0000000000000000e+02
ITEM: ATOMS id type diameter mass xu yu zu fx fy fz
1 1 3 31.1018 -45.15 0 0 0 0 0
2 1 3 31.1018 -42.14 0 0 0 0 0
3 1 3 31.1018 -39.13 0 0 0 0 0
4 1 3 31.1018 -36.12 0 0 0 0 0
5 1 3 31.1018 -33.11 0 0 0 0 0
6 1 3 31.1018 -30.1 0 0 0 0 0
7 1 3 31.1018 -27.09 0 0 0 0 0
8 1 3 31.1018 -24.08 0 0 0 0 0
9 1 3 31.1018 -21.07 0 0 0 0 0
10 1 3 31.1018 -18.06 0 0 0 0 0
11 1 3 31.1018 -15.05 0 0 0 0 0
12 1 3 31.1018 -12.04 0 0 0 0 0
13 1 3 31.1018 -9.03 0 0 0 0 0
14 1 3 31.1018 -6.02 0 0 0 0 0
15 1 3 31.1018 -3.01 0 0 0 0 0
16 1 3 31.1018 0 0 0 0 0 0
17 1 3 31.1018 3.01 0 0 0 0 0
18 1 3 31.1018 6.02 0 0 0 0 0
19 1 3 31.1018 9.03 0 0 0 0 0
20 1 3 31.1018 12.04 0 0 0 0 0
21 1 3 31.1018 15.05 0 0 0 0 0
22 1 3 31.1018 18.06 0 0 0 0 0
23 1 3 31.1018 21.07 0 0 0 0 0
24 1 3 31.1018 24.08 0 0 0 0 0
25 1 3 31.1018 27.09 0 0 0 0 0
26 1 3 31.1018 30.1 0 0 0 0 0
27 1 3 31.1018 33.11 0 0 0 0 0
28 1 3 31.1018 36.12 0 0 0 0 0
29 1 3 31.1018 39.13 0 0 0 0 0
30 1 3 31.1018 42.14 0 0 0 0 0
31 2 3 31.1018 -30 0 2.99896 0 0 -1000
32 2 3 31.1018 -27 0 2.99896 0 0 -1000
33 2 3 31.1018 -24 0 2.99896 0 0 -1000
34 2 3 31.1018 -21 0 2.99896 4.93893 0 -785.844
35 2 3 31.1018 -18 0 2.99896 10.0315 0 -411.017
36 2 3 31.1018 -15 0 2.99896 12.0492 0 -8.45663
37 2 3 31.1018 -12 0 2.99896 9.85902 0 369.225
38 2 3 31.1018 -9 0 2.99896 2.86027 0 689.859
39 2 3 31.1018 -6 0 2.99896 -3.02961 0 932.232
40 2 3 31.1018 -3 0 2.99896 -1.63343 0 1082.72
41 2 3 31.1018 2.60257e-17 0 2.99896 -1.00029e-12 0 1133.71
42 2 3 31.1018 3 0 2.99896 1.63343 0 1082.72
43 2 3 31.1018 6 0 2.99896 3.02961 0 932.232
44 2 3 31.1018 9 0 2.99896 -2.86027 0 689.859
45 2 3 31.1018 12 0 2.99896 -9.85902 0 369.225
46 2 3 31.1018 15 0 2.99896 -12.0492 0 -8.45663
47 2 3 31.1018 18 0 2.99896 -10.0315 0 -411.017
48 2 3 31.1018 21 0 2.99896 -4.93893 0 -785.844
49 2 3 31.1018 24 0 2.99896 0 0 -1000
50 2 3 31.1018 27 0 2.99896 0 0 -1000
51 2 3 31.1018 30 0 2.99896 0 0 -1000
