ITEM: TIMESTEP
1360000
ITEM: NUMBER OF ATOMS
51
ITEM: BOX BOUNDS pp pp pp
-5.0100000000000001e+01 5.0100000000000001e+01
-1.0000000000000000e+02 1.0000000000000000e+02
-1.0000000000000000e+02 1.0000000000000000e+02
ITEM: ATOMS id type diameter mass xu yu zu fx fy fz
1 1 3 31.1018 -50.1 0 0 0 0 0
2 1 3 31.1018 -46.76 0 0 0 0 0
3 1 3 31.1018 -43.42 0 0 0 0 0
4 1 3 31.1018 -40.08 0 0 0 0 0
5 1 3 31.1018 -36.74 0 0 0 0 0
6 1 3 31.1018 -33.4 0 0 0 0 0
7 1 3 31.1018 -30.06 0 0 0 0 0
8 1 3 31.1018 -26.72 0 0 0 0 0
9 1 3 31.1018 -23.38 0 0 0 0 0
10 1 3 31.1018 -20.04 0 0 0 0 0
11 1 3 31.1018 -16.7 0 0 0 0 0
12 1 3 31.1018 -13.36 0 0 0 0 0
13 1 3 31.1018 -10.02 0 0 0 0 0
14 1 3 31.1018 -6.68 0 0 0 0 0
15 1 3 31.1018 -3.34 0 0 0 0 0
16 1 3 31.1018 0 0 0 0 0 0
17 1 3 31.1018 3.34 0 0 0 0 0
18 1 3 31.1018 6.68 0 0 0 0 0
19 1 3 31.1018 10.02 0 0 0 0 0
20 1 3 31.1018 13.36 0 0 0 0 0
21 1 3 31.1018 16.7 0 0 0 0 0
22 1 3 31.1018 20.04 0 0 0 0 0
23 1 3 31.1018 23.38 0 0 0 0 0
24 1 3 31.1018 26.72 0 0 0 0 0
25 1 3 31.1018 30.06 0 0 0 0 0
26 1 3 31.1018 33.4 0 0 0 0 0
27 1 3 31.1018 36.74 0 0 0 0 0
28 1 3 31.1018 40.08 0 0 0 0 0
29 1 3 31.1018 43.42 0 0 0 0 0
30 1 3 31.1018 46.76 0 0 0 0 0
31 2 3 31.1018 -30 0 2.99731 95.2136 0 5066.83
32 2 3 31.1018 -27 0 2.99731 0 0 -1000
33 2 3 31.1018 -24 0 2.99731 0 0 -1000
34 2 3 31.1018 -21 0 2.99731 0 0 -1000
35 2 3 31.1018 -18 0 2.99731 0 0 -1000
36 2 3 31.1018 -15 0 2.99731 0 0 -1000
37 2 3 31.1018 -12 0 2.99731 0 0 -1000
38 2 3 31.1018 -9 0 2.99731 0 0 -1000
39 2 3 31.1018 -6 0 2.99731 0 0 -1000
40 2 3 31.1018 -3 0 2.99731 0 0 -1000
41 2 3 31.1018 1.91052e-18 0 2.99731 -2.26605e-14 0 7860.3
42 2 3 31.1018 3 0 2.99731 0 0 -1000
43 2 3 31.1018 6 0 2.99731 0 0 -1000
44 2 3 31.1018 9 0 2.99731 0 0 -1000
45 2 3 31.1018 12 0 2.99731 0 0 -1000
46 2 3 31.1018 15 0 2.99731 0 0 -1000
47 2 3 31.1018 18 0 2.99731 0 0 -1000
48 2 3 31.1018 21 0 2.99731 0 0 -1000
49 2 3 31.1018 24 0 2.99731 0 0 -1000
50 2 3 31.1018 27 0 2.99731 0 0 -1000
51 2 3 31.1018 30 0 2.99731 -95.2136 0 5066.83
