ITEM: TIMESTEP
780000
ITEM: NUMBER OF ATOMS
51
ITEM: BOX BOUNDS pp pp pp
-4.5299999999999997e+01 4.5299999999999997e+01
-1.0000000000000000e+02 1.0000000000000000e+02
-1.0000000000000000e+02 1.0000000000000000e+02
ITEM: ATOMS id type diameter mass xu yu zu fx fy fz
1 1 3 31.1018 -45.3 0 0 0 0 0
2 1 3 31.1018 -42.28 0 0 0 0 0
3 1 3 31.1018 -39.26 0 0 0 0 0
4 1 3 31.1018 -36.24 0 0 0 0 0
5 1 3 31.1018 -33.22 0 0 0 0 0
6 1 3 31.1018 -30.2 0 0 0 0 0
7 1 3 31.1018 -27.18 0 0 0 0 0
8 1 3 31.1018 -24.16 0 0 0 0 0
9 1 3 31.1018 -21.14 0 0 0 0 0
10 1 3 31.1018 -18.12 0 0 0 0 0
11 1 3 31.1018 -15.1 0 0 0 0 0
12 1 3 31.1018 -12.08 0 0 0 0 0
13 1 3 31.1018 -9.06 0 0 0 0 0
14 1 3 31.1018 -6.04 0 0 0 0 0
15 1 3 31.1018 -3.02 0 0 0 0 0
16 1 3 31.1018 0 0 0 0 0 0
17 1 3 31.1018 3.02 0 0 0 0 0
18 1 3 31.1018 6.04 0 0 0 0 0
19 1 3 31.1018 9.06 0 0 0 0 0
20 1 3 31.1018 12.08 0 0 0 0 0
21 1 3 31.1018 15.1 0 0 0 0 0
22 1 3 31.1018 18.12 0 0 0 0 0
23 1 3 31.1018 21.14 0 0 0 0 0
24 1 3 31.1018 24.16 0 0 0 0 0
25 1 3 31.1018 27.18 0 0 0 0 0
26 1 3 31.1018 30.2 0 0 0 0 0
27 1 3 31.1018 33.22 0 0 0 0 0
28 1 3 31.1018 36.24 0 0 0 0 0
29 1 3 31.1018 39.26 0 0 0 0 0
30 1 3 31.1018 42.28 0 0 0 0 0
31 2 3 31.1018 -30 0 2.99842 0 0 -1000
32 2 3 31.1018 -27 0 2.99842 0 0 -1000
33 2 3 31.1018 -24 0 2.99842 0 0 -1000
34 2 3 31.1018 -21 0 2.99842 0 0 -1000
35 2 3 31.1018 -18 0 2.99842 0 0 -1000
36 2 3 31.1018 -15 0 2.99842 0 0 -1000
37 2 3 31.1018 -12 0 2.99842 14.4896 0 -258.936
38 2 3 31.1018 -9 0 2.99842 27.6912 0 951.147
39 2 3 31.1018 -6 0 2.99842 18.9319 0 2025.79
40 2 3 31.1018 -3 0 2.99842 -5.86656 0 2742.1
41 2 3 31.1018 3.21209e-17 0 2.99842 -1.38229e-12 0 2991.77
42 2 3 31.1018 3 0 2.99842 5.86656 0 2742.1
43 2 3 31.1018 6 0 2.99842 -18.9319 0 2025.79
44 2 3 31.1018 9 0 2.99842 -27.6912 0 951.147
45 2 3 31.1018 12 0 2.99842 -14.4896 0 -258.936
46 2 3 31.1018 15 0 2.99842 0 0 -1000
47 2 3 31.1018 18 0 2.99842 0 0 -1000
48 2 3 31.1018 21 0 2.99842 0 0 -1000
49 2 3 31.1018 24 0 2.99842 0 0 -1000
50 2 3 31.1018 27 0 2.99842 0 0 -1000
51 2 3 31.1018 30 0 2.99842 0 0 -1000
