LAMMPS (23 Jun 2022 - Update 1)
  using 1 OpenMP thread(s) per MPI task
variable num index 0 1 2 3 4 5 6 7 8 9 10 11 12 13 14 15 16 17 18 19 20 21 22 23 24 25 26 27 28 29 30 31 32 33 34 35 36 37 38 39 40 41 42 43 44 45 46 47 48 49 50

label startloop

include granular.in
### Simulation of contact between two chain

##################### Simulation setup ####################

units micro                              # units
dimension	3                            # dimension
boundary	p p p                        # boundary condition p: periodic
atom_style	sphere                       # atom style
#processors * * 1

####################### Parameter ##################################

variable ind equal ${num}
variable ind equal 0

#variable lat0 equal 1                    #
variable lat1 equal 3+(v_ind*0.01)  # .491+(v_ind*0.001)       # Lattice distance of bottom chain
variable lat2 equal 3                    # Lattice distance of top chain
variable d1 equal 3                      # Diamter of particle at bottom chain
variable d2 equal 3                      # Diamter of particle at top chain
#variable d3 equal 1                      # Diamter of supporting particle

variable n2e1 equal 10*v_lat2             # Half length of top chain. 1500 is number of particles
variable n1e1 equal 1.5*v_n2e1*(v_lat1/v_lat2)             # Half length of bottom chain, which is 1.5 time larger than top chain
variable n1e2 equal -v_n1e1
variable n2e2 equal -v_n2e1
#variable lenspr equal -(v_n2e1+100)           # length of the spring connecting top chain and supporting particle
#variable lenspr1 equal -v_lenspr-0.1         # Position of supporting particle upper bound
#variable lenspr2 equal -v_lenspr+0.1         # Position of supporting particle lower bound

variable den equal 2.2 #grams/cm^3      # micrometer^3=10^-12 cm^3 Density of materials

variable V1 equal (1/6)*PI*(v_d1^3)     # Volume of particle 1
variable V2 equal (1/6)*PI*(v_d2^3)     # Volume of particle 2
#variable V3 equal (1/6)*PI*(v_d3^3)     # Volume of particle 3

variable mass1 equal v_den*v_V1  # Mass of particle 1 (picograms)
variable mass2 equal v_den*v_V2  # Mass of particle 2
#variable mass3 equal v_den*v_V3  # Mass of particle 3

# E GPa to picogram/(micrometer-microsecond^2)= 10^3 Pa= 10^-6 GPa
# Force unit(picogram-micrometer/microsecond^2)=10^-9 N= 1nN
# Spring stiffness (force/distance) 10^-3 N/m

variable K0 equal (1500/50)*(10^5)             # Spring stiffness conneting top chain and sup particle
variable E equal 100*(10^6)                    # Young's Modulus using for Hertz/material model
variable PR equal 0.3                          # Poisson's ratio using for Hertz/material model
variable Fn equal -1000                        # Force apply to each particles in top chain
variable dt equal 0.00001                      # Time step units microsecond
variable lgv equal 0.5                         #damping for langevin thermostat for slider


################### Creating the model #################################
lattice sc ${lat1}                                                               # Bottom chain type1
lattice sc 3                                                               
Lattice spacing in x,y,z = 3 3 3

region box block ${n1e2} ${n1e1} -100 100 -100 100 units box
region box block -45 ${n1e1} -100 100 -100 100 units box
region box block -45 45 -100 100 -100 100 units box
region substrate block ${n1e2} ${n1e1} -0.5 0.5 0 0.5 units box
region substrate block -45 ${n1e1} -0.5 0.5 0 0.5 units box
region substrate block -45 45 -0.5 0.5 0 0.5 units box

create_box 2 box
Created orthogonal box = (-45 -100 -100) to (45 100 100)
  1 by 2 by 2 MPI processor grid
create_atoms 1 region substrate
Created 30 atoms
  using lattice units in orthogonal box = (-45 -100 -100) to (45 100 100)
  create_atoms CPU = 0.001 seconds

lattice sc ${lat2}                                                             # Top chain type2
lattice sc 3                                                             
Lattice spacing in x,y,z = 3 3 3

region slider1 block ${n2e2} ${n2e1} -0.1 0.1 5.9 6.1 units box
region slider1 block -30 ${n2e1} -0.1 0.1 5.9 6.1 units box
region slider1 block -30 30 -0.1 0.1 5.9 6.1 units box

create_atoms 2 region slider1
Created 21 atoms
  using lattice units in orthogonal box = (-45 -100 -100) to (45 100 100)
  create_atoms CPU = 0.007 seconds

#lattice sc ${lat0}                                                             # Supporting particle type3

#region support block ${lenspr1} ${lenspr2} -0.1 0.1 7.9 8.1 units box

#create_atoms 3 region support

set type 1 diameter ${d1}                    # Set mass and diameter for each particles type
set type 1 diameter 3                    
Setting atom values ...
  30 settings made for diameter
set type 1 mass ${mass1}
set type 1 mass 31.101767270539
Setting atom values ...
  30 settings made for mass
set type 2 diameter ${d2}
set type 2 diameter 3
Setting atom values ...
  21 settings made for diameter
set type 2 mass ${mass2}
set type 2 mass 31.101767270539
Setting atom values ...
  21 settings made for mass
#set type 3 diameter ${d3}
#set type 3 mass ${mass3}

group substrate region substrate           # Define gorup
30 atoms in group substrate
group slider1 region slider1
21 atoms in group slider1
#group support region support
#group substrate_slider union substrate slider1

########################## Potential ###################################
pair_style granular
pair_coeff 1 1 hertz/material 0.00000001 0.001 ${PR} tangential mindlin NULL 0.1 0.01 damping viscoelastic              ########### set E between each particle in same type is small to neglect their interaction
pair_coeff 1 1 hertz/material 0.00000001 0.001 0.3 tangential mindlin NULL 0.1 0.01 damping viscoelastic              
pair_coeff 2 2 hertz/material 0.00000001 0.001 ${PR} tangential mindlin NULL 0.1 0.01 damping viscoelastic
pair_coeff 2 2 hertz/material 0.00000001 0.001 0.3 tangential mindlin NULL 0.1 0.01 damping viscoelastic
#pair_coeff 3 3 hertz/material ${E} 0.001 ${PR} tangential mindlin NULL 0.1 0.01 damping viscoelastic
pair_coeff 1 2 hertz/material ${E} 0.001 ${PR} tangential mindlin NULL 0.1 0.01 damping viscoelastic
pair_coeff 1 2 hertz/material 100000000 0.001 ${PR} tangential mindlin NULL 0.1 0.01 damping viscoelastic
pair_coeff 1 2 hertz/material 100000000 0.001 0.3 tangential mindlin NULL 0.1 0.01 damping viscoelastic
#pair_coeff 1 3 hertz/material 0.00000001 0.001 ${PR} tangential mindlin NULL 0.1 0.01 damping viscoelastic
#pair_coeff 2 3 hertz/material 0.00000001 0.001 ${PR} tangential mindlin NULL 0.1 0.01 damping viscoelastic
comm_modify     vel yes
neigh_modify    delay 0 every 1 check yes

### Compute properties ###

compute 1 slider1 com                      # Compute the center of mass of top chain
#compute 2 support com                      # Compute the center of mass of supporting particle

variable p0 equal "step"

variable slider_z equal "c_1[3]"          # output the position of top chain in z-direction

#variable distance equal "c_2[1]-c_1[1]"   # Distance between COM of top chain and supporting particle

thermo 100000
thermo_style custom step lx ly lz press pxx pyy pzz ke pe temp c_1[1] c_1[2] c_1[3] #c_2[1] c_2[2] c_2[3] v_distance

############### Fix ##################


############## Equilibrium the system with apply force ########################

fix force_slider1 slider1 setforce NULL 0 NULL                                # Fix top chain not to move in y-direction

fix f_sub substrate freeze                                                    # Freeze the bottom chain

fix rigid_top slider1 rigid/nve group 1 slider1 langevin 0 0 ${lgv} 6987532   # NVE+langevin
fix rigid_top slider1 rigid/nve group 1 slider1 langevin 0 0 0.5 6987532   
  1 rigid bodies with 21 atoms

fix add slider1 addforce 0 0 ${Fn} every 1                                    # Add force to top layer
fix add slider1 addforce 0 0 -1000 every 1                                    

timestep ${dt}
timestep 1e-05

# fix  nve_1 slider1 nve

dump 		D1 all custom 10000 Equi_${num}_*.dump id type diameter mass xu yu zu fx fy fz
dump 		D1 all custom 10000 Equi_0_*.dump id type diameter mass xu yu zu fx fy fz

run 3000000
Generated 0 of 1 mixed pair_coeff terms from geometric mixing rule
Neighbor list info ...
  update every 1 steps, delay 0 steps, check yes
  max neighbors/atom: 2000, page size: 100000
  master list distance cutoff = 3.1
  ghost atom cutoff = 3.1
  binsize = 1.55, bins = 59 130 130
  1 neighbor lists, perpetual/occasional/extra = 1 0 0
  (1) pair granular, perpetual
      attributes: half, newton on, size, history
      pair build: half/size/bin/newton
      stencil: half/bin/3d
      bin: standard
Per MPI rank memory allocation (min/avg/max) = 13.88 | 17.35 | 18.51 Mbytes
   Step           Lx             Ly             Lz           Press           Pxx            Pyy            Pzz           KinEng         PotEng          Temp          c_1[1]         c_1[2]         c_1[3]    
         0   90             200            200            0              0              0              0              0              0              0              2.6109412e-16  0              6            
    100000   90             200            200            0.0048446229  -2.7372937e-38  0              0.014533869    12676.586      0              6.1210699e+10  2.6109412e-16  0              3.3137688    
    200000   90             200            200            0.001916883    7.1799987e-40  0              0.0057506489   3672.3809      0              1.7732613e+10  2.6109412e-16  0              3.0495596    
    300000   90             200            200            0.00053811606  4.410565e-37   0              0.0016143482   487.01184      0              2.3516059e+09  2.6109412e-16  0              3.0333358    
    400000   90             200            200            0.00037161456 -3.2694301e-37  0              0.0011148437   259.67758      0              1.2538901e+09  2.6109412e-16  0              3.0006545    
    500000   90             200            200           -0.00011620589  1.4896396e-39  0             -0.00034861768  37.529584      0              1.8121693e+08  2.6109412e-16  0              3.0007132    
    600000   90             200            200            0.014933504    5.3781765e-37  0              0.044800512    2.169217       0              10474372       2.6109412e-16  0              2.9988249    
    700000   90             200            200            0.0082917729   1.0638897e-37  0              0.024875319    0.76870077     0              3711780.9      2.6109412e-16  0              2.9992063    
    800000   90             200            200            0.00649247    -1.6573933e-39  0              0.01947741     0.14707869     0              710190.37      2.6109412e-16  0              2.9993253    
    900000   90             200            200            0.0062175439  -3.1191839e-38  0              0.018652632    0.0084089664   0              40603.889      2.6109412e-16  0              2.9993441    
   1000000   90             200            200            0.0060010517  -2.5008165e-37  0              0.018003155    2.1144546e-05  0              102.09944      2.6109412e-16  0              2.9993593    
   1100000   90             200            200            0.0058881202   2.1593785e-37  0              0.017664361    9.2548923e-05  0              446.88563      2.6109412e-16  0              2.9993673    
   1200000   90             200            200            0.0058450162  -5.7431596e-38  0              0.017535049    4.5736881e-05  0              220.84703      2.6109412e-16  0              2.9993704    
   1300000   90             200            200            0.0058327694  -1.1210327e-37  0              0.017498308    9.0701767e-06  0              43.796637      2.6109412e-16  0              2.9993713    
   1400000   90             200            200            0.0058307853   1.3444812e-37  0              0.017492356    1.0112328e-06  0              4.8828811      2.6109412e-16  0              2.9993715    
   1500000   90             200            200            0.0058311765   1.0707519e-37  0              0.01749353     5.4658447e-08  0              0.26392608     2.6109412e-16  0              2.9993714    
   1600000   90             200            200            0.0058316945   2.4923852e-38  0              0.017495084    1.6990573e-10  0              0.00082041398  2.6109412e-16  0              2.9993714    
   1700000   90             200            200            0.0058319718   1.6190424e-37  0              0.017495916    5.4357809e-10  0              0.0026247441   2.6109412e-16  0              2.9993714    
   1800000   90             200            200            0.0058320786  -2.4150445e-39  0              0.017496236    2.7650472e-10  0              0.0013351423   2.6109412e-16  0              2.9993714    
   1900000   90             200            200            0.0058321092  -2.3880373e-39  0              0.017496327    5.5480824e-11  0              0.00026789704  2.6109412e-16  0              2.9993714    
   2000000   90             200            200            0.0058321142  -8.4533991e-38  0              0.017496343    6.2491814e-12  0              3.0175061e-05  2.6109412e-16  0              2.9993714    
   2100000   90             200            200            0.0058321133  -2.9724833e-38  0              0.01749634     3.4365306e-13  0              1.6593777e-06  2.6109412e-16  0              2.9993714    
   2200000   90             200            200            0.005832112   -2.3065371e-39  0              0.017496336    1.2680472e-15  0              6.122946e-09   2.6109412e-16  0              2.9993714    
   2300000   90             200            200            0.0058321113   5.2502919e-38  0              0.017496334    3.2034064e-15  0              1.5468103e-08  2.6109412e-16  0              2.9993714    
   2400000   90             200            200            0.0058321111   2.7165856e-37  0              0.017496333    1.6746994e-15  0              8.0865242e-09  2.6109412e-16  0              2.9993714    
   2500000   90             200            200            0.005832111   -1.2548323e-37  0              0.017496333    3.403734e-16   0              1.6435413e-09  2.6109412e-16  0              2.9993714    
   2600000   90             200            200            0.005832111   -7.0673304e-38  0              0.017496333    3.7381484e-17  0              1.8050181e-10  2.6109412e-16  0              2.9993714    
   2700000   90             200            200            0.005832111   -2.9558719e-38  0              0.017496333    3.3186033e-18  0              1.6024347e-11  2.6109412e-16  0              2.9993714    
   2800000   90             200            200            0.005832111    1.2112004e-37  0              0.017496333    1.5948212e-19  0              7.7008207e-13  2.6109412e-16  0              2.9993714    
   2900000   90             200            200            0.005832111    1.158442e-38   0              0.017496333    1.3742991e-19  0              6.6359986e-13  2.6109412e-16  0              2.9993714    
   3000000   90             200            200            0.005832111   -1.5778028e-38  0              0.017496333    6.2974931e-20  0              3.0408341e-13  2.6109412e-16  0              2.9993714    
Loop time of 74.1511 on 4 procs for 3000000 steps with 51 atoms

Performance: 34955659.596 ns/day, 0.000 hours/ns, 40457.939 timesteps/s
99.6% CPU use with 4 MPI tasks x 1 OpenMP threads

MPI task timing breakdown:
Section |  min time  |  avg time  |  max time  |%varavg| %total
---------------------------------------------------------------
Pair    | 0.24351    | 2.7011     | 9.8433     | 250.9 |  3.64
Neigh   | 0.075477   | 0.077862   | 0.081706   |   0.9 |  0.11
Comm    | 31.111     | 37.806     | 45.703     |  86.6 | 50.98
Output  | 1.0032     | 1.0455     | 1.1682     |   6.9 |  1.41
Modify  | 16.18      | 23.099     | 31.827     | 144.0 | 31.15
Other   |            | 9.422      |            |       | 12.71

Nlocal:          12.75 ave          51 max           0 min
Histogram: 3 0 0 0 0 0 0 0 0 1
Nghost:          41.25 ave          54 max           3 min
Histogram: 1 0 0 0 0 0 0 0 0 3
Neighs:          17.75 ave          71 max           0 min
Histogram: 3 0 0 0 0 0 0 0 0 1

Total # of neighbors = 71
Ave neighs/atom = 1.3921569
Neighbor list builds = 174
Dangerous builds = 0

undump D1

############ Add spring between top chain to supp particle and then equilibrium  ###########

#fix sp1 support spring couple slider1 ${K0} ${lenspr} NULL NULL 0                                 # Add spring

#dump 		D2 all custom 100000 add_${num}*.dump id type diameter mass xu yu zu

#fix add1 all print 10 "${p0} ${distance} ${slider_z}" file add_distance_${num}.txt screen no      # out put step, distance(spring length), z-position of top chain

#run 1000000

#undump D2

#unfix add1

########## Pulling the supporting particle with constant velocity #############

#fix m1 support move linear 0.1 0 0 units box                                                      # apply constant velocity to supporting particles along x-direction V=0.1m/s

#fix move1 all print 100 "${p0} ${distance} ${slider_z}" file move_distance_${num}.txt screen no

#dump 		1 all custom 50000 move_${num}_*.dump id type diameter mass xu yu zu

#run 1000000

clear
  using 1 OpenMP thread(s) per MPI task

next num

jump SELF startloop

include granular.in
### Simulation of contact between two chain

##################### Simulation setup ####################

units micro                              # units
dimension	3                            # dimension
boundary	p p p                        # boundary condition p: periodic
atom_style	sphere                       # atom style
#processors * * 1

####################### Parameter ##################################

variable ind equal ${num}
variable ind equal 1

#variable lat0 equal 1                    #
variable lat1 equal 3+(v_ind*0.01)  # .491+(v_ind*0.001)       # Lattice distance of bottom chain
variable lat2 equal 3                    # Lattice distance of top chain
variable d1 equal 3                      # Diamter of particle at bottom chain
variable d2 equal 3                      # Diamter of particle at top chain
#variable d3 equal 1                      # Diamter of supporting particle

variable n2e1 equal 10*v_lat2             # Half length of top chain. 1500 is number of particles
variable n1e1 equal 1.5*v_n2e1*(v_lat1/v_lat2)             # Half length of bottom chain, which is 1.5 time larger than top chain
variable n1e2 equal -v_n1e1
variable n2e2 equal -v_n2e1
#variable lenspr equal -(v_n2e1+100)           # length of the spring connecting top chain and supporting particle
#variable lenspr1 equal -v_lenspr-0.1         # Position of supporting particle upper bound
#variable lenspr2 equal -v_lenspr+0.1         # Position of supporting particle lower bound

variable den equal 2.2 #grams/cm^3      # micrometer^3=10^-12 cm^3 Density of materials

variable V1 equal (1/6)*PI*(v_d1^3)     # Volume of particle 1
variable V2 equal (1/6)*PI*(v_d2^3)     # Volume of particle 2
#variable V3 equal (1/6)*PI*(v_d3^3)     # Volume of particle 3

variable mass1 equal v_den*v_V1  # Mass of particle 1 (picograms)
variable mass2 equal v_den*v_V2  # Mass of particle 2
#variable mass3 equal v_den*v_V3  # Mass of particle 3

# E GPa to picogram/(micrometer-microsecond^2)= 10^3 Pa= 10^-6 GPa
# Force unit(picogram-micrometer/microsecond^2)=10^-9 N= 1nN
# Spring stiffness (force/distance) 10^-3 N/m

variable K0 equal (1500/50)*(10^5)             # Spring stiffness conneting top chain and sup particle
variable E equal 100*(10^6)                    # Young's Modulus using for Hertz/material model
variable PR equal 0.3                          # Poisson's ratio using for Hertz/material model
variable Fn equal -1000                        # Force apply to each particles in top chain
variable dt equal 0.00001                      # Time step units microsecond
variable lgv equal 0.5                         #damping for langevin thermostat for slider


################### Creating the model #################################
lattice sc ${lat1}                                                               # Bottom chain type1
lattice sc 3.01                                                               
Lattice spacing in x,y,z = 3.01 3.01 3.01

region box block ${n1e2} ${n1e1} -100 100 -100 100 units box
region box block -45.15 ${n1e1} -100 100 -100 100 units box
region box block -45.15 45.15 -100 100 -100 100 units box
region substrate block ${n1e2} ${n1e1} -0.5 0.5 0 0.5 units box
region substrate block -45.15 ${n1e1} -0.5 0.5 0 0.5 units box
region substrate block -45.15 45.15 -0.5 0.5 0 0.5 units box

create_box 2 box
Created orthogonal box = (-45.15 -100 -100) to (45.15 100 100)
  1 by 2 by 2 MPI processor grid
create_atoms 1 region substrate
Created 30 atoms
  using lattice units in orthogonal box = (-45.15 -100 -100) to (45.15 100 100)
  create_atoms CPU = 0.001 seconds

lattice sc ${lat2}                                                             # Top chain type2
lattice sc 3                                                             
Lattice spacing in x,y,z = 3 3 3

region slider1 block ${n2e2} ${n2e1} -0.1 0.1 5.9 6.1 units box
region slider1 block -30 ${n2e1} -0.1 0.1 5.9 6.1 units box
region slider1 block -30 30 -0.1 0.1 5.9 6.1 units box

create_atoms 2 region slider1
Created 21 atoms
  using lattice units in orthogonal box = (-45.15 -100 -100) to (45.15 100 100)
  create_atoms CPU = 0.003 seconds

#lattice sc ${lat0}                                                             # Supporting particle type3

#region support block ${lenspr1} ${lenspr2} -0.1 0.1 7.9 8.1 units box

#create_atoms 3 region support

set type 1 diameter ${d1}                    # Set mass and diameter for each particles type
set type 1 diameter 3                    
Setting atom values ...
  30 settings made for diameter
set type 1 mass ${mass1}
set type 1 mass 31.101767270539
Setting atom values ...
  30 settings made for mass
set type 2 diameter ${d2}
set type 2 diameter 3
Setting atom values ...
  21 settings made for diameter
set type 2 mass ${mass2}
set type 2 mass 31.101767270539
Setting atom values ...
  21 settings made for mass
#set type 3 diameter ${d3}
#set type 3 mass ${mass3}

group substrate region substrate           # Define gorup
30 atoms in group substrate
group slider1 region slider1
21 atoms in group slider1
#group support region support
#group substrate_slider union substrate slider1

########################## Potential ###################################
pair_style granular
pair_coeff 1 1 hertz/material 0.00000001 0.001 ${PR} tangential mindlin NULL 0.1 0.01 damping viscoelastic              ########### set E between each particle in same type is small to neglect their interaction
pair_coeff 1 1 hertz/material 0.00000001 0.001 0.3 tangential mindlin NULL 0.1 0.01 damping viscoelastic              
pair_coeff 2 2 hertz/material 0.00000001 0.001 ${PR} tangential mindlin NULL 0.1 0.01 damping viscoelastic
pair_coeff 2 2 hertz/material 0.00000001 0.001 0.3 tangential mindlin NULL 0.1 0.01 damping viscoelastic
#pair_coeff 3 3 hertz/material ${E} 0.001 ${PR} tangential mindlin NULL 0.1 0.01 damping viscoelastic
pair_coeff 1 2 hertz/material ${E} 0.001 ${PR} tangential mindlin NULL 0.1 0.01 damping viscoelastic
pair_coeff 1 2 hertz/material 100000000 0.001 ${PR} tangential mindlin NULL 0.1 0.01 damping viscoelastic
pair_coeff 1 2 hertz/material 100000000 0.001 0.3 tangential mindlin NULL 0.1 0.01 damping viscoelastic
#pair_coeff 1 3 hertz/material 0.00000001 0.001 ${PR} tangential mindlin NULL 0.1 0.01 damping viscoelastic
#pair_coeff 2 3 hertz/material 0.00000001 0.001 ${PR} tangential mindlin NULL 0.1 0.01 damping viscoelastic
comm_modify     vel yes
neigh_modify    delay 0 every 1 check yes

### Compute properties ###

compute 1 slider1 com                      # Compute the center of mass of top chain
#compute 2 support com                      # Compute the center of mass of supporting particle

variable p0 equal "step"

variable slider_z equal "c_1[3]"          # output the position of top chain in z-direction

#variable distance equal "c_2[1]-c_1[1]"   # Distance between COM of top chain and supporting particle

thermo 100000
thermo_style custom step lx ly lz press pxx pyy pzz ke pe temp c_1[1] c_1[2] c_1[3] #c_2[1] c_2[2] c_2[3] v_distance

############### Fix ##################


############## Equilibrium the system with apply force ########################

fix force_slider1 slider1 setforce NULL 0 NULL                                # Fix top chain not to move in y-direction

fix f_sub substrate freeze                                                    # Freeze the bottom chain

fix rigid_top slider1 rigid/nve group 1 slider1 langevin 0 0 ${lgv} 6987532   # NVE+langevin
fix rigid_top slider1 rigid/nve group 1 slider1 langevin 0 0 0.5 6987532   
  1 rigid bodies with 21 atoms

fix add slider1 addforce 0 0 ${Fn} every 1                                    # Add force to top layer
fix add slider1 addforce 0 0 -1000 every 1                                    

timestep ${dt}
timestep 1e-05

# fix  nve_1 slider1 nve

dump 		D1 all custom 10000 Equi_${num}_*.dump id type diameter mass xu yu zu fx fy fz
dump 		D1 all custom 10000 Equi_1_*.dump id type diameter mass xu yu zu fx fy fz

run 3000000
Generated 0 of 1 mixed pair_coeff terms from geometric mixing rule
Neighbor list info ...
  update every 1 steps, delay 0 steps, check yes
  max neighbors/atom: 2000, page size: 100000
  master list distance cutoff = 3.1
  ghost atom cutoff = 3.1
  binsize = 1.55, bins = 59 130 130
  1 neighbor lists, perpetual/occasional/extra = 1 0 0
  (1) pair granular, perpetual
      attributes: half, newton on, size, history
      pair build: half/size/bin/newton
      stencil: half/bin/3d
      bin: standard
Per MPI rank memory allocation (min/avg/max) = 13.88 | 17.35 | 18.51 Mbytes
   Step           Lx             Ly             Lz           Press           Pxx            Pyy            Pzz           KinEng         PotEng          Temp          c_1[1]         c_1[2]         c_1[3]    
         0   90.3           200            200            0              0              0              0              0              0              0              2.6109412e-16  0              6            
    100000   90.3           200            200            0.0048269711   2.7320842e-37  0              0.014480913    12671.636      0              6.1186795e+10  2.6109412e-16  0              3.3135597    
    200000   90.3           200            200            0.0019100511  -7.6334048e-37  0              0.0057301534   3671.7818      0              1.772972e+10   2.6109412e-16  0              3.0489354    
    300000   90.3           200            200            0.00053788117 -1.0758027e-37  0              0.0016136435   489.59982      0              2.3641023e+09  2.6109412e-16  0              3.0325923    
    400000   90.3           200            200            0.0003674763  -2.1659866e-37  0              0.0011024289   256.13343      0              1.2367767e+09  2.6109412e-16  0              3.0002731    
    500000   90.3           200            200            0.014358976    0.0021740382   0              0.040902888    50.209416      0              2.424433e+08   2.6109412e-16  0              2.9983512    
    600000   90.3           200            200            0.00050005398  1.5442138e-05  0              0.0014847198   0.87890631     0              4243924        2.6109412e-16  0              2.9996817    
    700000   90.3           200            200            0.0039754278   0.00022807379  0              0.01169821     0.59900929     0              2892401.5      2.6109412e-16  0              2.9991243    
    800000   90.3           200            200            0.0049301237   0.00031248031  0              0.014477891    0.001726369    0              8336.0182      2.6109412e-16  0              2.9990245    
    900000   90.3           200            200            0.0056063843   0.00032555628  0              0.016493597    0.0067638092   0              32660.014      2.6109412e-16  0              2.9989581    
   1000000   90.3           200            200            0.0059111389   0.00032874024  0              0.017404677    0.0031784207   0              15347.456      2.6109412e-16  0              2.9989294    
   1100000   90.3           200            200            0.0059612866   0.00032929768  0              0.017554562    0.00016818623  0              812.1111       2.6109412e-16  0              2.9989248    
   1200000   90.3           200            200            0.0059399465   0.00032895779  0              0.017490882    1.7995455e-06  0              8.6893613      2.6109412e-16  0              2.9989268    
   1300000   90.3           200            200            0.0059251876   0.0003288175   0              0.017446745    5.6382431e-06  0              27.225058      2.6109412e-16  0              2.9989282    
   1400000   90.3           200            200            0.0059208282   0.00032877874  0              0.017433706    9.9871205e-07  0              4.8224231      2.6109412e-16  0              2.9989286    
   1500000   90.3           200            200            0.0059206486   0.00032877729  0              0.017433169    3.1304322e-08  0              0.15115737     2.6109412e-16  0              2.9989286    
   1600000   90.3           200            200            0.0059211486   0.00032878186  0              0.017434664    2.2088248e-09  0              0.010665624    2.6109412e-16  0              2.9989286    
   1700000   90.3           200            200            0.0059214221   0.00032878433  0              0.017435482    2.2434864e-09  0              0.010832993    2.6109412e-16  0              2.9989285    
   1800000   90.3           200            200            0.0059214908   0.00032878495  0              0.017435688    2.9767284e-10  0              0.0014373556   2.6109412e-16  0              2.9989285    
   1900000   90.3           200            200            0.0059214881   0.00032878492  0              0.017435679    4.8082469e-12  0              2.3217303e-05  2.6109412e-16  0              2.9989285    
   2000000   90.3           200            200            0.0059214774   0.00032878482  0              0.017435647    1.5400989e-12  0              7.4365865e-06  2.6109412e-16  0              2.9989285    
   2100000   90.3           200            200            0.0059214725   0.00032878478  0              0.017435633    8.3757259e-13  0              4.0443383e-06  2.6109412e-16  0              2.9989285    
   2200000   90.3           200            200            0.0059214714   0.00032878477  0              0.01743563     8.3069961e-14  0              4.0111511e-07  2.6109412e-16  0              2.9989285    
   2300000   90.3           200            200            0.0059214716   0.00032878477  0              0.01743563     3.9201879e-16  0              1.8929184e-09  2.6109412e-16  0              2.9989285    
   2400000   90.3           200            200            0.0059214718   0.00032878477  0              0.017435631    8.3900006e-16  0              4.051231e-09   2.6109412e-16  0              2.9989285    
   2500000   90.3           200            200            0.0059214719   0.00032878477  0              0.017435631    2.9699692e-16  0              1.4340918e-09  2.6109412e-16  0              2.9989285    
   2600000   90.3           200            200            0.0059214719   0.00032878477  0              0.017435631    2.0821827e-17  0              1.0054115e-10  2.6109412e-16  0              2.9989285    
   2700000   90.3           200            200            0.0059214719   0.00032878477  0              0.017435631    1.2597515e-20  0              6.0828892e-14  2.6109412e-16  0              2.9989285    
   2800000   90.3           200            200            0.0059214719   0.00032878477  0              0.017435631    8.7235016e-20  0              4.2122667e-13  2.6109412e-16  0              2.9989285    
   2900000   90.3           200            200            0.0059214719   0.00032878477  0              0.017435631    1.4831615e-20  0              7.1616561e-14  2.6109412e-16  0              2.9989285    
   3000000   90.3           200            200            0.0059214719   0.00032878477  0              0.017435631    3.1454385e-20  0              1.5188197e-13  2.6109412e-16  0              2.9989285    
Loop time of 73.1226 on 4 procs for 3000000 steps with 51 atoms

Performance: 35447303.325 ns/day, 0.000 hours/ns, 41026.971 timesteps/s
99.8% CPU use with 4 MPI tasks x 1 OpenMP threads

MPI task timing breakdown:
Section |  min time  |  avg time  |  max time  |%varavg| %total
---------------------------------------------------------------
Pair    | 0.23734    | 2.4066     | 8.6711     | 233.2 |  3.29
Neigh   | 0.070519   | 0.07269    | 0.076151   |   0.9 |  0.10
Comm    | 31.096     | 38.024     | 45.691     |  87.4 | 52.00
Output  | 0.51615    | 0.55845    | 0.68252    |   9.6 |  0.76
Modify  | 15.936     | 22.749     | 31.414     | 144.6 | 31.11
Other   |            | 9.312      |            |       | 12.73

Nlocal:          12.75 ave          51 max           0 min
Histogram: 3 0 0 0 0 0 0 0 0 1
Nghost:          41.25 ave          54 max           3 min
Histogram: 1 0 0 0 0 0 0 0 0 3
Neighs:          17.75 ave          71 max           0 min
Histogram: 3 0 0 0 0 0 0 0 0 1

Total # of neighbors = 71
Ave neighs/atom = 1.3921569
Neighbor list builds = 174
Dangerous builds = 0

undump D1

############ Add spring between top chain to supp particle and then equilibrium  ###########

#fix sp1 support spring couple slider1 ${K0} ${lenspr} NULL NULL 0                                 # Add spring

#dump 		D2 all custom 100000 add_${num}*.dump id type diameter mass xu yu zu

#fix add1 all print 10 "${p0} ${distance} ${slider_z}" file add_distance_${num}.txt screen no      # out put step, distance(spring length), z-position of top chain

#run 1000000

#undump D2

#unfix add1

########## Pulling the supporting particle with constant velocity #############

#fix m1 support move linear 0.1 0 0 units box                                                      # apply constant velocity to supporting particles along x-direction V=0.1m/s

#fix move1 all print 100 "${p0} ${distance} ${slider_z}" file move_distance_${num}.txt screen no

#dump 		1 all custom 50000 move_${num}_*.dump id type diameter mass xu yu zu

#run 1000000

clear
  using 1 OpenMP thread(s) per MPI task

next num

jump SELF startloop

include granular.in
### Simulation of contact between two chain

##################### Simulation setup ####################

units micro                              # units
dimension	3                            # dimension
boundary	p p p                        # boundary condition p: periodic
atom_style	sphere                       # atom style
#processors * * 1

####################### Parameter ##################################

variable ind equal ${num}
variable ind equal 2

#variable lat0 equal 1                    #
variable lat1 equal 3+(v_ind*0.01)  # .491+(v_ind*0.001)       # Lattice distance of bottom chain
variable lat2 equal 3                    # Lattice distance of top chain
variable d1 equal 3                      # Diamter of particle at bottom chain
variable d2 equal 3                      # Diamter of particle at top chain
#variable d3 equal 1                      # Diamter of supporting particle

variable n2e1 equal 10*v_lat2             # Half length of top chain. 1500 is number of particles
variable n1e1 equal 1.5*v_n2e1*(v_lat1/v_lat2)             # Half length of bottom chain, which is 1.5 time larger than top chain
variable n1e2 equal -v_n1e1
variable n2e2 equal -v_n2e1
#variable lenspr equal -(v_n2e1+100)           # length of the spring connecting top chain and supporting particle
#variable lenspr1 equal -v_lenspr-0.1         # Position of supporting particle upper bound
#variable lenspr2 equal -v_lenspr+0.1         # Position of supporting particle lower bound

variable den equal 2.2 #grams/cm^3      # micrometer^3=10^-12 cm^3 Density of materials

variable V1 equal (1/6)*PI*(v_d1^3)     # Volume of particle 1
variable V2 equal (1/6)*PI*(v_d2^3)     # Volume of particle 2
#variable V3 equal (1/6)*PI*(v_d3^3)     # Volume of particle 3

variable mass1 equal v_den*v_V1  # Mass of particle 1 (picograms)
variable mass2 equal v_den*v_V2  # Mass of particle 2
#variable mass3 equal v_den*v_V3  # Mass of particle 3

# E GPa to picogram/(micrometer-microsecond^2)= 10^3 Pa= 10^-6 GPa
# Force unit(picogram-micrometer/microsecond^2)=10^-9 N= 1nN
# Spring stiffness (force/distance) 10^-3 N/m

variable K0 equal (1500/50)*(10^5)             # Spring stiffness conneting top chain and sup particle
variable E equal 100*(10^6)                    # Young's Modulus using for Hertz/material model
variable PR equal 0.3                          # Poisson's ratio using for Hertz/material model
variable Fn equal -1000                        # Force apply to each particles in top chain
variable dt equal 0.00001                      # Time step units microsecond
variable lgv equal 0.5                         #damping for langevin thermostat for slider


################### Creating the model #################################
lattice sc ${lat1}                                                               # Bottom chain type1
lattice sc 3.02                                                               
Lattice spacing in x,y,z = 3.02 3.02 3.02

region box block ${n1e2} ${n1e1} -100 100 -100 100 units box
region box block -45.3 ${n1e1} -100 100 -100 100 units box
region box block -45.3 45.3 -100 100 -100 100 units box
region substrate block ${n1e2} ${n1e1} -0.5 0.5 0 0.5 units box
region substrate block -45.3 ${n1e1} -0.5 0.5 0 0.5 units box
region substrate block -45.3 45.3 -0.5 0.5 0 0.5 units box

create_box 2 box
Created orthogonal box = (-45.3 -100 -100) to (45.3 100 100)
  1 by 2 by 2 MPI processor grid
create_atoms 1 region substrate
Created 30 atoms
  using lattice units in orthogonal box = (-45.3 -100 -100) to (45.3 100 100)
  create_atoms CPU = 0.001 seconds

lattice sc ${lat2}                                                             # Top chain type2
lattice sc 3                                                             
Lattice spacing in x,y,z = 3 3 3

region slider1 block ${n2e2} ${n2e1} -0.1 0.1 5.9 6.1 units box
region slider1 block -30 ${n2e1} -0.1 0.1 5.9 6.1 units box
region slider1 block -30 30 -0.1 0.1 5.9 6.1 units box

create_atoms 2 region slider1
Created 21 atoms
  using lattice units in orthogonal box = (-45.3 -100 -100) to (45.3 100 100)
  create_atoms CPU = 0.004 seconds

#lattice sc ${lat0}                                                             # Supporting particle type3

#region support block ${lenspr1} ${lenspr2} -0.1 0.1 7.9 8.1 units box

#create_atoms 3 region support

set type 1 diameter ${d1}                    # Set mass and diameter for each particles type
set type 1 diameter 3                    
Setting atom values ...
  30 settings made for diameter
set type 1 mass ${mass1}
set type 1 mass 31.101767270539
Setting atom values ...
  30 settings made for mass
set type 2 diameter ${d2}
set type 2 diameter 3
Setting atom values ...
  21 settings made for diameter
set type 2 mass ${mass2}
set type 2 mass 31.101767270539
Setting atom values ...
  21 settings made for mass
#set type 3 diameter ${d3}
#set type 3 mass ${mass3}

group substrate region substrate           # Define gorup
30 atoms in group substrate
group slider1 region slider1
21 atoms in group slider1
#group support region support
#group substrate_slider union substrate slider1

########################## Potential ###################################
pair_style granular
pair_coeff 1 1 hertz/material 0.00000001 0.001 ${PR} tangential mindlin NULL 0.1 0.01 damping viscoelastic              ########### set E between each particle in same type is small to neglect their interaction
pair_coeff 1 1 hertz/material 0.00000001 0.001 0.3 tangential mindlin NULL 0.1 0.01 damping viscoelastic              
pair_coeff 2 2 hertz/material 0.00000001 0.001 ${PR} tangential mindlin NULL 0.1 0.01 damping viscoelastic
pair_coeff 2 2 hertz/material 0.00000001 0.001 0.3 tangential mindlin NULL 0.1 0.01 damping viscoelastic
#pair_coeff 3 3 hertz/material ${E} 0.001 ${PR} tangential mindlin NULL 0.1 0.01 damping viscoelastic
pair_coeff 1 2 hertz/material ${E} 0.001 ${PR} tangential mindlin NULL 0.1 0.01 damping viscoelastic
pair_coeff 1 2 hertz/material 100000000 0.001 ${PR} tangential mindlin NULL 0.1 0.01 damping viscoelastic
pair_coeff 1 2 hertz/material 100000000 0.001 0.3 tangential mindlin NULL 0.1 0.01 damping viscoelastic
#pair_coeff 1 3 hertz/material 0.00000001 0.001 ${PR} tangential mindlin NULL 0.1 0.01 damping viscoelastic
#pair_coeff 2 3 hertz/material 0.00000001 0.001 ${PR} tangential mindlin NULL 0.1 0.01 damping viscoelastic
comm_modify     vel yes
neigh_modify    delay 0 every 1 check yes

### Compute properties ###

compute 1 slider1 com                      # Compute the center of mass of top chain
#compute 2 support com                      # Compute the center of mass of supporting particle

variable p0 equal "step"

variable slider_z equal "c_1[3]"          # output the position of top chain in z-direction

#variable distance equal "c_2[1]-c_1[1]"   # Distance between COM of top chain and supporting particle

thermo 100000
thermo_style custom step lx ly lz press pxx pyy pzz ke pe temp c_1[1] c_1[2] c_1[3] #c_2[1] c_2[2] c_2[3] v_distance

############### Fix ##################


############## Equilibrium the system with apply force ########################

fix force_slider1 slider1 setforce NULL 0 NULL                                # Fix top chain not to move in y-direction

fix f_sub substrate freeze                                                    # Freeze the bottom chain

fix rigid_top slider1 rigid/nve group 1 slider1 langevin 0 0 ${lgv} 6987532   # NVE+langevin
fix rigid_top slider1 rigid/nve group 1 slider1 langevin 0 0 0.5 6987532   
  1 rigid bodies with 21 atoms

fix add slider1 addforce 0 0 ${Fn} every 1                                    # Add force to top layer
fix add slider1 addforce 0 0 -1000 every 1                                    

timestep ${dt}
timestep 1e-05

# fix  nve_1 slider1 nve

dump 		D1 all custom 10000 Equi_${num}_*.dump id type diameter mass xu yu zu fx fy fz
dump 		D1 all custom 10000 Equi_2_*.dump id type diameter mass xu yu zu fx fy fz

run 3000000
Generated 0 of 1 mixed pair_coeff terms from geometric mixing rule
Neighbor list info ...
  update every 1 steps, delay 0 steps, check yes
  max neighbors/atom: 2000, page size: 100000
  master list distance cutoff = 3.1
  ghost atom cutoff = 3.1
  binsize = 1.55, bins = 59 130 130
  1 neighbor lists, perpetual/occasional/extra = 1 0 0
  (1) pair granular, perpetual
      attributes: half, newton on, size, history
      pair build: half/size/bin/newton
      stencil: half/bin/3d
      bin: standard
Per MPI rank memory allocation (min/avg/max) = 13.88 | 17.35 | 18.51 Mbytes
   Step           Lx             Ly             Lz           Press           Pxx            Pyy            Pzz           KinEng         PotEng          Temp          c_1[1]         c_1[2]         c_1[3]    
         0   90.6           200            200            0              0              0              0              0              0              0              2.6109412e-16  0              6            
    100000   90.6           200            200            0.0048061602   2.7226465e-38  0              0.014418481    12655.027      0              6.1106596e+10  2.6109412e-16  0              3.3133641    
    200000   90.6           200            200            0.0018962106  -3.2632495e-36  0              0.0056886318   3650.7596      0              1.7628211e+10  2.6109412e-16  0              3.048619     
    300000   90.6           200            200            0.00051363357  1.7464809e-39  0              0.0015409007   454.82115      0              2.1961686e+09  2.6109412e-16  0              3.0330815    
    400000   90.6           200            200            0.00026828373 -4.2236319e-37  0              0.00080485118  146.1394       0              7.0565485e+08  2.6109412e-16  0              3.0048008    
    500000   90.6           200            200           -5.046201e-05   6.9793248e-39  0             -0.00015138603  6.6804982      0              32257735       2.6109412e-16  0              3.0011558    
    600000   90.6           200            200            0.003195007    8.2769162e-05  0              0.0095022517   5.9702074      0              28827995       2.6109412e-16  0              2.9988863    
    700000   90.6           200            200            0.0077466843   0.00034232168  0              0.022897731    0.3348424      0              1616834.1      2.6109412e-16  0              2.9982576    
    800000   90.6           200            200            0.0055282021   0.00028040432  0              0.016304202    0.11404249     0              550670.38      2.6109412e-16  0              2.9985353    
    900000   90.6           200            200            0.0058182638   0.00028369989  0              0.017171092    0.018648283    0              90045.882      2.6109412e-16  0              2.9984953    
   1000000   90.6           200            200            0.0059739974   0.00028511529  0              0.017636877    0.00086532386  0              4178.3392      2.6109412e-16  0              2.9984752    
   1100000   90.6           200            200            0.0058480563   0.00028396038  0              0.017260209    6.8469984e-06  0              33.061705      2.6109412e-16  0              2.9984917    
   1200000   90.6           200            200            0.0058956034   0.00028441285  0              0.017402397    2.9110303e-05  0              140.56324      2.6109412e-16  0              2.9984854    
   1300000   90.6           200            200            0.0058868667   0.00028432957  0              0.017376271    6.5885361e-06  0              31.813683      2.6109412e-16  0              2.9984866    
   1400000   90.6           200            200            0.0058851607   0.00028431422  0              0.017371168    4.3556701e-07  0              2.1031972      2.6109412e-16  0              2.9984868    
   1500000   90.6           200            200            0.0058872669   0.00028433384  0              0.017377467    1.0160093e-10  0              0.00049059455  2.6109412e-16  0              2.9984865    
   1600000   90.6           200            200            0.0058863573   0.0002843253   0              0.017374747    7.0289315e-09  0              0.033940194    2.6109412e-16  0              2.9984866    
   1700000   90.6           200            200            0.0058865649   0.00028432727  0              0.017375367    2.1864638e-09  0              0.010557651    2.6109412e-16  0              2.9984866    
   1800000   90.6           200            200            0.0058865756   0.00028432736  0              0.017375399    1.9531239e-10  0              0.00094309363  2.6109412e-16  0              2.9984866    
   1900000   90.6           200            200            0.0058865417   0.00028432705  0              0.017375298    1.5394474e-12  0              7.4334405e-06  2.6109412e-16  0              2.9984866    
   2000000   90.6           200            200            0.0058865586   0.00028432721  0              0.017375349    1.486166e-12   0              7.1761636e-06  2.6109412e-16  0              2.9984866    
   2100000   90.6           200            200            0.005886554    0.00028432716  0              0.017375335    6.8549072e-13  0              3.3099893e-06  2.6109412e-16  0              2.9984866    
   2200000   90.6           200            200            0.0058865542   0.00028432716  0              0.017375335    8.034006e-14   0              3.879334e-07   2.6109412e-16  0              2.9984866    
   2300000   90.6           200            200            0.0058865547   0.00028432717  0              0.017375337    1.7060816e-15  0              8.2380573e-09  2.6109412e-16  0              2.9984866    
   2400000   90.6           200            200            0.0058865544   0.00028432717  0              0.017375336    2.5935519e-16  0              1.2523334e-09  2.6109412e-16  0              2.9984866    
   2500000   90.6           200            200            0.0058865545   0.00028432717  0              0.017375336    2.0339292e-16  0              9.8211161e-10  2.6109412e-16  0              2.9984866    
   2600000   90.6           200            200            0.0058865545   0.00028432717  0              0.017375336    3.0838374e-17  0              1.4890747e-10  2.6109412e-16  0              2.9984866    
   2700000   90.6           200            200            0.0058865545   0.00028432717  0              0.017375336    2.6492447e-19  0              1.2792255e-12  2.6109412e-16  0              2.9984866    
   2800000   90.6           200            200            0.0058865545   0.00028432717  0              0.017375336    1.7133153e-19  0              8.2729862e-13  2.6109412e-16  0              2.9984866    
   2900000   90.6           200            200            0.0058865545   0.00028432717  0              0.017375336    6.9466511e-21  0              3.3542892e-14  2.6109412e-16  0              2.9984866    
   3000000   90.6           200            200            0.0058865545   0.00028432717  0              0.017375336    6.674713e-20   0              3.22298e-13    2.6109412e-16  0              2.9984866    
Loop time of 73.256 on 4 procs for 3000000 steps with 51 atoms

Performance: 35382757.196 ns/day, 0.000 hours/ns, 40952.265 timesteps/s
99.8% CPU use with 4 MPI tasks x 1 OpenMP threads

MPI task timing breakdown:
Section |  min time  |  avg time  |  max time  |%varavg| %total
---------------------------------------------------------------
Pair    | 0.24721    | 2.2034     | 7.8654     | 220.2 |  3.01
Neigh   | 0.07206    | 0.074173   | 0.077485   |   0.8 |  0.10
Comm    | 31.015     | 38.351     | 45.9       |  90.0 | 52.35
Output  | 0.45055    | 0.49265    | 0.61625    |  10.2 |  0.67
Modify  | 15.928     | 22.858     | 31.71      | 146.4 | 31.20
Other   |            | 9.276      |            |       | 12.66

Nlocal:          12.75 ave          51 max           0 min
Histogram: 3 0 0 0 0 0 0 0 0 1
Nghost:          41.25 ave          54 max           3 min
Histogram: 1 0 0 0 0 0 0 0 0 3
Neighs:          17.75 ave          71 max           0 min
Histogram: 3 0 0 0 0 0 0 0 0 1

Total # of neighbors = 71
Ave neighs/atom = 1.3921569
Neighbor list builds = 172
Dangerous builds = 0

undump D1

############ Add spring between top chain to supp particle and then equilibrium  ###########

#fix sp1 support spring couple slider1 ${K0} ${lenspr} NULL NULL 0                                 # Add spring

#dump 		D2 all custom 100000 add_${num}*.dump id type diameter mass xu yu zu

#fix add1 all print 10 "${p0} ${distance} ${slider_z}" file add_distance_${num}.txt screen no      # out put step, distance(spring length), z-position of top chain

#run 1000000

#undump D2

#unfix add1

########## Pulling the supporting particle with constant velocity #############

#fix m1 support move linear 0.1 0 0 units box                                                      # apply constant velocity to supporting particles along x-direction V=0.1m/s

#fix move1 all print 100 "${p0} ${distance} ${slider_z}" file move_distance_${num}.txt screen no

#dump 		1 all custom 50000 move_${num}_*.dump id type diameter mass xu yu zu

#run 1000000

clear
  using 1 OpenMP thread(s) per MPI task

next num

jump SELF startloop

include granular.in
### Simulation of contact between two chain

##################### Simulation setup ####################

units micro                              # units
dimension	3                            # dimension
boundary	p p p                        # boundary condition p: periodic
atom_style	sphere                       # atom style
#processors * * 1

####################### Parameter ##################################

variable ind equal ${num}
variable ind equal 3

#variable lat0 equal 1                    #
variable lat1 equal 3+(v_ind*0.01)  # .491+(v_ind*0.001)       # Lattice distance of bottom chain
variable lat2 equal 3                    # Lattice distance of top chain
variable d1 equal 3                      # Diamter of particle at bottom chain
variable d2 equal 3                      # Diamter of particle at top chain
#variable d3 equal 1                      # Diamter of supporting particle

variable n2e1 equal 10*v_lat2             # Half length of top chain. 1500 is number of particles
variable n1e1 equal 1.5*v_n2e1*(v_lat1/v_lat2)             # Half length of bottom chain, which is 1.5 time larger than top chain
variable n1e2 equal -v_n1e1
variable n2e2 equal -v_n2e1
#variable lenspr equal -(v_n2e1+100)           # length of the spring connecting top chain and supporting particle
#variable lenspr1 equal -v_lenspr-0.1         # Position of supporting particle upper bound
#variable lenspr2 equal -v_lenspr+0.1         # Position of supporting particle lower bound

variable den equal 2.2 #grams/cm^3      # micrometer^3=10^-12 cm^3 Density of materials

variable V1 equal (1/6)*PI*(v_d1^3)     # Volume of particle 1
variable V2 equal (1/6)*PI*(v_d2^3)     # Volume of particle 2
#variable V3 equal (1/6)*PI*(v_d3^3)     # Volume of particle 3

variable mass1 equal v_den*v_V1  # Mass of particle 1 (picograms)
variable mass2 equal v_den*v_V2  # Mass of particle 2
#variable mass3 equal v_den*v_V3  # Mass of particle 3

# E GPa to picogram/(micrometer-microsecond^2)= 10^3 Pa= 10^-6 GPa
# Force unit(picogram-micrometer/microsecond^2)=10^-9 N= 1nN
# Spring stiffness (force/distance) 10^-3 N/m

variable K0 equal (1500/50)*(10^5)             # Spring stiffness conneting top chain and sup particle
variable E equal 100*(10^6)                    # Young's Modulus using for Hertz/material model
variable PR equal 0.3                          # Poisson's ratio using for Hertz/material model
variable Fn equal -1000                        # Force apply to each particles in top chain
variable dt equal 0.00001                      # Time step units microsecond
variable lgv equal 0.5                         #damping for langevin thermostat for slider


################### Creating the model #################################
lattice sc ${lat1}                                                               # Bottom chain type1
lattice sc 3.03                                                               
Lattice spacing in x,y,z = 3.03 3.03 3.03

region box block ${n1e2} ${n1e1} -100 100 -100 100 units box
region box block -45.45 ${n1e1} -100 100 -100 100 units box
region box block -45.45 45.45 -100 100 -100 100 units box
region substrate block ${n1e2} ${n1e1} -0.5 0.5 0 0.5 units box
region substrate block -45.45 ${n1e1} -0.5 0.5 0 0.5 units box
region substrate block -45.45 45.45 -0.5 0.5 0 0.5 units box

create_box 2 box
Created orthogonal box = (-45.45 -100 -100) to (45.45 100 100)
  1 by 2 by 2 MPI processor grid
create_atoms 1 region substrate
Created 30 atoms
  using lattice units in orthogonal box = (-45.45 -100 -100) to (45.45 100 100)
  create_atoms CPU = 0.000 seconds

lattice sc ${lat2}                                                             # Top chain type2
lattice sc 3                                                             
Lattice spacing in x,y,z = 3 3 3

region slider1 block ${n2e2} ${n2e1} -0.1 0.1 5.9 6.1 units box
region slider1 block -30 ${n2e1} -0.1 0.1 5.9 6.1 units box
region slider1 block -30 30 -0.1 0.1 5.9 6.1 units box

create_atoms 2 region slider1
Created 21 atoms
  using lattice units in orthogonal box = (-45.45 -100 -100) to (45.45 100 100)
  create_atoms CPU = 0.004 seconds

#lattice sc ${lat0}                                                             # Supporting particle type3

#region support block ${lenspr1} ${lenspr2} -0.1 0.1 7.9 8.1 units box

#create_atoms 3 region support

set type 1 diameter ${d1}                    # Set mass and diameter for each particles type
set type 1 diameter 3                    
Setting atom values ...
  30 settings made for diameter
set type 1 mass ${mass1}
set type 1 mass 31.101767270539
Setting atom values ...
  30 settings made for mass
set type 2 diameter ${d2}
set type 2 diameter 3
Setting atom values ...
  21 settings made for diameter
set type 2 mass ${mass2}
set type 2 mass 31.101767270539
Setting atom values ...
  21 settings made for mass
#set type 3 diameter ${d3}
#set type 3 mass ${mass3}

group substrate region substrate           # Define gorup
30 atoms in group substrate
group slider1 region slider1
21 atoms in group slider1
#group support region support
#group substrate_slider union substrate slider1

########################## Potential ###################################
pair_style granular
pair_coeff 1 1 hertz/material 0.00000001 0.001 ${PR} tangential mindlin NULL 0.1 0.01 damping viscoelastic              ########### set E between each particle in same type is small to neglect their interaction
pair_coeff 1 1 hertz/material 0.00000001 0.001 0.3 tangential mindlin NULL 0.1 0.01 damping viscoelastic              
pair_coeff 2 2 hertz/material 0.00000001 0.001 ${PR} tangential mindlin NULL 0.1 0.01 damping viscoelastic
pair_coeff 2 2 hertz/material 0.00000001 0.001 0.3 tangential mindlin NULL 0.1 0.01 damping viscoelastic
#pair_coeff 3 3 hertz/material ${E} 0.001 ${PR} tangential mindlin NULL 0.1 0.01 damping viscoelastic
pair_coeff 1 2 hertz/material ${E} 0.001 ${PR} tangential mindlin NULL 0.1 0.01 damping viscoelastic
pair_coeff 1 2 hertz/material 100000000 0.001 ${PR} tangential mindlin NULL 0.1 0.01 damping viscoelastic
pair_coeff 1 2 hertz/material 100000000 0.001 0.3 tangential mindlin NULL 0.1 0.01 damping viscoelastic
#pair_coeff 1 3 hertz/material 0.00000001 0.001 ${PR} tangential mindlin NULL 0.1 0.01 damping viscoelastic
#pair_coeff 2 3 hertz/material 0.00000001 0.001 ${PR} tangential mindlin NULL 0.1 0.01 damping viscoelastic
comm_modify     vel yes
neigh_modify    delay 0 every 1 check yes

### Compute properties ###

compute 1 slider1 com                      # Compute the center of mass of top chain
#compute 2 support com                      # Compute the center of mass of supporting particle

variable p0 equal "step"

variable slider_z equal "c_1[3]"          # output the position of top chain in z-direction

#variable distance equal "c_2[1]-c_1[1]"   # Distance between COM of top chain and supporting particle

thermo 100000
thermo_style custom step lx ly lz press pxx pyy pzz ke pe temp c_1[1] c_1[2] c_1[3] #c_2[1] c_2[2] c_2[3] v_distance

############### Fix ##################


############## Equilibrium the system with apply force ########################

fix force_slider1 slider1 setforce NULL 0 NULL                                # Fix top chain not to move in y-direction

fix f_sub substrate freeze                                                    # Freeze the bottom chain

fix rigid_top slider1 rigid/nve group 1 slider1 langevin 0 0 ${lgv} 6987532   # NVE+langevin
fix rigid_top slider1 rigid/nve group 1 slider1 langevin 0 0 0.5 6987532   
  1 rigid bodies with 21 atoms

fix add slider1 addforce 0 0 ${Fn} every 1                                    # Add force to top layer
fix add slider1 addforce 0 0 -1000 every 1                                    

timestep ${dt}
timestep 1e-05

# fix  nve_1 slider1 nve

dump 		D1 all custom 10000 Equi_${num}_*.dump id type diameter mass xu yu zu fx fy fz
dump 		D1 all custom 10000 Equi_3_*.dump id type diameter mass xu yu zu fx fy fz

run 3000000
Generated 0 of 1 mixed pair_coeff terms from geometric mixing rule
Neighbor list info ...
  update every 1 steps, delay 0 steps, check yes
  max neighbors/atom: 2000, page size: 100000
  master list distance cutoff = 3.1
  ghost atom cutoff = 3.1
  binsize = 1.55, bins = 59 130 130
  1 neighbor lists, perpetual/occasional/extra = 1 0 0
  (1) pair granular, perpetual
      attributes: half, newton on, size, history
      pair build: half/size/bin/newton
      stencil: half/bin/3d
      bin: standard
Per MPI rank memory allocation (min/avg/max) = 13.88 | 17.35 | 18.51 Mbytes
   Step           Lx             Ly             Lz           Press           Pxx            Pyy            Pzz           KinEng         PotEng          Temp          c_1[1]         c_1[2]         c_1[3]    
         0   90.9           200            200            0              0              0              0              0              0              0              2.6109412e-16  0              6            
    100000   90.9           200            200            0.0047822126   1.622579e-40   0              0.014346638    12624.907      0              6.0961156e+10  2.6109412e-16  0              3.3138721    
    200000   90.9           200            200            0.0018685956  -6.4410789e-37  0              0.0056057868   3587.6159      0              1.7323313e+10  2.6109412e-16  0              3.0506934    
    300000   90.9           200            200            0.00046299543  6.5629321e-37  0              0.0013889863   381.84018      0              1.8437696e+09  2.6109412e-16  0              3.0356531    
    400000   90.9           200            200            0.00015407591  4.4188755e-37  0              0.00046222772  52.564514      0              2.5381522e+08  2.6109412e-16  0              3.0086569    
    500000   90.9           200            200            0.0028695832   3.6803377e-05  0              0.0085719463   46.035299      0              2.2228798e+08  2.6109412e-16  0              2.9987269    
    600000   90.9           200            200            0.0092777651   0.00046601253  0              0.027367283    4.3307525      0              20911654       2.6109412e-16  0              2.9976599    
    700000   90.9           200            200            0.0042282258   0.00018845251  0              0.012496225    0.16238946     0              784120.58      2.6109412e-16  0              2.9984227    
    800000   90.9           200            200            0.0054432362   0.00024993409  0              0.016079774    0.083381353    0              402618.71      2.6109412e-16  0              2.9982138    
    900000   90.9           200            200            0.0059713081   0.00025572238  0              0.017658202    0.014147927    0              68315.278      2.6109412e-16  0              2.99813      
   1000000   90.9           200            200            0.0059491273   0.0002554943   0              0.017591888    1.7743773e-07  0              0.85678328     2.6109412e-16  0              2.9981339    
   1100000   90.9           200            200            0.0058723989   0.0002547576   0              0.017362439    0.00026123609  0              1261.4156      2.6109412e-16  0              2.998146     
   1200000   90.9           200            200            0.0058497057   0.00025453515  0              0.017294582    2.9494231e-05  0              142.41708      2.6109412e-16  0              2.9981495    
   1300000   90.9           200            200            0.0058523417   0.00025456268  0              0.017302463    1.1520539e-07  0              0.55628558     2.6109412e-16  0              2.9981491    
   1400000   90.9           200            200            0.0058563091   0.00025460226  0              0.017314325    7.2307776e-07  0              3.4914837      2.6109412e-16  0              2.9981485    
   1500000   90.9           200            200            0.0058573017   0.00025461199  0              0.017317293    5.9138253e-08  0              0.28555746     2.6109412e-16  0              2.9981483    
   1600000   90.9           200            200            0.0058571023   0.00025460995  0              0.017316697    1.0482692e-09  0              0.0050617167   2.6109412e-16  0              2.9981484    
   1700000   90.9           200            200            0.0058569002   0.00025460794  0              0.017316093    1.928201e-09   0              0.0093105926   2.6109412e-16  0              2.9981484    
   1800000   90.9           200            200            0.0058568585   0.00025460753  0              0.017315968    1.1127413e-10  0              0.00053730297  2.6109412e-16  0              2.9981484    
   1900000   90.9           200            200            0.0058568716   0.00025460767  0              0.017316007    5.5456796e-12  0              2.6778102e-05  2.6109412e-16  0              2.9981484    
   2000000   90.9           200            200            0.0058568817   0.00025460777  0              0.017316037    4.9641508e-12  0              2.3970108e-05  2.6109412e-16  0              2.9981484    
   2100000   90.9           200            200            0.0058568834   0.00025460778  0              0.017316042    1.9252986e-13  0              9.2965779e-07  2.6109412e-16  0              2.9981484    
   2200000   90.9           200            200            0.0058568826   0.00025460778  0              0.01731604     2.3221109e-14  0              1.1212643e-07  2.6109412e-16  0              2.9981484    
   2300000   90.9           200            200            0.0058568821   0.00025460777  0              0.017316039    1.235214e-14   0              5.9644063e-08  2.6109412e-16  0              2.9981484    
   2400000   90.9           200            200            0.005856882    0.00025460777  0              0.017316038    2.9378553e-16  0              1.4185852e-09  2.6109412e-16  0              2.9981484    
   2500000   90.9           200            200            0.0058568821   0.00025460777  0              0.017316038    8.4017706e-17  0              4.0569143e-10  2.6109412e-16  0              2.9981484    
   2600000   90.9           200            200            0.0058568821   0.00025460777  0              0.017316039    2.9473571e-17  0              1.4231732e-10  2.6109412e-16  0              2.9981484    
   2700000   90.9           200            200            0.0058568821   0.00025460777  0              0.017316039    1.2948679e-18  0              6.2524535e-12  2.6109412e-16  0              2.9981484    
   2800000   90.9           200            200            0.0058568821   0.00025460777  0              0.017316039    3.9216362e-19  0              1.8936178e-12  2.6109412e-16  0              2.9981484    
   2900000   90.9           200            200            0.0058568821   0.00025460777  0              0.017316039    1.3781977e-20  0              6.6548236e-14  2.6109412e-16  0              2.9981484    
   3000000   90.9           200            200            0.0058568821   0.00025460777  0              0.017316039    1.2346889e-19  0              5.9618707e-13  2.6109412e-16  0              2.9981484    
Loop time of 73.5465 on 4 procs for 3000000 steps with 51 atoms

Performance: 35242999.249 ns/day, 0.000 hours/ns, 40790.508 timesteps/s
99.8% CPU use with 4 MPI tasks x 1 OpenMP threads

MPI task timing breakdown:
Section |  min time  |  avg time  |  max time  |%varavg| %total
---------------------------------------------------------------
Pair    | 0.24495    | 2.0032     | 7.0762     | 207.0 |  2.72
Neigh   | 0.071892   | 0.073893   | 0.074645   |   0.4 |  0.10
Comm    | 31.449     | 38.683     | 45.977     |  89.0 | 52.60
Output  | 0.44996    | 0.4918     | 0.61449    |  10.1 |  0.67
Modify  | 16.055     | 22.959     | 31.644     | 144.6 | 31.22
Other   |            | 9.335      |            |       | 12.69

Nlocal:          12.75 ave          51 max           0 min
Histogram: 3 0 0 0 0 0 0 0 0 1
Nghost:          41.25 ave          54 max           3 min
Histogram: 1 0 0 0 0 0 0 0 0 3
Neighs:          17.75 ave          71 max           0 min
Histogram: 3 0 0 0 0 0 0 0 0 1

Total # of neighbors = 71
Ave neighs/atom = 1.3921569
Neighbor list builds = 172
Dangerous builds = 0

undump D1

############ Add spring between top chain to supp particle and then equilibrium  ###########

#fix sp1 support spring couple slider1 ${K0} ${lenspr} NULL NULL 0                                 # Add spring

#dump 		D2 all custom 100000 add_${num}*.dump id type diameter mass xu yu zu

#fix add1 all print 10 "${p0} ${distance} ${slider_z}" file add_distance_${num}.txt screen no      # out put step, distance(spring length), z-position of top chain

#run 1000000

#undump D2

#unfix add1

########## Pulling the supporting particle with constant velocity #############

#fix m1 support move linear 0.1 0 0 units box                                                      # apply constant velocity to supporting particles along x-direction V=0.1m/s

#fix move1 all print 100 "${p0} ${distance} ${slider_z}" file move_distance_${num}.txt screen no

#dump 		1 all custom 50000 move_${num}_*.dump id type diameter mass xu yu zu

#run 1000000

clear
  using 1 OpenMP thread(s) per MPI task

next num

jump SELF startloop

include granular.in
### Simulation of contact between two chain

##################### Simulation setup ####################

units micro                              # units
dimension	3                            # dimension
boundary	p p p                        # boundary condition p: periodic
atom_style	sphere                       # atom style
#processors * * 1

####################### Parameter ##################################

variable ind equal ${num}
variable ind equal 4

#variable lat0 equal 1                    #
variable lat1 equal 3+(v_ind*0.01)  # .491+(v_ind*0.001)       # Lattice distance of bottom chain
variable lat2 equal 3                    # Lattice distance of top chain
variable d1 equal 3                      # Diamter of particle at bottom chain
variable d2 equal 3                      # Diamter of particle at top chain
#variable d3 equal 1                      # Diamter of supporting particle

variable n2e1 equal 10*v_lat2             # Half length of top chain. 1500 is number of particles
variable n1e1 equal 1.5*v_n2e1*(v_lat1/v_lat2)             # Half length of bottom chain, which is 1.5 time larger than top chain
variable n1e2 equal -v_n1e1
variable n2e2 equal -v_n2e1
#variable lenspr equal -(v_n2e1+100)           # length of the spring connecting top chain and supporting particle
#variable lenspr1 equal -v_lenspr-0.1         # Position of supporting particle upper bound
#variable lenspr2 equal -v_lenspr+0.1         # Position of supporting particle lower bound

variable den equal 2.2 #grams/cm^3      # micrometer^3=10^-12 cm^3 Density of materials

variable V1 equal (1/6)*PI*(v_d1^3)     # Volume of particle 1
variable V2 equal (1/6)*PI*(v_d2^3)     # Volume of particle 2
#variable V3 equal (1/6)*PI*(v_d3^3)     # Volume of particle 3

variable mass1 equal v_den*v_V1  # Mass of particle 1 (picograms)
variable mass2 equal v_den*v_V2  # Mass of particle 2
#variable mass3 equal v_den*v_V3  # Mass of particle 3

# E GPa to picogram/(micrometer-microsecond^2)= 10^3 Pa= 10^-6 GPa
# Force unit(picogram-micrometer/microsecond^2)=10^-9 N= 1nN
# Spring stiffness (force/distance) 10^-3 N/m

variable K0 equal (1500/50)*(10^5)             # Spring stiffness conneting top chain and sup particle
variable E equal 100*(10^6)                    # Young's Modulus using for Hertz/material model
variable PR equal 0.3                          # Poisson's ratio using for Hertz/material model
variable Fn equal -1000                        # Force apply to each particles in top chain
variable dt equal 0.00001                      # Time step units microsecond
variable lgv equal 0.5                         #damping for langevin thermostat for slider


################### Creating the model #################################
lattice sc ${lat1}                                                               # Bottom chain type1
lattice sc 3.04                                                               
Lattice spacing in x,y,z = 3.04 3.04 3.04

region box block ${n1e2} ${n1e1} -100 100 -100 100 units box
region box block -45.6 ${n1e1} -100 100 -100 100 units box
region box block -45.6 45.6 -100 100 -100 100 units box
region substrate block ${n1e2} ${n1e1} -0.5 0.5 0 0.5 units box
region substrate block -45.6 ${n1e1} -0.5 0.5 0 0.5 units box
region substrate block -45.6 45.6 -0.5 0.5 0 0.5 units box

create_box 2 box
Created orthogonal box = (-45.6 -100 -100) to (45.6 100 100)
  1 by 2 by 2 MPI processor grid
create_atoms 1 region substrate
Created 30 atoms
  using lattice units in orthogonal box = (-45.6 -100 -100) to (45.6 100 100)
  create_atoms CPU = 0.001 seconds

lattice sc ${lat2}                                                             # Top chain type2
lattice sc 3                                                             
Lattice spacing in x,y,z = 3 3 3

region slider1 block ${n2e2} ${n2e1} -0.1 0.1 5.9 6.1 units box
region slider1 block -30 ${n2e1} -0.1 0.1 5.9 6.1 units box
region slider1 block -30 30 -0.1 0.1 5.9 6.1 units box

create_atoms 2 region slider1
Created 21 atoms
  using lattice units in orthogonal box = (-45.6 -100 -100) to (45.6 100 100)
  create_atoms CPU = 0.003 seconds

#lattice sc ${lat0}                                                             # Supporting particle type3

#region support block ${lenspr1} ${lenspr2} -0.1 0.1 7.9 8.1 units box

#create_atoms 3 region support

set type 1 diameter ${d1}                    # Set mass and diameter for each particles type
set type 1 diameter 3                    
Setting atom values ...
  30 settings made for diameter
set type 1 mass ${mass1}
set type 1 mass 31.101767270539
Setting atom values ...
  30 settings made for mass
set type 2 diameter ${d2}
set type 2 diameter 3
Setting atom values ...
  21 settings made for diameter
set type 2 mass ${mass2}
set type 2 mass 31.101767270539
Setting atom values ...
  21 settings made for mass
#set type 3 diameter ${d3}
#set type 3 mass ${mass3}

group substrate region substrate           # Define gorup
30 atoms in group substrate
group slider1 region slider1
21 atoms in group slider1
#group support region support
#group substrate_slider union substrate slider1

########################## Potential ###################################
pair_style granular
pair_coeff 1 1 hertz/material 0.00000001 0.001 ${PR} tangential mindlin NULL 0.1 0.01 damping viscoelastic              ########### set E between each particle in same type is small to neglect their interaction
pair_coeff 1 1 hertz/material 0.00000001 0.001 0.3 tangential mindlin NULL 0.1 0.01 damping viscoelastic              
pair_coeff 2 2 hertz/material 0.00000001 0.001 ${PR} tangential mindlin NULL 0.1 0.01 damping viscoelastic
pair_coeff 2 2 hertz/material 0.00000001 0.001 0.3 tangential mindlin NULL 0.1 0.01 damping viscoelastic
#pair_coeff 3 3 hertz/material ${E} 0.001 ${PR} tangential mindlin NULL 0.1 0.01 damping viscoelastic
pair_coeff 1 2 hertz/material ${E} 0.001 ${PR} tangential mindlin NULL 0.1 0.01 damping viscoelastic
pair_coeff 1 2 hertz/material 100000000 0.001 ${PR} tangential mindlin NULL 0.1 0.01 damping viscoelastic
pair_coeff 1 2 hertz/material 100000000 0.001 0.3 tangential mindlin NULL 0.1 0.01 damping viscoelastic
#pair_coeff 1 3 hertz/material 0.00000001 0.001 ${PR} tangential mindlin NULL 0.1 0.01 damping viscoelastic
#pair_coeff 2 3 hertz/material 0.00000001 0.001 ${PR} tangential mindlin NULL 0.1 0.01 damping viscoelastic
comm_modify     vel yes
neigh_modify    delay 0 every 1 check yes

### Compute properties ###

compute 1 slider1 com                      # Compute the center of mass of top chain
#compute 2 support com                      # Compute the center of mass of supporting particle

variable p0 equal "step"

variable slider_z equal "c_1[3]"          # output the position of top chain in z-direction

#variable distance equal "c_2[1]-c_1[1]"   # Distance between COM of top chain and supporting particle

thermo 100000
thermo_style custom step lx ly lz press pxx pyy pzz ke pe temp c_1[1] c_1[2] c_1[3] #c_2[1] c_2[2] c_2[3] v_distance

############### Fix ##################


############## Equilibrium the system with apply force ########################

fix force_slider1 slider1 setforce NULL 0 NULL                                # Fix top chain not to move in y-direction

fix f_sub substrate freeze                                                    # Freeze the bottom chain

fix rigid_top slider1 rigid/nve group 1 slider1 langevin 0 0 ${lgv} 6987532   # NVE+langevin
fix rigid_top slider1 rigid/nve group 1 slider1 langevin 0 0 0.5 6987532   
  1 rigid bodies with 21 atoms

fix add slider1 addforce 0 0 ${Fn} every 1                                    # Add force to top layer
fix add slider1 addforce 0 0 -1000 every 1                                    

timestep ${dt}
timestep 1e-05

# fix  nve_1 slider1 nve

dump 		D1 all custom 10000 Equi_${num}_*.dump id type diameter mass xu yu zu fx fy fz
dump 		D1 all custom 10000 Equi_4_*.dump id type diameter mass xu yu zu fx fy fz

run 3000000
Generated 0 of 1 mixed pair_coeff terms from geometric mixing rule
Neighbor list info ...
  update every 1 steps, delay 0 steps, check yes
  max neighbors/atom: 2000, page size: 100000
  master list distance cutoff = 3.1
  ghost atom cutoff = 3.1
  binsize = 1.55, bins = 59 130 130
  1 neighbor lists, perpetual/occasional/extra = 1 0 0
  (1) pair granular, perpetual
      attributes: half, newton on, size, history
      pair build: half/size/bin/newton
      stencil: half/bin/3d
      bin: standard
Per MPI rank memory allocation (min/avg/max) = 13.88 | 17.35 | 18.51 Mbytes
   Step           Lx             Ly             Lz           Press           Pxx            Pyy            Pzz           KinEng         PotEng          Temp          c_1[1]         c_1[2]         c_1[3]    
         0   91.2           200            200            0              0              0              0              0              0              0              2.6109412e-16  0              6            
    100000   91.2           200            200            0.0047563294   1.082095e-37   0              0.014268988    12585.032      0              6.0768617e+10  2.6109412e-16  0              3.3152512    
    200000   91.2           200            200            0.0018374604   3.2632114e-37  0              0.0055123813   3513.2462      0              1.6964208e+10  2.6109412e-16  0              3.0537019    
    300000   91.2           200            200            0.00041697502  2.1682598e-36  0              0.0012509251   319.55369      0              1.5430104e+09  2.6109412e-16  0              3.0378846    
    400000   91.2           200            200            6.2769699e-05 -1.282253e-36   0              0.0001883091   9.4611969      0              45684734       2.6109412e-16  0              3.0101461    
    500000   91.2           200            200           -3.3286079e-05 -4.283346e-36   0             -9.9858236e-05  20.760097      0              1.0024308e+08  2.6109412e-16  0              2.999789     
[...]
   2900000   104.7          200            200            0.004692497   -0.00095198949  0              0.01502948     3.3949783e-20  0              1.6393135e-13  2.6109412e-16  0              2.9973078    
   3000000   104.7          200            200            0.004692497   -0.00095198949  0              0.01502948     8.4381458e-20  0              4.0744786e-13  2.6109412e-16  0              2.9973078    
Loop time of 70.9749 on 4 procs for 3000000 steps with 51 atoms

Performance: 36519966.227 ns/day, 0.000 hours/ns, 42268.479 timesteps/s
99.8% CPU use with 4 MPI tasks x 1 OpenMP threads

MPI task timing breakdown:
Section |  min time  |  avg time  |  max time  |%varavg| %total
---------------------------------------------------------------
Pair    | 0.22483    | 1.2998     | 4.3428     | 154.1 |  1.83
Neigh   | 0.078069   | 0.080556   | 0.084117   |   0.9 |  0.11
Comm    | 30.411     | 37.957     | 44.469     |  93.3 | 53.48
Output  | 0.4564     | 0.4962     | 0.61317    |   9.6 |  0.70
Modify  | 15.272     | 22.057     | 30.333     | 142.8 | 31.08
Other   |            | 9.085      |            |       | 12.80

Nlocal:          12.75 ave          51 max           0 min
Histogram: 3 0 0 0 0 0 0 0 0 1
Nghost:          39.25 ave          52 max           1 min
Histogram: 1 0 0 0 0 0 0 0 0 3
Neighs:           7.25 ave          29 max           0 min
Histogram: 3 0 0 0 0 0 0 0 0 1

Total # of neighbors = 29
Ave neighs/atom = 0.56862745
Neighbor list builds = 166
Dangerous builds = 0

undump D1

############ Add spring between top chain to supp particle and then equilibrium  ###########

#fix sp1 support spring couple slider1 ${K0} ${lenspr} NULL NULL 0                                 # Add spring

#dump 		D2 all custom 100000 add_${num}*.dump id type diameter mass xu yu zu

#fix add1 all print 10 "${p0} ${distance} ${slider_z}" file add_distance_${num}.txt screen no      # out put step, distance(spring length), z-position of top chain

#run 1000000

#undump D2

#unfix add1

########## Pulling the supporting particle with constant velocity #############

#fix m1 support move linear 0.1 0 0 units box                                                      # apply constant velocity to supporting particles along x-direction V=0.1m/s

#fix move1 all print 100 "${p0} ${distance} ${slider_z}" file move_distance_${num}.txt screen no

#dump 		1 all custom 50000 move_${num}_*.dump id type diameter mass xu yu zu

#run 1000000

clear
  using 1 OpenMP thread(s) per MPI task

next num

jump SELF startloop

include granular.in
### Simulation of contact between two chain

##################### Simulation setup ####################

units micro                              # units
dimension	3                            # dimension
boundary	p p p                        # boundary condition p: periodic
atom_style	sphere                       # atom style
#processors * * 1

####################### Parameter ##################################

variable ind equal ${num}
variable ind equal 50

#variable lat0 equal 1                    #
variable lat1 equal 3+(v_ind*0.01)  # .491+(v_ind*0.001)       # Lattice distance of bottom chain
variable lat2 equal 3                    # Lattice distance of top chain
variable d1 equal 3                      # Diamter of particle at bottom chain
variable d2 equal 3                      # Diamter of particle at top chain
#variable d3 equal 1                      # Diamter of supporting particle

variable n2e1 equal 10*v_lat2             # Half length of top chain. 1500 is number of particles
variable n1e1 equal 1.5*v_n2e1*(v_lat1/v_lat2)             # Half length of bottom chain, which is 1.5 time larger than top chain
variable n1e2 equal -v_n1e1
variable n2e2 equal -v_n2e1
#variable lenspr equal -(v_n2e1+100)           # length of the spring connecting top chain and supporting particle
#variable lenspr1 equal -v_lenspr-0.1         # Position of supporting particle upper bound
#variable lenspr2 equal -v_lenspr+0.1         # Position of supporting particle lower bound

variable den equal 2.2 #grams/cm^3      # micrometer^3=10^-12 cm^3 Density of materials

variable V1 equal (1/6)*PI*(v_d1^3)     # Volume of particle 1
variable V2 equal (1/6)*PI*(v_d2^3)     # Volume of particle 2
#variable V3 equal (1/6)*PI*(v_d3^3)     # Volume of particle 3

variable mass1 equal v_den*v_V1  # Mass of particle 1 (picograms)
variable mass2 equal v_den*v_V2  # Mass of particle 2
#variable mass3 equal v_den*v_V3  # Mass of particle 3

# E GPa to picogram/(micrometer-microsecond^2)= 10^3 Pa= 10^-6 GPa
# Force unit(picogram-micrometer/microsecond^2)=10^-9 N= 1nN
# Spring stiffness (force/distance) 10^-3 N/m

variable K0 equal (1500/50)*(10^5)             # Spring stiffness conneting top chain and sup particle
variable E equal 100*(10^6)                    # Young's Modulus using for Hertz/material model
variable PR equal 0.3                          # Poisson's ratio using for Hertz/material model
variable Fn equal -1000                        # Force apply to each particles in top chain
variable dt equal 0.00001                      # Time step units microsecond
variable lgv equal 0.5                         #damping for langevin thermostat for slider


################### Creating the model #################################
lattice sc ${lat1}                                                               # Bottom chain type1
lattice sc 3.5                                                               
Lattice spacing in x,y,z = 3.5 3.5 3.5

region box block ${n1e2} ${n1e1} -100 100 -100 100 units box
region box block -52.5 ${n1e1} -100 100 -100 100 units box
region box block -52.5 52.5 -100 100 -100 100 units box
region substrate block ${n1e2} ${n1e1} -0.5 0.5 0 0.5 units box
region substrate block -52.5 ${n1e1} -0.5 0.5 0 0.5 units box
region substrate block -52.5 52.5 -0.5 0.5 0 0.5 units box

create_box 2 box
Created orthogonal box = (-52.5 -100 -100) to (52.5 100 100)
  1 by 2 by 2 MPI processor grid
create_atoms 1 region substrate
Created 30 atoms
  using lattice units in orthogonal box = (-52.5 -100 -100) to (52.5 100 100)
  create_atoms CPU = 0.000 seconds

lattice sc ${lat2}                                                             # Top chain type2
lattice sc 3                                                             
Lattice spacing in x,y,z = 3 3 3

region slider1 block ${n2e2} ${n2e1} -0.1 0.1 5.9 6.1 units box
region slider1 block -30 ${n2e1} -0.1 0.1 5.9 6.1 units box
region slider1 block -30 30 -0.1 0.1 5.9 6.1 units box

create_atoms 2 region slider1
Created 21 atoms
  using lattice units in orthogonal box = (-52.5 -100 -100) to (52.5 100 100)
  create_atoms CPU = 0.002 seconds

#lattice sc ${lat0}                                                             # Supporting particle type3

#region support block ${lenspr1} ${lenspr2} -0.1 0.1 7.9 8.1 units box

#create_atoms 3 region support

set type 1 diameter ${d1}                    # Set mass and diameter for each particles type
set type 1 diameter 3                    
Setting atom values ...
  30 settings made for diameter
set type 1 mass ${mass1}
set type 1 mass 31.101767270539
Setting atom values ...
  30 settings made for mass
set type 2 diameter ${d2}
set type 2 diameter 3
Setting atom values ...
  21 settings made for diameter
set type 2 mass ${mass2}
set type 2 mass 31.101767270539
Setting atom values ...
  21 settings made for mass
#set type 3 diameter ${d3}
#set type 3 mass ${mass3}

group substrate region substrate           # Define gorup
30 atoms in group substrate
group slider1 region slider1
21 atoms in group slider1
#group support region support
#group substrate_slider union substrate slider1

########################## Potential ###################################
pair_style granular
pair_coeff 1 1 hertz/material 0.00000001 0.001 ${PR} tangential mindlin NULL 0.1 0.01 damping viscoelastic              ########### set E between each particle in same type is small to neglect their interaction
pair_coeff 1 1 hertz/material 0.00000001 0.001 0.3 tangential mindlin NULL 0.1 0.01 damping viscoelastic              
pair_coeff 2 2 hertz/material 0.00000001 0.001 ${PR} tangential mindlin NULL 0.1 0.01 damping viscoelastic
pair_coeff 2 2 hertz/material 0.00000001 0.001 0.3 tangential mindlin NULL 0.1 0.01 damping viscoelastic
#pair_coeff 3 3 hertz/material ${E} 0.001 ${PR} tangential mindlin NULL 0.1 0.01 damping viscoelastic
pair_coeff 1 2 hertz/material ${E} 0.001 ${PR} tangential mindlin NULL 0.1 0.01 damping viscoelastic
pair_coeff 1 2 hertz/material 100000000 0.001 ${PR} tangential mindlin NULL 0.1 0.01 damping viscoelastic
pair_coeff 1 2 hertz/material 100000000 0.001 0.3 tangential mindlin NULL 0.1 0.01 damping viscoelastic
#pair_coeff 1 3 hertz/material 0.00000001 0.001 ${PR} tangential mindlin NULL 0.1 0.01 damping viscoelastic
#pair_coeff 2 3 hertz/material 0.00000001 0.001 ${PR} tangential mindlin NULL 0.1 0.01 damping viscoelastic
comm_modify     vel yes
neigh_modify    delay 0 every 1 check yes

### Compute properties ###

compute 1 slider1 com                      # Compute the center of mass of top chain
#compute 2 support com                      # Compute the center of mass of supporting particle

variable p0 equal "step"

variable slider_z equal "c_1[3]"          # output the position of top chain in z-direction

#variable distance equal "c_2[1]-c_1[1]"   # Distance between COM of top chain and supporting particle

thermo 100000
thermo_style custom step lx ly lz press pxx pyy pzz ke pe temp c_1[1] c_1[2] c_1[3] #c_2[1] c_2[2] c_2[3] v_distance

############### Fix ##################


############## Equilibrium the system with apply force ########################

fix force_slider1 slider1 setforce NULL 0 NULL                                # Fix top chain not to move in y-direction

fix f_sub substrate freeze                                                    # Freeze the bottom chain

fix rigid_top slider1 rigid/nve group 1 slider1 langevin 0 0 ${lgv} 6987532   # NVE+langevin
fix rigid_top slider1 rigid/nve group 1 slider1 langevin 0 0 0.5 6987532   
  1 rigid bodies with 21 atoms

fix add slider1 addforce 0 0 ${Fn} every 1                                    # Add force to top layer
fix add slider1 addforce 0 0 -1000 every 1                                    

timestep ${dt}
timestep 1e-05

# fix  nve_1 slider1 nve

dump 		D1 all custom 10000 Equi_${num}_*.dump id type diameter mass xu yu zu fx fy fz
dump 		D1 all custom 10000 Equi_50_*.dump id type diameter mass xu yu zu fx fy fz

run 3000000
Generated 0 of 1 mixed pair_coeff terms from geometric mixing rule
Neighbor list info ...
  update every 1 steps, delay 0 steps, check yes
  max neighbors/atom: 2000, page size: 100000
  master list distance cutoff = 3.1
  ghost atom cutoff = 3.1
  binsize = 1.55, bins = 68 130 130
  1 neighbor lists, perpetual/occasional/extra = 1 0 0
  (1) pair granular, perpetual
      attributes: half, newton on, size, history
      pair build: half/size/bin/newton
      stencil: half/bin/3d
      bin: standard
Per MPI rank memory allocation (min/avg/max) = 14.06 | 17.52 | 18.68 Mbytes
   Step           Lx             Ly             Lz           Press           Pxx            Pyy            Pzz           KinEng         PotEng          Temp          c_1[1]         c_1[2]         c_1[3]    
         0   105            200            200            0              0              0              0              0              0              0              2.6109412e-16  0              6            
    100000   105            200            200            0.0040562777  -4.6952983e-38  0              0.012168833    12234.125      0              5.9074211e+10  2.6109412e-16  0              3.3321503    
    200000   105            200            200            0.0014137937  -1.4670927e-39  0              0.004241381    2903.5522      0              1.4020214e+10  2.6109412e-16  0              3.0828157    
    300000   105            200            200            9.3599254e-05  2.9476282e-44  0              0.00028079776  26.201614      0              1.2651822e+08  2.6109412e-16  0              3.049136     
    400000   105            200            200            0.025110731    2.3449482e-38  0              0.075332192    64.007442      0              3.0906903e+08  2.6109412e-16  0              2.9932703    
    500000   105            200            200            0.00026516971 -3.5212944e-38  0              0.00079550912  20.069361      0              96907762       2.6109412e-16  0              2.9996173    
    600000   105            200            200            0.0043131658   6.4336905e-41  0              0.012939497    5.4904637      0              26511484       2.6109412e-16  0              2.9979278    
    700000   105            200            200            0.004629423    2.6655542e-41  0              0.013888269    0.69802904     0              3370532.4      2.6109412e-16  0              2.9978182    
    800000   105            200            200            0.004953548    2.2763427e-38  0              0.014860644    0.1055953      0              509881.92      2.6109412e-16  0              2.9977145    
    900000   105            200            200            0.0050217682   1.9095394e-41  0              0.015065305    0.014080113    0              67987.828      2.6109412e-16  0              2.9976924    
   1000000   105            200            200            0.0050202176  -5.5740337e-38  0              0.015060653    0.0015954079   0              7703.6536      2.6109412e-16  0              2.9976924    
   1100000   105            200            200            0.005009697    5.7982007e-38  0              0.015029091    0.00014860916  0              717.58043      2.6109412e-16  0              2.9976955    
   1200000   105            200            200            0.0050024782  -1.6119825e-38  0              0.015007435    1.0354211e-05  0              49.99678       2.6109412e-16  0              2.9976977    
   1300000   105            200            200            0.0049987992   2.074849e-38   0              0.014996398    3.925279e-07   0              1.8953768      2.6109412e-16  0              2.9976988    
   1400000   105            200            200            0.0049971743   4.0191673e-38  0              0.014991523    5.9981802e-11  0              0.00028963066  2.6109412e-16  0              2.9976993    
   1500000   105            200            200            0.0049965229  -3.6915747e-39  0              0.014989569    6.2878601e-09  0              0.030361826    2.6109412e-16  0              2.9976995    
   1600000   105            200            200            0.004996282   -1.2816377e-38  0              0.014988846    3.2641396e-09  0              0.015761362    2.6109412e-16  0              2.9976996    
   1700000   105            200            200            0.0049961998  -4.5814684e-38  0              0.014988599    8.8085282e-10  0              0.004253323    2.6109412e-16  0              2.9976996    
   1800000   105            200            200            0.0049961742   9.4401746e-40  0              0.014988523    1.7584341e-10  0              0.00084908488  2.6109412e-16  0              2.9976996    
   1900000   105            200            200            0.0049961672  -6.2937041e-38  0              0.014988502    2.8762088e-11  0              0.00013888183  2.6109412e-16  0              2.9976996    
   2000000   105            200            200            0.0049961658   7.204925e-39   0              0.014988497    3.9949918e-12  0              1.9290386e-05  2.6109412e-16  0              2.9976996    
   2100000   105            200            200            0.0049961657   5.6853611e-39  0              0.014988497    4.7339304e-13  0              2.2858456e-06  2.6109412e-16  0              2.9976996    
   2200000   105            200            200            0.0049961658  -9.0749614e-39  0              0.014988497    4.6739877e-14  0              2.2569014e-07  2.6109412e-16  0              2.9976996    
   2300000   105            200            200            0.0049961659   7.1962187e-38  0              0.014988498    3.5659039e-15  0              1.7218474e-08  2.6109412e-16  0              2.9976996    
   2400000   105            200            200            0.004996166    4.8492569e-38  0              0.014988498    1.7264172e-16  0              8.3362506e-10  2.6109412e-16  0              2.9976996    
   2500000   105            200            200            0.004996166   -6.9282737e-39  0              0.014988498    1.1285365e-18  0              5.449299e-12   2.6109412e-16  0              2.9976996    
   2600000   105            200            200            0.004996166    2.0506722e-38  0              0.014988498    8.2993529e-19  0              4.0074605e-12  2.6109412e-16  0              2.9976996    
   2700000   105            200            200            0.004996166   -5.9825802e-38  0              0.014988498    1.6265299e-19  0              7.8539305e-13  2.6109412e-16  0              2.9976996    
   2800000   105            200            200            0.004996166   -4.4056703e-38  0              0.014988498    3.154571e-19   0              1.5232295e-12  2.6109412e-16  0              2.9976996    
   2900000   105            200            200            0.004996166   -3.9887595e-38  0              0.014988498    7.4922051e-20  0              3.6177177e-13  2.6109412e-16  0              2.9976996    
   3000000   105            200            200            0.004996166    3.7638056e-39  0              0.014988498    2.2297245e-20  0              1.0766541e-13  2.6109412e-16  0              2.9976996    
Loop time of 70.3739 on 4 procs for 3000000 steps with 51 atoms

Performance: 36831860.454 ns/day, 0.000 hours/ns, 42629.468 timesteps/s
99.8% CPU use with 4 MPI tasks x 1 OpenMP threads

MPI task timing breakdown:
Section |  min time  |  avg time  |  max time  |%varavg| %total
---------------------------------------------------------------
Pair    | 0.22159    | 1.2631     | 4.2129     | 151.6 |  1.79
Neigh   | 0.078154   | 0.080593   | 0.084404   |   0.9 |  0.11
Comm    | 30.208     | 37.675     | 44.066     |  92.5 | 53.54
Output  | 0.46091    | 0.50023    | 0.61561    |   9.4 |  0.71
Modify  | 15.132     | 21.858     | 30.051     | 142.2 | 31.06
Other   |            | 8.996      |            |       | 12.78

Nlocal:          12.75 ave          51 max           0 min
Histogram: 3 0 0 0 0 0 0 0 0 1
Nghost:          39.25 ave          52 max           1 min
Histogram: 1 0 0 0 0 0 0 0 0 3
Neighs:           7.25 ave          29 max           0 min
Histogram: 3 0 0 0 0 0 0 0 0 1

Total # of neighbors = 29
Ave neighs/atom = 0.56862745
Neighbor list builds = 166
Dangerous builds = 0

undump D1

############ Add spring between top chain to supp particle and then equilibrium  ###########

#fix sp1 support spring couple slider1 ${K0} ${lenspr} NULL NULL 0                                 # Add spring

#dump 		D2 all custom 100000 add_${num}*.dump id type diameter mass xu yu zu

#fix add1 all print 10 "${p0} ${distance} ${slider_z}" file add_distance_${num}.txt screen no      # out put step, distance(spring length), z-position of top chain

#run 1000000

#undump D2

#unfix add1

########## Pulling the supporting particle with constant velocity #############

#fix m1 support move linear 0.1 0 0 units box                                                      # apply constant velocity to supporting particles along x-direction V=0.1m/s

#fix move1 all print 100 "${p0} ${distance} ${slider_z}" file move_distance_${num}.txt screen no

#dump 		1 all custom 50000 move_${num}_*.dump id type diameter mass xu yu zu

#run 1000000

clear
  using 1 OpenMP thread(s) per MPI task

next num

jump SELF startloop
Total wall time: 1:00:24
