ITEM: TIMESTEP
1500000
ITEM: NUMBER OF ATOMS
1001
ITEM: BOX BOUNDS pp pp pp
-9.0000000000000000e+02 9.0000000000000000e+02
-1.0000000000000000e+02 1.0000000000000000e+02
-1.0000000000000000e+02 1.0000000000000000e+02
ITEM: ATOMS id type diameter mass xu yu zu
1 1 3 31.1018 -900 0 0
2 1 3 31.1018 -897 0 0
3 1 3 31.1018 -894 0 0
4 1 3 31.1018 -891 0 0
5 1 3 31.1018 -888 0 0
6 1 3 31.1018 -885 0 0
7 1 3 31.1018 -882 0 0
8 1 3 31.1018 -879 0 0
9 1 3 31.1018 -876 0 0
10 1 3 31.1018 -873 0 0
11 1 3 31.1018 -870 0 0
12 1 3 31.1018 -867 0 0
13 1 3 31.1018 -864 0 0
14 1 3 31.1018 -861 0 0
15 1 3 31.1018 -858 0 0
16 1 3 31.1018 -855 0 0
17 1 3 31.1018 -852 0 0
18 1 3 31.1018 -849 0 0
19 1 3 31.1018 -846 0 0
20 1 3 31.1018 -843 0 0
21 1 3 31.1018 -840 0 0
22 1 3 31.1018 -837 0 0
23 1 3 31.1018 -834 0 0
24 1 3 31.1018 -831 0 0
25 1 3 31.1018 -828 0 0
26 1 3 31.1018 -825 0 0
27 1 3 31.1018 -822 0 0
28 1 3 31.1018 -819 0 0
29 1 3 31.1018 -816 0 0
30 1 3 31.1018 -813 0 0
31 1 3 31.1018 -810 0 0
32 1 3 31.1018 -807 0 0
33 1 3 31.1018 -804 0 0
34 1 3 31.1018 -801 0 0
35 1 3 31.1018 -798 0 0
36 1 3 31.1018 -795 0 0
37 1 3 31.1018 -792 0 0
38 1 3 31.1018 -789 0 0
39 1 3 31.1018 -786 0 0
40 1 3 31.1018 -783 0 0
41 1 3 31.1018 -780 0 0
42 1 3 31.1018 -777 0 0
43 1 3 31.1018 -774 0 0
44 1 3 31.1018 -771 0 0
45 1 3 31.1018 -768 0 0
46 1 3 31.1018 -765 0 0
47 1 3 31.1018 -762 0 0
48 1 3 31.1018 -759 0 0
49 1 3 31.1018 -756 0 0
50 1 3 31.1018 -753 0 0
51 1 3 31.1018 -750 0 0
52 1 3 31.1018 -747 0 0
53 1 3 31.1018 -744 0 0
54 1 3 31.1018 -741 0 0
55 1 3 31.1018 -738 0 0
56 1 3 31.1018 -735 0 0
57 1 3 31.1018 -732 0 0
58 1 3 31.1018 -729 0 0
59 1 3 31.1018 -726 0 0
60 1 3 31.1018 -723 0 0
61 1 3 31.1018 -720 0 0
62 1 3 31.1018 -717 0 0
63 1 3 31.1018 -714 0 0
64 1 3 31.1018 -711 0 0
65 1 3 31.1018 -708 0 0
66 1 3 31.1018 -705 0 0
67 1 3 31.1018 -702 0 0
68 1 3 31.1018 -699 0 0
69 1 3 31.1018 -696 0 0
70 1 3 31.1018 -693 0 0
71 1 3 31.1018 -690 0 0
72 1 3 31.1018 -687 0 0
73 1 3 31.1018 -684 0 0
74 1 3 31.1018 -681 0 0
75 1 3 31.1018 -678 0 0
76 1 3 31.1018 -675 0 0
77 1 3 31.1018 -672 0 0
78 1 3 31.1018 -669 0 0
79 1 3 31.1018 -666 0 0
80 1 3 31.1018 -663 0 0
81 1 3 31.1018 -660 0 0
82 1 3 31.1018 -657 0 0
83 1 3 31.1018 -654 0 0
84 1 3 31.1018 -651 0 0
85 1 3 31.1018 -648 0 0
86 1 3 31.1018 -645 0 0
87 1 3 31.1018 -642 0 0
88 1 3 31.1018 -639 0 0
89 1 3 31.1018 -636 0 0
90 1 3 31.1018 -633 0 0
91 1 3 31.1018 -630 0 0
92 1 3 31.1018 -627 0 0
93 1 3 31.1018 -624 0 0
94 1 3 31.1018 -621 0 0
95 1 3 31.1018 -618 0 0
96 1 3 31.1018 -615 0 0
97 1 3 31.1018 -612 0 0
98 1 3 31.1018 -609 0 0
99 1 3 31.1018 -606 0 0
100 1 3 31.1018 -603 0 0
101 1 3 31.1018 -600 0 0
102 1 3 31.1018 -597 0 0
103 1 3 31.1018 -594 0 0
104 1 3 31.1018 -591 0 0
105 1 3 31.1018 -588 0 0
106 1 3 31.1018 -585 0 0
107 1 3 31.1018 -582 0 0
108 1 3 31.1018 -579 0 0
109 1 3 31.1018 -576 0 0
110 1 3 31.1018 -573 0 0
111 1 3 31.1018 -570 0 0
112 1 3 31.1018 -567 0 0
113 1 3 31.1018 -564 0 0
114 1 3 31.1018 -561 0 0
115 1 3 31.1018 -558 0 0
116 1 3 31.1018 -555 0 0
117 1 3 31.1018 -552 0 0
118 1 3 31.1018 -549 0 0
119 1 3 31.1018 -546 0 0
120 1 3 31.1018 -543 0 0
121 1 3 31.1018 -540 0 0
122 1 3 31.1018 -537 0 0
123 1 3 31.1018 -534 0 0
124 1 3 31.1018 -531 0 0
125 1 3 31.1018 -528 0 0
126 1 3 31.1018 -525 0 0
127 1 3 31.1018 -522 0 0
128 1 3 31.1018 -519 0 0
129 1 3 31.1018 -516 0 0
130 1 3 31.1018 -513 0 0
131 1 3 31.1018 -510 0 0
132 1 3 31.1018 -507 0 0
133 1 3 31.1018 -504 0 0
134 1 3 31.1018 -501 0 0
135 1 3 31.1018 -498 0 0
136 1 3 31.1018 -495 0 0
137 1 3 31.1018 -492 0 0
138 1 3 31.1018 -489 0 0
139 1 3 31.1018 -486 0 0
140 1 3 31.1018 -483 0 0
141 1 3 31.1018 -480 0 0
142 1 3 31.1018 -477 0 0
143 1 3 31.1018 -474 0 0
144 1 3 31.1018 -471 0 0
145 1 3 31.1018 -468 0 0
146 1 3 31.1018 -465 0 0
147 1 3 31.1018 -462 0 0
148 1 3 31.1018 -459 0 0
149 1 3 31.1018 -456 0 0
150 1 3 31.1018 -453 0 0
601 2 3 31.1018 -600 0 2.99937143178903831
602 2 3 31.1018 -597 0 2.99937143178903831
603 2 3 31.1018 -594 0 2.99937143178903831
604 2 3 31.1018 -591 0 2.99937143178903831
605 2 3 31.1018 -588 0 2.99937143178903831
606 2 3 31.1018 -585 0 2.99937143178903831
607 2 3 31.1018 -582 0 2.99937143178903831
608 2 3 31.1018 -579 0 2.99937143178903831
609 2 3 31.1018 -576 0 2.99937143178903831
610 2 3 31.1018 -573 0 2.99937143178903831
611 2 3 31.1018 -570 0 2.99937143178903831
612 2 3 31.1018 -567 0 2.99937143178903831
613 2 3 31.1018 -564 0 2.99937143178903831
614 2 3 31.1018 -561 0 2.99937143178903831
615 2 3 31.1018 -558 0 2.99937143178903831
616 2 3 31.1018 -555 0 2.99937143178903831
617 2 3 31.1018 -552 0 2.99937143178903831
618 2 3 31.1018 -549 0 2.99937143178903831
619 2 3 31.1018 -546 0 2.99937143178903831
620 2 3 31.1018 -543 0 2.99937143178903831
621 2 3 31.1018 -540 0 2.99937143178903831
622 2 3 31.1018 -537 0 2.99937143178903831
623 2 3 31.1018 -534 0 2.99937143178903831
624 2 3 31.1018 -531 0 2.99937143178903831
625 2 3 31.1018 -528 0 2.99937143178903831
626 2 3 31.1018 -525 0 2.99937143178903831
627 2 3 31.1018 -522 0 2.99937143178903831
628 2 3 31.1018 -519 0 2.99937143178903831
629 2 3 31.1018 -516 0 2.99937143178903831
630 2 3 31.1018 -513 0 2.99937143178903831
631 2 3 31.1018 -510 0 2.99937143178903831
632 2 3 31.1018 -507 0 2.99937143178903831
633 2 3 31.1018 -504 0 2.99937143178903831
634 2 3 31.1018 -501 0 2.99937143178903831
635 2 3 31.1018 -498 0 2.99937143178903831
636 2 3 31.1018 -495 0 2.99937143178903831
637 2 3 31.1018 -492 0 2.99937143178903831
638 2 3 31.1018 -489 0 2.99937143178903831
639 2 3 31.1018 -486 0 2.99937143178903831
640 2 3 31.1018 -483 0 2.99937143178903831
641 2 3 31.1018 -480 0 2.99937143178903831
642 2 3 31.1018 -477 0 2.99937143178903831
643 2 3 31.1018 -474 0 2.99937143178903831
644 2 3 31.1018 -471 0 2.99937143178903831
645 2 3 31.1018 -468 0 2.99937143178903831
646 2 3 31.1018 -465 0 2.99937143178903831
647 2 3 31.1018 -462 0 2.99937143178903831
648 2 3 31.1018 -459 0 2.99937143178903831
649 2 3 31.1018 -456 0 2.99937143178903831
650 2 3 31.1018 -453 0 2.99937143178903831
151 1 3 31.1018 -450 0 0
152 1 3 31.1018 -447 0 0
153 1 3 31.1018 -444 0 0
154 1 3 31.1018 -441 0 0
155 1 3 31.1018 -438 0 0
156 1 3 31.1018 -435 0 0
157 1 3 31.1018 -432 0 0
158 1 3 31.1018 -429 0 0
159 1 3 31.1018 -426 0 0
160 1 3 31.1018 -423 0 0
161 1 3 31.1018 -420 0 0
162 1 3 31.1018 -417 0 0
163 1 3 31.1018 -414 0 0
164 1 3 31.1018 -411 0 0
165 1 3 31.1018 -408 0 0
166 1 3 31.1018 -405 0 0
167 1 3 31.1018 -402 0 0
168 1 3 31.1018 -399 0 0
169 1 3 31.1018 -396 0 0
170 1 3 31.1018 -393 0 0
171 1 3 31.1018 -390 0 0
172 1 3 31.1018 -387 0 0
173 1 3 31.1018 -384 0 0
174 1 3 31.1018 -381 0 0
175 1 3 31.1018 -378 0 0
176 1 3 31.1018 -375 0 0
177 1 3 31.1018 -372 0 0
178 1 3 31.1018 -369 0 0
179 1 3 31.1018 -366 0 0
180 1 3 31.1018 -363 0 0
181 1 3 31.1018 -360 0 0
182 1 3 31.1018 -357 0 0
183 1 3 31.1018 -354 0 0
184 1 3 31.1018 -351 0 0
185 1 3 31.1018 -348 0 0
186 1 3 31.1018 -345 0 0
187 1 3 31.1018 -342 0 0
188 1 3 31.1018 -339 0 0
189 1 3 31.1018 -336 0 0
190 1 3 31.1018 -333 0 0
191 1 3 31.1018 -330 0 0
192 1 3 31.1018 -327 0 0
193 1 3 31.1018 -324 0 0
194 1 3 31.1018 -321 0 0
195 1 3 31.1018 -318 0 0
196 1 3 31.1018 -315 0 0
197 1 3 31.1018 -312 0 0
198 1 3 31.1018 -309 0 0
199 1 3 31.1018 -306 0 0
200 1 3 31.1018 -303 0 0
201 1 3 31.1018 -300 0 0
202 1 3 31.1018 -297 0 0
203 1 3 31.1018 -294 0 0
204 1 3 31.1018 -291 0 0
205 1 3 31.1018 -288 0 0
206 1 3 31.1018 -285 0 0
207 1 3 31.1018 -282 0 0
208 1 3 31.1018 -279 0 0
209 1 3 31.1018 -276 0 0
210 1 3 31.1018 -273 0 0
211 1 3 31.1018 -270 0 0
212 1 3 31.1018 -267 0 0
213 1 3 31.1018 -264 0 0
214 1 3 31.1018 -261 0 0
215 1 3 31.1018 -258 0 0
216 1 3 31.1018 -255 0 0
217 1 3 31.1018 -252 0 0
218 1 3 31.1018 -249 0 0
219 1 3 31.1018 -246 0 0
220 1 3 31.1018 -243 0 0
221 1 3 31.1018 -240 0 0
222 1 3 31.1018 -237 0 0
223 1 3 31.1018 -234 0 0
224 1 3 31.1018 -231 0 0
225 1 3 31.1018 -228 0 0
226 1 3 31.1018 -225 0 0
227 1 3 31.1018 -222 0 0
228 1 3 31.1018 -219 0 0
229 1 3 31.1018 -216 0 0
230 1 3 31.1018 -213 0 0
231 1 3 31.1018 -210 0 0
232 1 3 31.1018 -207 0 0
233 1 3 31.1018 -204 0 0
234 1 3 31.1018 -201 0 0
235 1 3 31.1018 -198 0 0
236 1 3 31.1018 -195 0 0
237 1 3 31.1018 -192 0 0
238 1 3 31.1018 -189 0 0
239 1 3 31.1018 -186 0 0
240 1 3 31.1018 -183 0 0
241 1 3 31.1018 -180 0 0
242 1 3 31.1018 -177 0 0
243 1 3 31.1018 -174 0 0
244 1 3 31.1018 -171 0 0
245 1 3 31.1018 -168 0 0
246 1 3 31.1018 -165 0 0
247 1 3 31.1018 -162 0 0
248 1 3 31.1018 -159 0 0
249 1 3 31.1018 -156 0 0
250 1 3 31.1018 -153 0 0
251 1 3 31.1018 -150 0 0
252 1 3 31.1018 -147 0 0
253 1 3 31.1018 -144 0 0
254 1 3 31.1018 -141 0 0
255 1 3 31.1018 -138 0 0
256 1 3 31.1018 -135 0 0
257 1 3 31.1018 -132 0 0
258 1 3 31.1018 -129 0 0
259 1 3 31.1018 -126 0 0
260 1 3 31.1018 -123 0 0
261 1 3 31.1018 -120 0 0
262 1 3 31.1018 -117 0 0
263 1 3 31.1018 -114 0 0
264 1 3 31.1018 -111 0 0
265 1 3 31.1018 -108 0 0
266 1 3 31.1018 -105 0 0
267 1 3 31.1018 -102 0 0
268 1 3 31.1018 -99 0 0
269 1 3 31.1018 -96 0 0
270 1 3 31.1018 -93 0 0
271 1 3 31.1018 -90 0 0
272 1 3 31.1018 -87 0 0
273 1 3 31.1018 -84 0 0
274 1 3 31.1018 -81 0 0
275 1 3 31.1018 -78 0 0
276 1 3 31.1018 -75 0 0
277 1 3 31.1018 -72 0 0
278 1 3 31.1018 -69 0 0
279 1 3 31.1018 -66 0 0
280 1 3 31.1018 -63 0 0
281 1 3 31.1018 -60 0 0
282 1 3 31.1018 -57 0 0
283 1 3 31.1018 -54 0 0
284 1 3 31.1018 -51 0 0
285 1 3 31.1018 -48 0 0
286 1 3 31.1018 -45 0 0
287 1 3 31.1018 -42 0 0
288 1 3 31.1018 -39 0 0
289 1 3 31.1018 -36 0 0
290 1 3 31.1018 -33 0 0
291 1 3 31.1018 -30 0 0
292 1 3 31.1018 -27 0 0
293 1 3 31.1018 -24 0 0
294 1 3 31.1018 -21 0 0
295 1 3 31.1018 -18 0 0
296 1 3 31.1018 -15 0 0
297 1 3 31.1018 -12 0 0
298 1 3 31.1018 -9 0 0
299 1 3 31.1018 -6 0 0
300 1 3 31.1018 -3 0 0
651 2 3 31.1018 -450 0 2.99937143178903831
652 2 3 31.1018 -447 0 2.99937143178903831
653 2 3 31.1018 -444 0 2.99937143178903831
654 2 3 31.1018 -441 0 2.99937143178903831
655 2 3 31.1018 -438 0 2.99937143178903831
656 2 3 31.1018 -435 0 2.99937143178903831
657 2 3 31.1018 -432 0 2.99937143178903831
658 2 3 31.1018 -429 0 2.99937143178903831
659 2 3 31.1018 -426 0 2.99937143178903831
660 2 3 31.1018 -423 0 2.99937143178903831
661 2 3 31.1018 -420 0 2.99937143178903831
662 2 3 31.1018 -417 0 2.99937143178903831
663 2 3 31.1018 -414 0 2.99937143178903831
664 2 3 31.1018 -411 0 2.99937143178903831
665 2 3 31.1018 -408 0 2.99937143178903831
666 2 3 31.1018 -405 0 2.99937143178903831
667 2 3 31.1018 -402 0 2.99937143178903831
668 2 3 31.1018 -399 0 2.99937143178903831
669 2 3 31.1018 -396 0 2.99937143178903831
670 2 3 31.1018 -393 0 2.99937143178903831
671 2 3 31.1018 -390 0 2.99937143178903831
672 2 3 31.1018 -387 0 2.99937143178903831
673 2 3 31.1018 -384 0 2.99937143178903831
674 2 3 31.1018 -381 0 2.99937143178903831
675 2 3 31.1018 -378 0 2.99937143178903831
676 2 3 31.1018 -375 0 2.99937143178903831
677 2 3 31.1018 -372 0 2.99937143178903831
678 2 3 31.1018 -369 0 2.99937143178903831
679 2 3 31.1018 -366 0 2.99937143178903831
680 2 3 31.1018 -363 0 2.99937143178903831
681 2 3 31.1018 -360 0 2.99937143178903831
682 2 3 31.1018 -357 0 2.99937143178903831
683 2 3 31.1018 -354 0 2.99937143178903831
684 2 3 31.1018 -351 0 2.99937143178903831
685 2 3 31.1018 -348 0 2.99937143178903831
686 2 3 31.1018 -345 0 2.99937143178903831
687 2 3 31.1018 -342 0 2.99937143178903831
688 2 3 31.1018 -339 0 2.99937143178903831
689 2 3 31.1018 -336 0 2.99937143178903831
690 2 3 31.1018 -333 0 2.99937143178903831
691 2 3 31.1018 -330 0 2.99937143178903831
692 2 3 31.1018 -327 0 2.99937143178903831
693 2 3 31.1018 -324 0 2.99937143178903831
694 2 3 31.1018 -321 0 2.99937143178903831
695 2 3 31.1018 -318 0 2.99937143178903831
696 2 3 31.1018 -315 0 2.99937143178903831
697 2 3 31.1018 -312 0 2.99937143178903831
698 2 3 31.1018 -309 0 2.99937143178903831
699 2 3 31.1018 -306 0 2.99937143178903831
700 2 3 31.1018 -303 0 2.99937143178903831
701 2 3 31.1018 -300 0 2.99937143178903831
702 2 3 31.1018 -297 0 2.99937143178903831
703 2 3 31.1018 -294 0 2.99937143178903831
704 2 3 31.1018 -291 0 2.99937143178903831
705 2 3 31.1018 -288 0 2.99937143178903831
706 2 3 31.1018 -285 0 2.99937143178903831
707 2 3 31.1018 -282 0 2.99937143178903831
708 2 3 31.1018 -279 0 2.99937143178903831
709 2 3 31.1018 -276 0 2.99937143178903831
710 2 3 31.1018 -273 0 2.99937143178903831
711 2 3 31.1018 -270 0 2.99937143178903831
712 2 3 31.1018 -267 0 2.99937143178903831
713 2 3 31.1018 -264 0 2.99937143178903831
714 2 3 31.1018 -261 0 2.99937143178903831
715 2 3 31.1018 -258 0 2.99937143178903831
716 2 3 31.1018 -255 0 2.99937143178903831
717 2 3 31.1018 -252 0 2.99937143178903831
718 2 3 31.1018 -249 0 2.99937143178903831
719 2 3 31.1018 -246 0 2.99937143178903831
720 2 3 31.1018 -243 0 2.99937143178903831
721 2 3 31.1018 -240 0 2.99937143178903831
722 2 3 31.1018 -237 0 2.99937143178903831
723 2 3 31.1018 -234 0 2.99937143178903831
724 2 3 31.1018 -231 0 2.99937143178903831
725 2 3 31.1018 -228 0 2.99937143178903831
726 2 3 31.1018 -225 0 2.99937143178903831
727 2 3 31.1018 -222 0 2.99937143178903831
728 2 3 31.1018 -219 0 2.99937143178903831
729 2 3 31.1018 -216 0 2.99937143178903831
730 2 3 31.1018 -213 0 2.99937143178903831
731 2 3 31.1018 -210 0 2.99937143178903831
732 2 3 31.1018 -207 0 2.99937143178903831
733 2 3 31.1018 -204 0 2.99937143178903831
734 2 3 31.1018 -201 0 2.99937143178903831
735 2 3 31.1018 -198 0 2.99937143178903831
736 2 3 31.1018 -195 0 2.99937143178903831
737 2 3 31.1018 -192 0 2.99937143178903831
738 2 3 31.1018 -189 0 2.99937143178903831
739 2 3 31.1018 -186 0 2.99937143178903831
740 2 3 31.1018 -183 0 2.99937143178903831
741 2 3 31.1018 -180 0 2.99937143178903831
742 2 3 31.1018 -177 0 2.99937143178903831
743 2 3 31.1018 -174 0 2.99937143178903831
744 2 3 31.1018 -171 0 2.99937143178903831
745 2 3 31.1018 -168 0 2.99937143178903831
746 2 3 31.1018 -165 0 2.99937143178903831
747 2 3 31.1018 -162 0 2.99937143178903831
748 2 3 31.1018 -159 0 2.99937143178903831
749 2 3 31.1018 -156 0 2.99937143178903831
750 2 3 31.1018 -153 0 2.99937143178903831
751 2 3 31.1018 -150 0 2.99937143178903831
752 2 3 31.1018 -147 0 2.99937143178903831
753 2 3 31.1018 -144 0 2.99937143178903831
754 2 3 31.1018 -141 0 2.99937143178903831
755 2 3 31.1018 -138 0 2.99937143178903831
756 2 3 31.1018 -135 0 2.99937143178903831
757 2 3 31.1018 -132 0 2.99937143178903831
758 2 3 31.1018 -129 0 2.99937143178903831
759 2 3 31.1018 -126 0 2.99937143178903831
760 2 3 31.1018 -123 0 2.99937143178903831
761 2 3 31.1018 -120 0 2.99937143178903831
762 2 3 31.1018 -117 0 2.99937143178903831
763 2 3 31.1018 -114 0 2.99937143178903831
764 2 3 31.1018 -111 0 2.99937143178903831
765 2 3 31.1018 -108 0 2.99937143178903831
766 2 3 31.1018 -105 0 2.99937143178903831
767 2 3 31.1018 -102 0 2.99937143178903831
768 2 3 31.1018 -99 0 2.99937143178903831
769 2 3 31.1018 -96 0 2.99937143178903831
770 2 3 31.1018 -93 0 2.99937143178903831
771 2 3 31.1018 -90 0 2.99937143178903831
772 2 3 31.1018 -87 0 2.99937143178903831
773 2 3 31.1018 -84 0 2.99937143178903831
774 2 3 31.1018 -81 0 2.99937143178903831
775 2 3 31.1018 -78 0 2.99937143178903831
776 2 3 31.1018 -75 0 2.99937143178903831
777 2 3 31.1018 -72 0 2.99937143178903831
778 2 3 31.1018 -69 0 2.99937143178903831
779 2 3 31.1018 -66 0 2.99937143178903831
780 2 3 31.1018 -63 0 2.99937143178903831
781 2 3 31.1018 -60 0 2.99937143178903831
782 2 3 31.1018 -57 0 2.99937143178903831
783 2 3 31.1018 -54 0 2.99937143178903831
784 2 3 31.1018 -51 0 2.99937143178903831
785 2 3 31.1018 -48 0 2.99937143178903831
786 2 3 31.1018 -45 0 2.99937143178903831
787 2 3 31.1018 -42 0 2.99937143178903831
788 2 3 31.1018 -39 0 2.99937143178903831
789 2 3 31.1018 -36 0 2.99937143178903831
790 2 3 31.1018 -33 0 2.99937143178903831
791 2 3 31.1018 -30 0 2.99937143178903831
792 2 3 31.1018 -27 0 2.99937143178903831
793 2 3 31.1018 -24 0 2.99937143178903831
794 2 3 31.1018 -21 0 2.99937143178903831
795 2 3 31.1018 -18 0 2.99937143178903831
796 2 3 31.1018 -15 0 2.99937143178903831
797 2 3 31.1018 -12 0 2.99937143178903831
798 2 3 31.1018 -9 0 2.99937143178903831
799 2 3 31.1018 -6 0 2.99937143178903831
800 2 3 31.1018 -3 0 2.99937143178903831
801 2 3 31.1018 5.95080799374561318e-20 0 2.99937143178903831
301 1 3 31.1018 0 0 0
302 1 3 31.1018 3 0 0
303 1 3 31.1018 6 0 0
304 1 3 31.1018 9 0 0
305 1 3 31.1018 12 0 0
306 1 3 31.1018 15 0 0
307 1 3 31.1018 18 0 0
308 1 3 31.1018 21 0 0
309 1 3 31.1018 24 0 0
310 1 3 31.1018 27 0 0
311 1 3 31.1018 30 0 0
312 1 3 31.1018 33 0 0
313 1 3 31.1018 36 0 0
314 1 3 31.1018 39 0 0
315 1 3 31.1018 42 0 0
316 1 3 31.1018 45 0 0
317 1 3 31.1018 48 0 0
318 1 3 31.1018 51 0 0
319 1 3 31.1018 54 0 0
320 1 3 31.1018 57 0 0
321 1 3 31.1018 60 0 0
322 1 3 31.1018 63 0 0
323 1 3 31.1018 66 0 0
324 1 3 31.1018 69 0 0
325 1 3 31.1018 72 0 0
326 1 3 31.1018 75 0 0
327 1 3 31.1018 78 0 0
328 1 3 31.1018 81 0 0
329 1 3 31.1018 84 0 0
330 1 3 31.1018 87 0 0
331 1 3 31.1018 90 0 0
332 1 3 31.1018 93 0 0
333 1 3 31.1018 96 0 0
334 1 3 31.1018 99 0 0
335 1 3 31.1018 102 0 0
336 1 3 31.1018 105 0 0
337 1 3 31.1018 108 0 0
338 1 3 31.1018 111 0 0
339 1 3 31.1018 114 0 0
340 1 3 31.1018 117 0 0
341 1 3 31.1018 120 0 0
342 1 3 31.1018 123 0 0
343 1 3 31.1018 126 0 0
344 1 3 31.1018 129 0 0
345 1 3 31.1018 132 0 0
346 1 3 31.1018 135 0 0
347 1 3 31.1018 138 0 0
348 1 3 31.1018 141 0 0
349 1 3 31.1018 144 0 0
350 1 3 31.1018 147 0 0
351 1 3 31.1018 150 0 0
352 1 3 31.1018 153 0 0
353 1 3 31.1018 156 0 0
354 1 3 31.1018 159 0 0
355 1 3 31.1018 162 0 0
356 1 3 31.1018 165 0 0
357 1 3 31.1018 168 0 0
358 1 3 31.1018 171 0 0
359 1 3 31.1018 174 0 0
360 1 3 31.1018 177 0 0
361 1 3 31.1018 180 0 0
362 1 3 31.1018 183 0 0
363 1 3 31.1018 186 0 0
364 1 3 31.1018 189 0 0
365 1 3 31.1018 192 0 0
366 1 3 31.1018 195 0 0
367 1 3 31.1018 198 0 0
368 1 3 31.1018 201 0 0
369 1 3 31.1018 204 0 0
370 1 3 31.1018 207 0 0
371 1 3 31.1018 210 0 0
372 1 3 31.1018 213 0 0
373 1 3 31.1018 216 0 0
374 1 3 31.1018 219 0 0
375 1 3 31.1018 222 0 0
376 1 3 31.1018 225 0 0
377 1 3 31.1018 228 0 0
378 1 3 31.1018 231 0 0
379 1 3 31.1018 234 0 0
380 1 3 31.1018 237 0 0
381 1 3 31.1018 240 0 0
382 1 3 31.1018 243 0 0
383 1 3 31.1018 246 0 0
384 1 3 31.1018 249 0 0
385 1 3 31.1018 252 0 0
386 1 3 31.1018 255 0 0
387 1 3 31.1018 258 0 0
388 1 3 31.1018 261 0 0
389 1 3 31.1018 264 0 0
390 1 3 31.1018 267 0 0
391 1 3 31.1018 270 0 0
392 1 3 31.1018 273 0 0
393 1 3 31.1018 276 0 0
394 1 3 31.1018 279 0 0
395 1 3 31.1018 282 0 0
396 1 3 31.1018 285 0 0
397 1 3 31.1018 288 0 0
398 1 3 31.1018 291 0 0
399 1 3 31.1018 294 0 0
400 1 3 31.1018 297 0 0
401 1 3 31.1018 300 0 0
402 1 3 31.1018 303 0 0
403 1 3 31.1018 306 0 0
404 1 3 31.1018 309 0 0
405 1 3 31.1018 312 0 0
406 1 3 31.1018 315 0 0
407 1 3 31.1018 318 0 0
408 1 3 31.1018 321 0 0
409 1 3 31.1018 324 0 0
410 1 3 31.1018 327 0 0
411 1 3 31.1018 330 0 0
412 1 3 31.1018 333 0 0
413 1 3 31.1018 336 0 0
414 1 3 31.1018 339 0 0
415 1 3 31.1018 342 0 0
416 1 3 31.1018 345 0 0
417 1 3 31.1018 348 0 0
418 1 3 31.1018 351 0 0
419 1 3 31.1018 354 0 0
420 1 3 31.1018 357 0 0
421 1 3 31.1018 360 0 0
422 1 3 31.1018 363 0 0
423 1 3 31.1018 366 0 0
424 1 3 31.1018 369 0 0
425 1 3 31.1018 372 0 0
426 1 3 31.1018 375 0 0
427 1 3 31.1018 378 0 0
428 1 3 31.1018 381 0 0
429 1 3 31.1018 384 0 0
430 1 3 31.1018 387 0 0
431 1 3 31.1018 390 0 0
432 1 3 31.1018 393 0 0
433 1 3 31.1018 396 0 0
434 1 3 31.1018 399 0 0
435 1 3 31.1018 402 0 0
436 1 3 31.1018 405 0 0
437 1 3 31.1018 408 0 0
438 1 3 31.1018 411 0 0
439 1 3 31.1018 414 0 0
440 1 3 31.1018 417 0 0
441 1 3 31.1018 420 0 0
442 1 3 31.1018 423 0 0
443 1 3 31.1018 426 0 0
444 1 3 31.1018 429 0 0
445 1 3 31.1018 432 0 0
446 1 3 31.1018 435 0 0
447 1 3 31.1018 438 0 0
448 1 3 31.1018 441 0 0
449 1 3 31.1018 444 0 0
450 1 3 31.1018 447 0 0
802 2 3 31.1018 3 0 2.99937143178903831
803 2 3 31.1018 6 0 2.99937143178903831
804 2 3 31.1018 9 0 2.99937143178903831
805 2 3 31.1018 12 0 2.99937143178903831
806 2 3 31.1018 15 0 2.99937143178903831
807 2 3 31.1018 18 0 2.99937143178903831
808 2 3 31.1018 21 0 2.99937143178903831
809 2 3 31.1018 24 0 2.99937143178903831
810 2 3 31.1018 27 0 2.99937143178903831
811 2 3 31.1018 30 0 2.99937143178903831
812 2 3 31.1018 33 0 2.99937143178903831
813 2 3 31.1018 36 0 2.99937143178903831
814 2 3 31.1018 39 0 2.99937143178903831
815 2 3 31.1018 42 0 2.99937143178903831
816 2 3 31.1018 45 0 2.99937143178903831
817 2 3 31.1018 48 0 2.99937143178903831
818 2 3 31.1018 51 0 2.99937143178903831
819 2 3 31.1018 54 0 2.99937143178903831
820 2 3 31.1018 57 0 2.99937143178903831
821 2 3 31.1018 60 0 2.99937143178903831
822 2 3 31.1018 63 0 2.99937143178903831
823 2 3 31.1018 66 0 2.99937143178903831
824 2 3 31.1018 69 0 2.99937143178903831
825 2 3 31.1018 72 0 2.99937143178903831
826 2 3 31.1018 75 0 2.99937143178903831
827 2 3 31.1018 78 0 2.99937143178903831
828 2 3 31.1018 81 0 2.99937143178903831
829 2 3 31.1018 84 0 2.99937143178903831
830 2 3 31.1018 87 0 2.99937143178903831
831 2 3 31.1018 90 0 2.99937143178903831
832 2 3 31.1018 93 0 2.99937143178903831
833 2 3 31.1018 96 0 2.99937143178903831
834 2 3 31.1018 99 0 2.99937143178903831
835 2 3 31.1018 102 0 2.99937143178903831
836 2 3 31.1018 105 0 2.99937143178903831
837 2 3 31.1018 108 0 2.99937143178903831
838 2 3 31.1018 111 0 2.99937143178903831
839 2 3 31.1018 114 0 2.99937143178903831
840 2 3 31.1018 117 0 2.99937143178903831
841 2 3 31.1018 120 0 2.99937143178903831
842 2 3 31.1018 123 0 2.99937143178903831
843 2 3 31.1018 126 0 2.99937143178903831
844 2 3 31.1018 129 0 2.99937143178903831
845 2 3 31.1018 132 0 2.99937143178903831
846 2 3 31.1018 135 0 2.99937143178903831
847 2 3 31.1018 138 0 2.99937143178903831
848 2 3 31.1018 141 0 2.99937143178903831
849 2 3 31.1018 144 0 2.99937143178903831
850 2 3 31.1018 147 0 2.99937143178903831
851 2 3 31.1018 150 0 2.99937143178903831
852 2 3 31.1018 153 0 2.99937143178903831
853 2 3 31.1018 156 0 2.99937143178903831
854 2 3 31.1018 159 0 2.99937143178903831
855 2 3 31.1018 162 0 2.99937143178903831
856 2 3 31.1018 165 0 2.99937143178903831
857 2 3 31.1018 168 0 2.99937143178903831
858 2 3 31.1018 171 0 2.99937143178903831
859 2 3 31.1018 174 0 2.99937143178903831
860 2 3 31.1018 177 0 2.99937143178903831
861 2 3 31.1018 180 0 2.99937143178903831
862 2 3 31.1018 183 0 2.99937143178903831
863 2 3 31.1018 186 0 2.99937143178903831
864 2 3 31.1018 189 0 2.99937143178903831
865 2 3 31.1018 192 0 2.99937143178903831
866 2 3 31.1018 195 0 2.99937143178903831
867 2 3 31.1018 198 0 2.99937143178903831
868 2 3 31.1018 201 0 2.99937143178903831
869 2 3 31.1018 204 0 2.99937143178903831
870 2 3 31.1018 207 0 2.99937143178903831
871 2 3 31.1018 210 0 2.99937143178903831
872 2 3 31.1018 213 0 2.99937143178903831
873 2 3 31.1018 216 0 2.99937143178903831
874 2 3 31.1018 219 0 2.99937143178903831
875 2 3 31.1018 222 0 2.99937143178903831
876 2 3 31.1018 225 0 2.99937143178903831
877 2 3 31.1018 228 0 2.99937143178903831
878 2 3 31.1018 231 0 2.99937143178903831
879 2 3 31.1018 234 0 2.99937143178903831
880 2 3 31.1018 237 0 2.99937143178903831
881 2 3 31.1018 240 0 2.99937143178903831
882 2 3 31.1018 243 0 2.99937143178903831
883 2 3 31.1018 246 0 2.99937143178903831
884 2 3 31.1018 249 0 2.99937143178903831
885 2 3 31.1018 252 0 2.99937143178903831
886 2 3 31.1018 255 0 2.99937143178903831
887 2 3 31.1018 258 0 2.99937143178903831
888 2 3 31.1018 261 0 2.99937143178903831
889 2 3 31.1018 264 0 2.99937143178903831
890 2 3 31.1018 267 0 2.99937143178903831
891 2 3 31.1018 270 0 2.99937143178903831
892 2 3 31.1018 273 0 2.99937143178903831
893 2 3 31.1018 276 0 2.99937143178903831
894 2 3 31.1018 279 0 2.99937143178903831
895 2 3 31.1018 282 0 2.99937143178903831
896 2 3 31.1018 285 0 2.99937143178903831
897 2 3 31.1018 288 0 2.99937143178903831
898 2 3 31.1018 291 0 2.99937143178903831
899 2 3 31.1018 294 0 2.99937143178903831
900 2 3 31.1018 297 0 2.99937143178903831
901 2 3 31.1018 300 0 2.99937143178903831
902 2 3 31.1018 303 0 2.99937143178903831
903 2 3 31.1018 306 0 2.99937143178903831
904 2 3 31.1018 309 0 2.99937143178903831
905 2 3 31.1018 312 0 2.99937143178903831
906 2 3 31.1018 315 0 2.99937143178903831
907 2 3 31.1018 318 0 2.99937143178903831
908 2 3 31.1018 321 0 2.99937143178903831
909 2 3 31.1018 324 0 2.99937143178903831
910 2 3 31.1018 327 0 2.99937143178903831
911 2 3 31.1018 330 0 2.99937143178903831
912 2 3 31.1018 333 0 2.99937143178903831
913 2 3 31.1018 336 0 2.99937143178903831
914 2 3 31.1018 339 0 2.99937143178903831
915 2 3 31.1018 342 0 2.99937143178903831
916 2 3 31.1018 345 0 2.99937143178903831
917 2 3 31.1018 348 0 2.99937143178903831
918 2 3 31.1018 351 0 2.99937143178903831
919 2 3 31.1018 354 0 2.99937143178903831
920 2 3 31.1018 357 0 2.99937143178903831
921 2 3 31.1018 360 0 2.99937143178903831
922 2 3 31.1018 363 0 2.99937143178903831
923 2 3 31.1018 366 0 2.99937143178903831
924 2 3 31.1018 369 0 2.99937143178903831
925 2 3 31.1018 372 0 2.99937143178903831
926 2 3 31.1018 375 0 2.99937143178903831
927 2 3 31.1018 378 0 2.99937143178903831
928 2 3 31.1018 381 0 2.99937143178903831
929 2 3 31.1018 384 0 2.99937143178903831
930 2 3 31.1018 387 0 2.99937143178903831
931 2 3 31.1018 390 0 2.99937143178903831
932 2 3 31.1018 393 0 2.99937143178903831
933 2 3 31.1018 396 0 2.99937143178903831
934 2 3 31.1018 399 0 2.99937143178903831
935 2 3 31.1018 402 0 2.99937143178903831
936 2 3 31.1018 405 0 2.99937143178903831
937 2 3 31.1018 408 0 2.99937143178903831
938 2 3 31.1018 411 0 2.99937143178903831
939 2 3 31.1018 414 0 2.99937143178903831
940 2 3 31.1018 417 0 2.99937143178903831
941 2 3 31.1018 420 0 2.99937143178903831
942 2 3 31.1018 423 0 2.99937143178903831
943 2 3 31.1018 426 0 2.99937143178903831
944 2 3 31.1018 429 0 2.99937143178903831
945 2 3 31.1018 432 0 2.99937143178903831
946 2 3 31.1018 435 0 2.99937143178903831
947 2 3 31.1018 438 0 2.99937143178903831
948 2 3 31.1018 441 0 2.99937143178903831
949 2 3 31.1018 444 0 2.99937143178903831
950 2 3 31.1018 447 0 2.99937143178903831
451 1 3 31.1018 450 0 0
452 1 3 31.1018 453 0 0
453 1 3 31.1018 456 0 0
454 1 3 31.1018 459 0 0
455 1 3 31.1018 462 0 0
456 1 3 31.1018 465 0 0
457 1 3 31.1018 468 0 0
458 1 3 31.1018 471 0 0
459 1 3 31.1018 474 0 0
460 1 3 31.1018 477 0 0
461 1 3 31.1018 480 0 0
462 1 3 31.1018 483 0 0
463 1 3 31.1018 486 0 0
464 1 3 31.1018 489 0 0
465 1 3 31.1018 492 0 0
466 1 3 31.1018 495 0 0
467 1 3 31.1018 498 0 0
468 1 3 31.1018 501 0 0
469 1 3 31.1018 504 0 0
470 1 3 31.1018 507 0 0
471 1 3 31.1018 510 0 0
472 1 3 31.1018 513 0 0
473 1 3 31.1018 516 0 0
474 1 3 31.1018 519 0 0
475 1 3 31.1018 522 0 0
476 1 3 31.1018 525 0 0
477 1 3 31.1018 528 0 0
478 1 3 31.1018 531 0 0
479 1 3 31.1018 534 0 0
480 1 3 31.1018 537 0 0
481 1 3 31.1018 540 0 0
482 1 3 31.1018 543 0 0
483 1 3 31.1018 546 0 0
484 1 3 31.1018 549 0 0
485 1 3 31.1018 552 0 0
486 1 3 31.1018 555 0 0
487 1 3 31.1018 558 0 0
488 1 3 31.1018 561 0 0
489 1 3 31.1018 564 0 0
490 1 3 31.1018 567 0 0
491 1 3 31.1018 570 0 0
492 1 3 31.1018 573 0 0
493 1 3 31.1018 576 0 0
494 1 3 31.1018 579 0 0
495 1 3 31.1018 582 0 0
496 1 3 31.1018 585 0 0
497 1 3 31.1018 588 0 0
498 1 3 31.1018 591 0 0
499 1 3 31.1018 594 0 0
500 1 3 31.1018 597 0 0
501 1 3 31.1018 600 0 0
502 1 3 31.1018 603 0 0
503 1 3 31.1018 606 0 0
504 1 3 31.1018 609 0 0
505 1 3 31.1018 612 0 0
506 1 3 31.1018 615 0 0
507 1 3 31.1018 618 0 0
508 1 3 31.1018 621 0 0
509 1 3 31.1018 624 0 0
510 1 3 31.1018 627 0 0
511 1 3 31.1018 630 0 0
512 1 3 31.1018 633 0 0
513 1 3 31.1018 636 0 0
514 1 3 31.1018 639 0 0
515 1 3 31.1018 642 0 0
516 1 3 31.1018 645 0 0
517 1 3 31.1018 648 0 0
518 1 3 31.1018 651 0 0
519 1 3 31.1018 654 0 0
520 1 3 31.1018 657 0 0
521 1 3 31.1018 660 0 0
522 1 3 31.1018 663 0 0
523 1 3 31.1018 666 0 0
524 1 3 31.1018 669 0 0
525 1 3 31.1018 672 0 0
526 1 3 31.1018 675 0 0
527 1 3 31.1018 678 0 0
528 1 3 31.1018 681 0 0
529 1 3 31.1018 684 0 0
530 1 3 31.1018 687 0 0
531 1 3 31.1018 690 0 0
532 1 3 31.1018 693 0 0
533 1 3 31.1018 696 0 0
534 1 3 31.1018 699 0 0
535 1 3 31.1018 702 0 0
536 1 3 31.1018 705 0 0
537 1 3 31.1018 708 0 0
538 1 3 31.1018 711 0 0
539 1 3 31.1018 714 0 0
540 1 3 31.1018 717 0 0
541 1 3 31.1018 720 0 0
542 1 3 31.1018 723 0 0
543 1 3 31.1018 726 0 0
544 1 3 31.1018 729 0 0
545 1 3 31.1018 732 0 0
546 1 3 31.1018 735 0 0
547 1 3 31.1018 738 0 0
548 1 3 31.1018 741 0 0
549 1 3 31.1018 744 0 0
550 1 3 31.1018 747 0 0
551 1 3 31.1018 750 0 0
552 1 3 31.1018 753 0 0
553 1 3 31.1018 756 0 0
554 1 3 31.1018 759 0 0
555 1 3 31.1018 762 0 0
556 1 3 31.1018 765 0 0
557 1 3 31.1018 768 0 0
558 1 3 31.1018 771 0 0
559 1 3 31.1018 774 0 0
560 1 3 31.1018 777 0 0
561 1 3 31.1018 780 0 0
562 1 3 31.1018 783 0 0
563 1 3 31.1018 786 0 0
564 1 3 31.1018 789 0 0
565 1 3 31.1018 792 0 0
566 1 3 31.1018 795 0 0
567 1 3 31.1018 798 0 0
568 1 3 31.1018 801 0 0
569 1 3 31.1018 804 0 0
570 1 3 31.1018 807 0 0
571 1 3 31.1018 810 0 0
572 1 3 31.1018 813 0 0
573 1 3 31.1018 816 0 0
574 1 3 31.1018 819 0 0
575 1 3 31.1018 822 0 0
576 1 3 31.1018 825 0 0
577 1 3 31.1018 828 0 0
578 1 3 31.1018 831 0 0
579 1 3 31.1018 834 0 0
580 1 3 31.1018 837 0 0
581 1 3 31.1018 840 0 0
582 1 3 31.1018 843 0 0
583 1 3 31.1018 846 0 0
584 1 3 31.1018 849 0 0
585 1 3 31.1018 852 0 0
586 1 3 31.1018 855 0 0
587 1 3 31.1018 858 0 0
588 1 3 31.1018 861 0 0
589 1 3 31.1018 864 0 0
590 1 3 31.1018 867 0 0
591 1 3 31.1018 870 0 0
592 1 3 31.1018 873 0 0
593 1 3 31.1018 876 0 0
594 1 3 31.1018 879 0 0
595 1 3 31.1018 882 0 0
596 1 3 31.1018 885 0 0
597 1 3 31.1018 888 0 0
598 1 3 31.1018 891 0 0
599 1 3 31.1018 894 0 0
600 1 3 31.1018 897 0 0
951 2 3 31.1018 450 0 2.99937143178903831
952 2 3 31.1018 453 0 2.99937143178903831
953 2 3 31.1018 456 0 2.99937143178903831
954 2 3 31.1018 459 0 2.99937143178903831
955 2 3 31.1018 462 0 2.99937143178903831
956 2 3 31.1018 465 0 2.99937143178903831
957 2 3 31.1018 468 0 2.99937143178903831
958 2 3 31.1018 471 0 2.99937143178903831