ITEM: TIMESTEP
1100000
ITEM: NUMBER OF ATOMS
251
ITEM: BOX BOUNDS pp pp pp
-2.2500000000000000e+02 2.2500000000000000e+02
-1.0000000000000000e+02 1.0000000000000000e+02
-1.0000000000000000e+02 1.0000000000000000e+02
ITEM: ATOMS id type diameter mass xu yu zu
1 1 3 31.1018 -225 0 0
2 1 3 31.1018 -222 0 0
3 1 3 31.1018 -219 0 0
4 1 3 31.1018 -216 0 0
5 1 3 31.1018 -213 0 0
6 1 3 31.1018 -210 0 0
7 1 3 31.1018 -207 0 0
8 1 3 31.1018 -204 0 0
9 1 3 31.1018 -201 0 0
10 1 3 31.1018 -198 0 0
11 1 3 31.1018 -195 0 0
12 1 3 31.1018 -192 0 0
13 1 3 31.1018 -189 0 0
14 1 3 31.1018 -186 0 0
15 1 3 31.1018 -183 0 0
16 1 3 31.1018 -180 0 0
17 1 3 31.1018 -177 0 0
18 1 3 31.1018 -174 0 0
19 1 3 31.1018 -171 0 0
20 1 3 31.1018 -168 0 0
21 1 3 31.1018 -165 0 0
22 1 3 31.1018 -162 0 0
23 1 3 31.1018 -159 0 0
24 1 3 31.1018 -156 0 0
25 1 3 31.1018 -153 0 0
26 1 3 31.1018 -150 0 0
27 1 3 31.1018 -147 0 0
28 1 3 31.1018 -144 0 0
29 1 3 31.1018 -141 0 0
30 1 3 31.1018 -138 0 0
31 1 3 31.1018 -135 0 0
32 1 3 31.1018 -132 0 0
33 1 3 31.1018 -129 0 0
34 1 3 31.1018 -126 0 0
35 1 3 31.1018 -123 0 0
36 1 3 31.1018 -120 0 0
37 1 3 31.1018 -117 0 0
38 1 3 31.1018 -114 0 0
151 2 3 31.1018 -150 0 2.99936786482454298
152 2 3 31.1018 -147 0 2.99936786482454298
153 2 3 31.1018 -144 0 2.99936786482454298
154 2 3 31.1018 -141 0 2.99936786482454298
155 2 3 31.1018 -138 0 2.99936786482454298
156 2 3 31.1018 -135 0 2.99936786482454298
157 2 3 31.1018 -132 0 2.99936786482454298
158 2 3 31.1018 -129 0 2.99936786482454298
159 2 3 31.1018 -126 0 2.99936786482454298
160 2 3 31.1018 -123 0 2.99936786482454298
161 2 3 31.1018 -120 0 2.99936786482454298
162 2 3 31.1018 -117 0 2.99936786482454298
163 2 3 31.1018 -114 0 2.99936786482454298
39 1 3 31.1018 -111 0 0
40 1 3 31.1018 -108 0 0
41 1 3 31.1018 -105 0 0
42 1 3 31.1018 -102 0 0
43 1 3 31.1018 -99 0 0
44 1 3 31.1018 -96 0 0
45 1 3 31.1018 -93 0 0
46 1 3 31.1018 -90 0 0
47 1 3 31.1018 -87 0 0
48 1 3 31.1018 -84 0 0
49 1 3 31.1018 -81 0 0
50 1 3 31.1018 -78 0 0
51 1 3 31.1018 -75 0 0
52 1 3 31.1018 -72 0 0
53 1 3 31.1018 -69 0 0
54 1 3 31.1018 -66 0 0
55 1 3 31.1018 -63 0 0
56 1 3 31.1018 -60 0 0
57 1 3 31.1018 -57 0 0
58 1 3 31.1018 -54 0 0
59 1 3 31.1018 -51 0 0
60 1 3 31.1018 -48 0 0
61 1 3 31.1018 -45 0 0
62 1 3 31.1018 -42 0 0
63 1 3 31.1018 -39 0 0
64 1 3 31.1018 -36 0 0
65 1 3 31.1018 -33 0 0
66 1 3 31.1018 -30 0 0
67 1 3 31.1018 -27 0 0
68 1 3 31.1018 -24 0 0
69 1 3 31.1018 -21 0 0
70 1 3 31.1018 -18 0 0
71 1 3 31.1018 -15 0 0
72 1 3 31.1018 -12 0 0
73 1 3 31.1018 -9 0 0
74 1 3 31.1018 -6 0 0
75 1 3 31.1018 -3 0 0
164 2 3 31.1018 -111 0 2.99936786482454298
165 2 3 31.1018 -108 0 2.99936786482454298
166 2 3 31.1018 -105 0 2.99936786482454298
167 2 3 31.1018 -102 0 2.99936786482454298
168 2 3 31.1018 -99 0 2.99936786482454298
169 2 3 31.1018 -96 0 2.99936786482454298
170 2 3 31.1018 -93 0 2.99936786482454298
171 2 3 31.1018 -90 0 2.99936786482454298
172 2 3 31.1018 -87 0 2.99936786482454298
173 2 3 31.1018 -84 0 2.99936786482454298
174 2 3 31.1018 -81 0 2.99936786482454298
175 2 3 31.1018 -78 0 2.99936786482454298
176 2 3 31.1018 -75 0 2.99936786482454298
177 2 3 31.1018 -72 0 2.99936786482454298
178 2 3 31.1018 -69 0 2.99936786482454298
179 2 3 31.1018 -66 0 2.99936786482454298
180 2 3 31.1018 -63 0 2.99936786482454298
181 2 3 31.1018 -60 0 2.99936786482454298
182 2 3 31.1018 -57 0 2.99936786482454298
183 2 3 31.1018 -54 0 2.99936786482454298
184 2 3 31.1018 -51 0 2.99936786482454298
185 2 3 31.1018 -48 0 2.99936786482454298
186 2 3 31.1018 -45 0 2.99936786482454298
187 2 3 31.1018 -42 0 2.99936786482454298
188 2 3 31.1018 -39 0 2.99936786482454298
189 2 3 31.1018 -36 0 2.99936786482454298
190 2 3 31.1018 -33 0 2.99936786482454298
191 2 3 31.1018 -30 0 2.99936786482454298
192 2 3 31.1018 -27 0 2.99936786482454298
193 2 3 31.1018 -24 0 2.99936786482454298
194 2 3 31.1018 -21 0 2.99936786482454298
195 2 3 31.1018 -18 0 2.99936786482454298
196 2 3 31.1018 -15 0 2.99936786482454298
197 2 3 31.1018 -12 0 2.99936786482454298
198 2 3 31.1018 -9 0 2.99936786482454298
199 2 3 31.1018 -6 0 2.99936786482454298
200 2 3 31.1018 -3 0 2.99936786482454298
201 2 3 31.1018 -1.15743836178820768e-18 0 2.99936786482454298
76 1 3 31.1018 0 0 0
77 1 3 31.1018 3 0 0
78 1 3 31.1018 6 0 0
79 1 3 31.1018 9 0 0
80 1 3 31.1018 12 0 0
81 1 3 31.1018 15 0 0
82 1 3 31.1018 18 0 0
83 1 3 31.1018 21 0 0
84 1 3 31.1018 24 0 0
85 1 3 31.1018 27 0 0
86 1 3 31.1018 30 0 0
87 1 3 31.1018 33 0 0
88 1 3 31.1018 36 0 0
89 1 3 31.1018 39 0 0
90 1 3 31.1018 42 0 0
91 1 3 31.1018 45 0 0
92 1 3 31.1018 48 0 0
93 1 3 31.1018 51 0 0
94 1 3 31.1018 54 0 0
95 1 3 31.1018 57 0 0
96 1 3 31.1018 60 0 0
97 1 3 31.1018 63 0 0
98 1 3 31.1018 66 0 0
99 1 3 31.1018 69 0 0
100 1 3 31.1018 72 0 0
101 1 3 31.1018 75 0 0
102 1 3 31.1018 78 0 0
103 1 3 31.1018 81 0 0
104 1 3 31.1018 84 0 0
105 1 3 31.1018 87 0 0
106 1 3 31.1018 90 0 0
107 1 3 31.1018 93 0 0
108 1 3 31.1018 96 0 0
109 1 3 31.1018 99 0 0
110 1 3 31.1018 102 0 0
111 1 3 31.1018 105 0 0
112 1 3 31.1018 108 0 0
113 1 3 31.1018 111 0 0
202 2 3 31.1018 3 0 2.99936786482454298
203 2 3 31.1018 6 0 2.99936786482454298
204 2 3 31.1018 9 0 2.99936786482454298
205 2 3 31.1018 12 0 2.99936786482454298
206 2 3 31.1018 15 0 2.99936786482454298
207 2 3 31.1018 18 0 2.99936786482454298
208 2 3 31.1018 21 0 2.99936786482454298
209 2 3 31.1018 24 0 2.99936786482454298
210 2 3 31.1018 27 0 2.99936786482454298
211 2 3 31.1018 30 0 2.99936786482454298
212 2 3 31.1018 33 0 2.99936786482454298
213 2 3 31.1018 36 0 2.99936786482454298
214 2 3 31.1018 39 0 2.99936786482454298
215 2 3 31.1018 42 0 2.99936786482454298
216 2 3 31.1018 45 0 2.99936786482454298
217 2 3 31.1018 48 0 2.99936786482454298
218 2 3 31.1018 51 0 2.99936786482454298
219 2 3 31.1018 54 0 2.99936786482454298
220 2 3 31.1018 57 0 2.99936786482454298
221 2 3 31.1018 60 0 2.99936786482454298
222 2 3 31.1018 63 0 2.99936786482454298
223 2 3 31.1018 66 0 2.99936786482454298
224 2 3 31.1018 69 0 2.99936786482454298
225 2 3 31.1018 72 0 2.99936786482454298
226 2 3 31.1018 75 0 2.99936786482454298
227 2 3 31.1018 78 0 2.99936786482454298
228 2 3 31.1018 81 0 2.99936786482454298
229 2 3 31.1018 84 0 2.99936786482454298
230 2 3 31.1018 87 0 2.99936786482454298
231 2 3 31.1018 90 0 2.99936786482454298
232 2 3 31.1018 93 0 2.99936786482454298
233 2 3 31.1018 96 0 2.99936786482454298
234 2 3 31.1018 99 0 2.99936786482454298
235 2 3 31.1018 102 0 2.99936786482454298
236 2 3 31.1018 105 0 2.99936786482454298
237 2 3 31.1018 108 0 2.99936786482454298
238 2 3 31.1018 111 0 2.99936786482454298
114 1 3 31.1018 114 0 0
115 1 3 31.1018 117 0 0
116 1 3 31.1018 120 0 0
117 1 3 31.1018 123 0 0
118 1 3 31.1018 126 0 0
119 1 3 31.1018 129 0 0
120 1 3 31.1018 132 0 0
121 1 3 31.1018 135 0 0
122 1 3 31.1018 138 0 0
123 1 3 31.1018 141 0 0
124 1 3 31.1018 144 0 0
125 1 3 31.1018 147 0 0
126 1 3 31.1018 150 0 0
127 1 3 31.1018 153 0 0
128 1 3 31.1018 156 0 0
129 1 3 31.1018 159 0 0
130 1 3 31.1018 162 0 0
131 1 3 31.1018 165 0 0
132 1 3 31.1018 168 0 0
133 1 3 31.1018 171 0 0
134 1 3 31.1018 174 0 0
135 1 3 31.1018 177 0 0
136 1 3 31.1018 180 0 0
137 1 3 31.1018 183 0 0
138 1 3 31.1018 186 0 0
139 1 3 31.1018 189 0 0
140 1 3 31.1018 192 0 0
141 1 3 31.1018 195 0 0
142 1 3 31.1018 198 0 0
143 1 3 31.1018 201 0 0
144 1 3 31.1018 204 0 0
145 1 3 31.1018 207 0 0
146 1 3 31.1018 210 0 0
147 1 3 31.1018 213 0 0
148 1 3 31.1018 216 0 0
149 1 3 31.1018 219 0 0
150 1 3 31.1018 222 0 0
239 2 3 31.1018 114 0 2.99936786482454298
240 2 3 31.1018 117 0 2.99936786482454298
241 2 3 31.1018 120 0 2.99936786482454298
242 2 3 31.1018 123 0 2.99936786482454298
243 2 3 31.1018 126 0 2.99936786482454298
244 2 3 31.1018 129 0 2.99936786482454298
245 2 3 31.1018 132 0 2.99936786482454298
246 2 3 31.1018 135 0 2.99936786482454298
247 2 3 31.1018 138 0 2.99936786482454298
248 2 3 31.1018 141 0 2.99936786482454298
249 2 3 31.1018 144 0 2.99936786482454298
250 2 3 31.1018 147 0 2.99936786482454298
251 2 3 31.1018 150 0 2.99936786482454298
