ITEM: TIMESTEP
2900000
ITEM: NUMBER OF ATOMS
4001
ITEM: BOX BOUNDS pp pp pp
-3.6000000000000000e+03 3.6000000000000000e+03
-1.0000000000000000e+02 1.0000000000000000e+02
-1.0000000000000000e+02 1.0000000000000000e+02
ITEM: ATOMS id type diameter mass xu yu zu
1 1 3 31.1018 -3600 0 0
2 1 3 31.1018 -3597 0 0
3 1 3 31.1018 -3594 0 0
4 1 3 31.1018 -3591 0 0
5 1 3 31.1018 -3588 0 0
6 1 3 31.1018 -3585 0 0
7 1 3 31.1018 -3582 0 0
8 1 3 31.1018 -3579 0 0
9 1 3 31.1018 -3576 0 0
10 1 3 31.1018 -3573 0 0
11 1 3 31.1018 -3570 0 0
12 1 3 31.1018 -3567 0 0
13 1 3 31.1018 -3564 0 0
14 1 3 31.1018 -3561 0 0
15 1 3 31.1018 -3558 0 0
16 1 3 31.1018 -3555 0 0
17 1 3 31.1018 -3552 0 0
18 1 3 31.1018 -3549 0 0
19 1 3 31.1018 -3546 0 0
20 1 3 31.1018 -3543 0 0
21 1 3 31.1018 -3540 0 0
22 1 3 31.1018 -3537 0 0
23 1 3 31.1018 -3534 0 0
24 1 3 31.1018 -3531 0 0
25 1 3 31.1018 -3528 0 0
26 1 3 31.1018 -3525 0 0
27 1 3 31.1018 -3522 0 0
28 1 3 31.1018 -3519 0 0
29 1 3 31.1018 -3516 0 0
30 1 3 31.1018 -3513 0 0
31 1 3 31.1018 -3510 0 0
32 1 3 31.1018 -3507 0 0
33 1 3 31.1018 -3504 0 0
34 1 3 31.1018 -3501 0 0
35 1 3 31.1018 -3498 0 0
36 1 3 31.1018 -3495 0 0
37 1 3 31.1018 -3492 0 0
38 1 3 31.1018 -3489 0 0
39 1 3 31.1018 -3486 0 0
40 1 3 31.1018 -3483 0 0
41 1 3 31.1018 -3480 0 0
42 1 3 31.1018 -3477 0 0
43 1 3 31.1018 -3474 0 0
44 1 3 31.1018 -3471 0 0
45 1 3 31.1018 -3468 0 0
46 1 3 31.1018 -3465 0 0
47 1 3 31.1018 -3462 0 0
48 1 3 31.1018 -3459 0 0
49 1 3 31.1018 -3456 0 0
50 1 3 31.1018 -3453 0 0
51 1 3 31.1018 -3450 0 0
52 1 3 31.1018 -3447 0 0
53 1 3 31.1018 -3444 0 0
54 1 3 31.1018 -3441 0 0
55 1 3 31.1018 -3438 0 0
56 1 3 31.1018 -3435 0 0
57 1 3 31.1018 -3432 0 0
58 1 3 31.1018 -3429 0 0
59 1 3 31.1018 -3426 0 0
60 1 3 31.1018 -3423 0 0
61 1 3 31.1018 -3420 0 0
62 1 3 31.1018 -3417 0 0
63 1 3 31.1018 -3414 0 0
64 1 3 31.1018 -3411 0 0
65 1 3 31.1018 -3408 0 0
66 1 3 31.1018 -3405 0 0
67 1 3 31.1018 -3402 0 0
68 1 3 31.1018 -3399 0 0
69 1 3 31.1018 -3396 0 0
70 1 3 31.1018 -3393 0 0
71 1 3 31.1018 -3390 0 0
72 1 3 31.1018 -3387 0 0
73 1 3 31.1018 -3384 0 0
74 1 3 31.1018 -3381 0 0
75 1 3 31.1018 -3378 0 0
76 1 3 31.1018 -3375 0 0
77 1 3 31.1018 -3372 0 0
78 1 3 31.1018 -3369 0 0
79 1 3 31.1018 -3366 0 0
80 1 3 31.1018 -3363 0 0
81 1 3 31.1018 -3360 0 0
82 1 3 31.1018 -3357 0 0
83 1 3 31.1018 -3354 0 0
84 1 3 31.1018 -3351 0 0
85 1 3 31.1018 -3348 0 0
86 1 3 31.1018 -3345 0 0
87 1 3 31.1018 -3342 0 0
88 1 3 31.1018 -3339 0 0
89 1 3 31.1018 -3336 0 0
90 1 3 31.1018 -3333 0 0
91 1 3 31.1018 -3330 0 0
92 1 3 31.1018 -3327 0 0
93 1 3 31.1018 -3324 0 0
94 1 3 31.1018 -3321 0 0
95 1 3 31.1018 -3318 0 0
96 1 3 31.1018 -3315 0 0
97 1 3 31.1018 -3312 0 0
98 1 3 31.1018 -3309 0 0
99 1 3 31.1018 -3306 0 0
100 1 3 31.1018 -3303 0 0
101 1 3 31.1018 -3300 0 0
102 1 3 31.1018 -3297 0 0
103 1 3 31.1018 -3294 0 0
104 1 3 31.1018 -3291 0 0
105 1 3 31.1018 -3288 0 0
106 1 3 31.1018 -3285 0 0
107 1 3 31.1018 -3282 0 0
108 1 3 31.1018 -3279 0 0
109 1 3 31.1018 -3276 0 0
110 1 3 31.1018 -3273 0 0
111 1 3 31.1018 -3270 0 0
112 1 3 31.1018 -3267 0 0
113 1 3 31.1018 -3264 0 0
114 1 3 31.1018 -3261 0 0
115 1 3 31.1018 -3258 0 0
116 1 3 31.1018 -3255 0 0
117 1 3 31.1018 -3252 0 0
118 1 3 31.1018 -3249 0 0
119 1 3 31.1018 -3246 0 0
120 1 3 31.1018 -3243 0 0
121 1 3 31.1018 -3240 0 0
122 1 3 31.1018 -3237 0 0
123 1 3 31.1018 -3234 0 0
124 1 3 31.1018 -3231 0 0
125 1 3 31.1018 -3228 0 0
126 1 3 31.1018 -3225 0 0
127 1 3 31.1018 -3222 0 0
128 1 3 31.1018 -3219 0 0
129 1 3 31.1018 -3216 0 0
130 1 3 31.1018 -3213 0 0
131 1 3 31.1018 -3210 0 0
132 1 3 31.1018 -3207 0 0
133 1 3 31.1018 -3204 0 0
134 1 3 31.1018 -3201 0 0
135 1 3 31.1018 -3198 0 0
136 1 3 31.1018 -3195 0 0
137 1 3 31.1018 -3192 0 0
138 1 3 31.1018 -3189 0 0
139 1 3 31.1018 -3186 0 0
140 1 3 31.1018 -3183 0 0
141 1 3 31.1018 -3180 0 0
142 1 3 31.1018 -3177 0 0
143 1 3 31.1018 -3174 0 0
144 1 3 31.1018 -3171 0 0
145 1 3 31.1018 -3168 0 0
146 1 3 31.1018 -3165 0 0
147 1 3 31.1018 -3162 0 0
148 1 3 31.1018 -3159 0 0
149 1 3 31.1018 -3156 0 0
150 1 3 31.1018 -3153 0 0
151 1 3 31.1018 -3150 0 0
152 1 3 31.1018 -3147 0 0
153 1 3 31.1018 -3144 0 0
154 1 3 31.1018 -3141 0 0
155 1 3 31.1018 -3138 0 0
156 1 3 31.1018 -3135 0 0
157 1 3 31.1018 -3132 0 0
158 1 3 31.1018 -3129 0 0
159 1 3 31.1018 -3126 0 0
160 1 3 31.1018 -3123 0 0
161 1 3 31.1018 -3120 0 0
162 1 3 31.1018 -3117 0 0
163 1 3 31.1018 -3114 0 0
164 1 3 31.1018 -3111 0 0
165 1 3 31.1018 -3108 0 0
166 1 3 31.1018 -3105 0 0
167 1 3 31.1018 -3102 0 0
168 1 3 31.1018 -3099 0 0
169 1 3 31.1018 -3096 0 0
170 1 3 31.1018 -3093 0 0
171 1 3 31.1018 -3090 0 0
172 1 3 31.1018 -3087 0 0
173 1 3 31.1018 -3084 0 0
174 1 3 31.1018 -3081 0 0
175 1 3 31.1018 -3078 0 0
176 1 3 31.1018 -3075 0 0
177 1 3 31.1018 -3072 0 0
178 1 3 31.1018 -3069 0 0
179 1 3 31.1018 -3066 0 0
180 1 3 31.1018 -3063 0 0
181 1 3 31.1018 -3060 0 0
182 1 3 31.1018 -3057 0 0
183 1 3 31.1018 -3054 0 0
184 1 3 31.1018 -3051 0 0
185 1 3 31.1018 -3048 0 0
186 1 3 31.1018 -3045 0 0
187 1 3 31.1018 -3042 0 0
188 1 3 31.1018 -3039 0 0
189 1 3 31.1018 -3036 0 0
190 1 3 31.1018 -3033 0 0
191 1 3 31.1018 -3030 0 0
192 1 3 31.1018 -3027 0 0
193 1 3 31.1018 -3024 0 0
194 1 3 31.1018 -3021 0 0
195 1 3 31.1018 -3018 0 0
196 1 3 31.1018 -3015 0 0
197 1 3 31.1018 -3012 0 0
198 1 3 31.1018 -3009 0 0
199 1 3 31.1018 -3006 0 0
200 1 3 31.1018 -3003 0 0
201 1 3 31.1018 -3000 0 0
202 1 3 31.1018 -2997 0 0
203 1 3 31.1018 -2994 0 0
204 1 3 31.1018 -2991 0 0
205 1 3 31.1018 -2988 0 0
206 1 3 31.1018 -2985 0 0
207 1 3 31.1018 -2982 0 0
208 1 3 31.1018 -2979 0 0
209 1 3 31.1018 -2976 0 0
210 1 3 31.1018 -2973 0 0
211 1 3 31.1018 -2970 0 0
212 1 3 31.1018 -2967 0 0
213 1 3 31.1018 -2964 0 0
214 1 3 31.1018 -2961 0 0
215 1 3 31.1018 -2958 0 0
216 1 3 31.1018 -2955 0 0
217 1 3 31.1018 -2952 0 0
218 1 3 31.1018 -2949 0 0
219 1 3 31.1018 -2946 0 0
220 1 3 31.1018 -2943 0 0
221 1 3 31.1018 -2940 0 0
222 1 3 31.1018 -2937 0 0
223 1 3 31.1018 -2934 0 0
224 1 3 31.1018 -2931 0 0
225 1 3 31.1018 -2928 0 0
226 1 3 31.1018 -2925 0 0
227 1 3 31.1018 -2922 0 0
228 1 3 31.1018 -2919 0 0
229 1 3 31.1018 -2916 0 0
230 1 3 31.1018 -2913 0 0
231 1 3 31.1018 -2910 0 0
232 1 3 31.1018 -2907 0 0
233 1 3 31.1018 -2904 0 0
234 1 3 31.1018 -2901 0 0
235 1 3 31.1018 -2898 0 0
236 1 3 31.1018 -2895 0 0
237 1 3 31.1018 -2892 0 0
238 1 3 31.1018 -2889 0 0
239 1 3 31.1018 -2886 0 0
240 1 3 31.1018 -2883 0 0
241 1 3 31.1018 -2880 0 0
242 1 3 31.1018 -2877 0 0
243 1 3 31.1018 -2874 0 0
244 1 3 31.1018 -2871 0 0
245 1 3 31.1018 -2868 0 0
246 1 3 31.1018 -2865 0 0
247 1 3 31.1018 -2862 0 0
248 1 3 31.1018 -2859 0 0
249 1 3 31.1018 -2856 0 0
250 1 3 31.1018 -2853 0 0
251 1 3 31.1018 -2850 0 0
252 1 3 31.1018 -2847 0 0
253 1 3 31.1018 -2844 0 0
254 1 3 31.1018 -2841 0 0
255 1 3 31.1018 -2838 0 0
256 1 3 31.1018 -2835 0 0
257 1 3 31.1018 -2832 0 0
258 1 3 31.1018 -2829 0 0
259 1 3 31.1018 -2826 0 0
260 1 3 31.1018 -2823 0 0
261 1 3 31.1018 -2820 0 0
262 1 3 31.1018 -2817 0 0
263 1 3 31.1018 -2814 0 0
264 1 3 31.1018 -2811 0 0
265 1 3 31.1018 -2808 0 0
266 1 3 31.1018 -2805 0 0
267 1 3 31.1018 -2802 0 0
268 1 3 31.1018 -2799 0 0
269 1 3 31.1018 -2796 0 0
270 1 3 31.1018 -2793 0 0
271 1 3 31.1018 -2790 0 0
272 1 3 31.1018 -2787 0 0
273 1 3 31.1018 -2784 0 0
274 1 3 31.1018 -2781 0 0
275 1 3 31.1018 -2778 0 0
276 1 3 31.1018 -2775 0 0
277 1 3 31.1018 -2772 0 0
278 1 3 31.1018 -2769 0 0
279 1 3 31.1018 -2766 0 0
280 1 3 31.1018 -2763 0 0
281 1 3 31.1018 -2760 0 0
282 1 3 31.1018 -2757 0 0
283 1 3 31.1018 -2754 0 0
284 1 3 31.1018 -2751 0 0
285 1 3 31.1018 -2748 0 0
286 1 3 31.1018 -2745 0 0
287 1 3 31.1018 -2742 0 0
288 1 3 31.1018 -2739 0 0
289 1 3 31.1018 -2736 0 0
290 1 3 31.1018 -2733 0 0
291 1 3 31.1018 -2730 0 0
292 1 3 31.1018 -2727 0 0
293 1 3 31.1018 -2724 0 0
294 1 3 31.1018 -2721 0 0
295 1 3 31.1018 -2718 0 0
296 1 3 31.1018 -2715 0 0
297 1 3 31.1018 -2712 0 0
298 1 3 31.1018 -2709 0 0
299 1 3 31.1018 -2706 0 0
300 1 3 31.1018 -2703 0 0
301 1 3 31.1018 -2700 0 0
302 1 3 31.1018 -2697 0 0
303 1 3 31.1018 -2694 0 0
304 1 3 31.1018 -2691 0 0
305 1 3 31.1018 -2688 0 0
306 1 3 31.1018 -2685 0 0
307 1 3 31.1018 -2682 0 0
308 1 3 31.1018 -2679 0 0
309 1 3 31.1018 -2676 0 0
310 1 3 31.1018 -2673 0 0
311 1 3 31.1018 -2670 0 0
312 1 3 31.1018 -2667 0 0
313 1 3 31.1018 -2664 0 0
314 1 3 31.1018 -2661 0 0
315 1 3 31.1018 -2658 0 0
316 1 3 31.1018 -2655 0 0
317 1 3 31.1018 -2652 0 0
318 1 3 31.1018 -2649 0 0
319 1 3 31.1018 -2646 0 0
320 1 3 31.1018 -2643 0 0
321 1 3 31.1018 -2640 0 0
322 1 3 31.1018 -2637 0 0
323 1 3 31.1018 -2634 0 0
324 1 3 31.1018 -2631 0 0
325 1 3 31.1018 -2628 0 0
326 1 3 31.1018 -2625 0 0
327 1 3 31.1018 -2622 0 0
328 1 3 31.1018 -2619 0 0
329 1 3 31.1018 -2616 0 0
330 1 3 31.1018 -2613 0 0
331 1 3 31.1018 -2610 0 0
332 1 3 31.1018 -2607 0 0
333 1 3 31.1018 -2604 0 0
334 1 3 31.1018 -2601 0 0
335 1 3 31.1018 -2598 0 0
336 1 3 31.1018 -2595 0 0
337 1 3 31.1018 -2592 0 0
338 1 3 31.1018 -2589 0 0
339 1 3 31.1018 -2586 0 0
340 1 3 31.1018 -2583 0 0
341 1 3 31.1018 -2580 0 0
342 1 3 31.1018 -2577 0 0
343 1 3 31.1018 -2574 0 0
344 1 3 31.1018 -2571 0 0
345 1 3 31.1018 -2568 0 0
346 1 3 31.1018 -2565 0 0
347 1 3 31.1018 -2562 0 0
348 1 3 31.1018 -2559 0 0
349 1 3 31.1018 -2556 0 0
350 1 3 31.1018 -2553 0 0
351 1 3 31.1018 -2550 0 0
352 1 3 31.1018 -2547 0 0
353 1 3 31.1018 -2544 0 0
354 1 3 31.1018 -2541 0 0
355 1 3 31.1018 -2538 0 0
356 1 3 31.1018 -2535 0 0
357 1 3 31.1018 -2532 0 0
358 1 3 31.1018 -2529 0 0
359 1 3 31.1018 -2526 0 0
360 1 3 31.1018 -2523 0 0
361 1 3 31.1018 -2520 0 0
362 1 3 31.1018 -2517 0 0
363 1 3 31.1018 -2514 0 0
364 1 3 31.1018 -2511 0 0
365 1 3 31.1018 -2508 0 0
366 1 3 31.1018 -2505 0 0
367 1 3 31.1018 -2502 0 0
368 1 3 31.1018 -2499 0 0
369 1 3 31.1018 -2496 0 0
370 1 3 31.1018 -2493 0 0
371 1 3 31.1018 -2490 0 0
372 1 3 31.1018 -2487 0 0
373 1 3 31.1018 -2484 0 0
374 1 3 31.1018 -2481 0 0
375 1 3 31.1018 -2478 0 0
376 1 3 31.1018 -2475 0 0
377 1 3 31.1018 -2472 0 0
378 1 3 31.1018 -2469 0 0
379 1 3 31.1018 -2466 0 0
380 1 3 31.1018 -2463 0 0
381 1 3 31.1018 -2460 0 0
382 1 3 31.1018 -2457 0 0
383 1 3 31.1018 -2454 0 0
384 1 3 31.1018 -2451 0 0
385 1 3 31.1018 -2448 0 0
386 1 3 31.1018 -2445 0 0
387 1 3 31.1018 -2442 0 0
388 1 3 31.1018 -2439 0 0
389 1 3 31.1018 -2436 0 0
390 1 3 31.1018 -2433 0 0
391 1 3 31.1018 -2430 0 0
392 1 3 31.1018 -2427 0 0
393 1 3 31.1018 -2424 0 0
394 1 3 31.1018 -2421 0 0
395 1 3 31.1018 -2418 0 0
396 1 3 31.1018 -2415 0 0
397 1 3 31.1018 -2412 0 0
398 1 3 31.1018 -2409 0 0
399 1 3 31.1018 -2406 0 0
400 1 3 31.1018 -2403 0 0
401 1 3 31.1018 -2400 0 0
402 1 3 31.1018 -2397 0 0
403 1 3 31.1018 -2394 0 0
404 1 3 31.1018 -2391 0 0
405 1 3 31.1018 -2388 0 0
406 1 3 31.1018 -2385 0 0
407 1 3 31.1018 -2382 0 0
408 1 3 31.1018 -2379 0 0
409 1 3 31.1018 -2376 0 0
410 1 3 31.1018 -2373 0 0
411 1 3 31.1018 -2370 0 0
412 1 3 31.1018 -2367 0 0
413 1 3 31.1018 -2364 0 0
414 1 3 31.1018 -2361 0 0
415 1 3 31.1018 -2358 0 0
416 1 3 31.1018 -2355 0 0
417 1 3 31.1018 -2352 0 0
418 1 3 31.1018 -2349 0 0
419 1 3 31.1018 -2346 0 0
420 1 3 31.1018 -2343 0 0
421 1 3 31.1018 -2340 0 0
422 1 3 31.1018 -2337 0 0
423 1 3 31.1018 -2334 0 0
424 1 3 31.1018 -2331 0 0
425 1 3 31.1018 -2328 0 0
426 1 3 31.1018 -2325 0 0
427 1 3 31.1018 -2322 0 0
428 1 3 31.1018 -2319 0 0
429 1 3 31.1018 -2316 0 0
430 1 3 31.1018 -2313 0 0
431 1 3 31.1018 -2310 0 0
432 1 3 31.1018 -2307 0 0
433 1 3 31.1018 -2304 0 0
434 1 3 31.1018 -2301 0 0
435 1 3 31.1018 -2298 0 0
436 1 3 31.1018 -2295 0 0
437 1 3 31.1018 -2292 0 0
438 1 3 31.1018 -2289 0 0
439 1 3 31.1018 -2286 0 0
440 1 3 31.1018 -2283 0 0
441 1 3 31.1018 -2280 0 0
442 1 3 31.1018 -2277 0 0
443 1 3 31.1018 -2274 0 0
444 1 3 31.1018 -2271 0 0
445 1 3 31.1018 -2268 0 0
446 1 3 31.1018 -2265 0 0
447 1 3 31.1018 -2262 0 0
448 1 3 31.1018 -2259 0 0
449 1 3 31.1018 -2256 0 0
450 1 3 31.1018 -2253 0 0
451 1 3 31.1018 -2250 0 0
452 1 3 31.1018 -2247 0 0
453 1 3 31.1018 -2244 0 0
454 1 3 31.1018 -2241 0 0
455 1 3 31.1018 -2238 0 0
456 1 3 31.1018 -2235 0 0
457 1 3 31.1018 -2232 0 0
458 1 3 31.1018 -2229 0 0
459 1 3 31.1018 -2226 0 0
460 1 3 31.1018 -2223 0 0
461 1 3 31.1018 -2220 0 0
462 1 3 31.1018 -2217 0 0
463 1 3 31.1018 -2214 0 0
464 1 3 31.1018 -2211 0 0
465 1 3 31.1018 -2208 0 0
466 1 3 31.1018 -2205 0 0
467 1 3 31.1018 -2202 0 0
468 1 3 31.1018 -2199 0 0
469 1 3 31.1018 -2196 0 0
470 1 3 31.1018 -2193 0 0
471 1 3 31.1018 -2190 0 0
472 1 3 31.1018 -2187 0 0
473 1 3 31.1018 -2184 0 0
474 1 3 31.1018 -2181 0 0
475 1 3 31.1018 -2178 0 0
476 1 3 31.1018 -2175 0 0
477 1 3 31.1018 -2172 0 0
478 1 3 31.1018 -2169 0 0
479 1 3 31.1018 -2166 0 0
480 1 3 31.1018 -2163 0 0
481 1 3 31.1018 -2160 0 0
482 1 3 31.1018 -2157 0 0
483 1 3 31.1018 -2154 0 0
484 1 3 31.1018 -2151 0 0
485 1 3 31.1018 -2148 0 0
486 1 3 31.1018 -2145 0 0
487 1 3 31.1018 -2142 0 0
488 1 3 31.1018 -2139 0 0
489 1 3 31.1018 -2136 0 0
490 1 3 31.1018 -2133 0 0
491 1 3 31.1018 -2130 0 0
492 1 3 31.1018 -2127 0 0
493 1 3 31.1018 -2124 0 0
494 1 3 31.1018 -2121 0 0
495 1 3 31.1018 -2118 0 0
496 1 3 31.1018 -2115 0 0
497 1 3 31.1018 -2112 0 0
498 1 3 31.1018 -2109 0 0
499 1 3 31.1018 -2106 0 0
500 1 3 31.1018 -2103 0 0
501 1 3 31.1018 -2100 0 0
502 1 3 31.1018 -2097 0 0
503 1 3 31.1018 -2094 0 0
504 1 3 31.1018 -2091 0 0
505 1 3 31.1018 -2088 0 0
506 1 3 31.1018 -2085 0 0
507 1 3 31.1018 -2082 0 0
508 1 3 31.1018 -2079 0 0
509 1 3 31.1018 -2076 0 0
510 1 3 31.1018 -2073 0 0
511 1 3 31.1018 -2070 0 0
512 1 3 31.1018 -2067 0 0
513 1 3 31.1018 -2064 0 0
514 1 3 31.1018 -2061 0 0
515 1 3 31.1018 -2058 0 0
516 1 3 31.1018 -2055 0 0
517 1 3 31.1018 -2052 0 0
518 1 3 31.1018 -2049 0 0
519 1 3 31.1018 -2046 0 0
520 1 3 31.1018 -2043 0 0
521 1 3 31.1018 -2040 0 0
522 1 3 31.1018 -2037 0 0
523 1 3 31.1018 -2034 0 0
524 1 3 31.1018 -2031 0 0
525 1 3 31.1018 -2028 0 0
526 1 3 31.1018 -2025 0 0
527 1 3 31.1018 -2022 0 0
528 1 3 31.1018 -2019 0 0
529 1 3 31.1018 -2016 0 0
530 1 3 31.1018 -2013 0 0
531 1 3 31.1018 -2010 0 0
532 1 3 31.1018 -2007 0 0
533 1 3 31.1018 -2004 0 0
534 1 3 31.1018 -2001 0 0
535 1 3 31.1018 -1998 0 0
536 1 3 31.1018 -1995 0 0
537 1 3 31.1018 -1992 0 0
538 1 3 31.1018 -1989 0 0
539 1 3 31.1018 -1986 0 0
540 1 3 31.1018 -1983 0 0
541 1 3 31.1018 -1980 0 0
542 1 3 31.1018 -1977 0 0
543 1 3 31.1018 -1974 0 0
544 1 3 31.1018 -1971 0 0
545 1 3 31.1018 -1968 0 0
546 1 3 31.1018 -1965 0 0
547 1 3 31.1018 -1962 0 0
548 1 3 31.1018 -1959 0 0
549 1 3 31.1018 -1956 0 0
550 1 3 31.1018 -1953 0 0
551 1 3 31.1018 -1950 0 0
552 1 3 31.1018 -1947 0 0
553 1 3 31.1018 -1944 0 0
554 1 3 31.1018 -1941 0 0
555 1 3 31.1018 -1938 0 0
556 1 3 31.1018 -1935 0 0
557 1 3 31.1018 -1932 0 0
558 1 3 31.1018 -1929 0 0
559 1 3 31.1018 -1926 0 0
560 1 3 31.1018 -1923 0 0
561 1 3 31.1018 -1920 0 0
562 1 3 31.1018 -1917 0 0
563 1 3 31.1018 -1914 0 0
564 1 3 31.1018 -1911 0 0
565 1 3 31.1018 -1908 0 0
566 1 3 31.1018 -1905 0 0
567 1 3 31.1018 -1902 0 0
568 1 3 31.1018 -1899 0 0
569 1 3 31.1018 -1896 0 0
570 1 3 31.1018 -1893 0 0
571 1 3 31.1018 -1890 0 0
572 1 3 31.1018 -1887 0 0
573 1 3 31.1018 -1884 0 0
574 1 3 31.1018 -1881 0 0
575 1 3 31.1018 -1878 0 0
576 1 3 31.1018 -1875 0 0
577 1 3 31.1018 -1872 0 0
578 1 3 31.1018 -1869 0 0
579 1 3 31.1018 -1866 0 0
580 1 3 31.1018 -1863 0 0
581 1 3 31.1018 -1860 0 0
582 1 3 31.1018 -1857 0 0
583 1 3 31.1018 -1854 0 0
584 1 3 31.1018 -1851 0 0
585 1 3 31.1018 -1848 0 0
586 1 3 31.1018 -1845 0 0
587 1 3 31.1018 -1842 0 0
588 1 3 31.1018 -1839 0 0
589 1 3 31.1018 -1836 0 0
590 1 3 31.1018 -1833 0 0
591 1 3 31.1018 -1830 0 0
592 1 3 31.1018 -1827 0 0
593 1 3 31.1018 -1824 0 0
594 1 3 31.1018 -1821 0 0
595 1 3 31.1018 -1818 0 0
596 1 3 31.1018 -1815 0 0
597 1 3 31.1018 -1812 0 0
598 1 3 31.1018 -1809 0 0
599 1 3 31.1018 -1806 0 0
600 1 3 31.1018 -1803 0 0
2401 2 3 31.1018 -2400 0 2.99937136096258739
2402 2 3 31.1018 -2397 0 2.99937136096258739
2403 2 3 31.1018 -2394 0 2.99937136096258739
2404 2 3 31.1018 -2391 0 2.99937136096258739
2405 2 3 31.1018 -2388 0 2.99937136096258739
2406 2 3 31.1018 -2385 0 2.99937136096258739
2407 2 3 31.1018 -2382 0 2.99937136096258739
2408 2 3 31.1018 -2379 0 2.99937136096258739
2409 2 3 31.1018 -2376 0 2.99937136096258739
2410 2 3 31.1018 -2373 0 2.99937136096258739
2411 2 3 31.1018 -2370 0 2.99937136096258739
2412 2 3 31.1018 -2367 0 2.99937136096258739
2413 2 3 31.1018 -2364 0 2.99937136096258739
2414 2 3 31.1018 -2361 0 2.99937136096258739
2415 2 3 31.1018 -2358 0 2.99937136096258739
2416 2 3 31.1018 -2355 0 2.99937136096258739
2417 2 3 31.1018 -2352 0 2.99937136096258739
2418 2 3 31.1018 -2349 0 2.99937136096258739
2419 2 3 31.1018 -2346 0 2.99937136096258739
2420 2 3 31.1018 -2343 0 2.99937136096258739
2421 2 3 31.1018 -2340 0 2.99937136096258739
2422 2 3 31.1018 -2337 0 2.99937136096258739
2423 2 3 31.1018 -2334 0 2.99937136096258739
2424 2 3 31.1018 -2331 0 2.99937136096258739
2425 2 3 31.1018 -2328 0 2.99937136096258739
2426 2 3 31.1018 -2325 0 2.99937136096258739
2427 2 3 31.1018 -2322 0 2.99937136096258739
2428 2 3 31.1018 -2319 0 2.99937136096258739
2429 2 3 31.1018 -2316 0 2.99937136096258739
2430 2 3 31.1018 -2313 0 2.99937136096258739
2431 2 3 31.1018 -2310 0 2.99937136096258739
2432 2 3 31.1018 -2307 0 2.99937136096258739
2433 2 3 31.1018 -2304 0 2.99937136096258739
2434 2 3 31.1018 -2301 0 2.99937136096258739
2435 2 3 31.1018 -2298 0 2.99937136096258739
2436 2 3 31.1018 -2295 0 2.99937136096258739
2437 2 3 31.1018 -2292 0 2.99937136096258739
2438 2 3 31.1018 -2289 0 2.99937136096258739
2439 2 3 31.1018 -2286 0 2.99937136096258739
2440 2 3 31.1018 -2283 0 2.99937136096258739
2441 2 3 31.1018 -2280 0 2.99937136096258739
2442 2 3 31.1018 -2277 0 2.99937136096258739
2443 2 3 31.1018 -2274 0 2.99937136096258739
2444 2 3 31.1018 -2271 0 2.99937136096258739
2445 2 3 31.1018 -2268 0 2.99937136096258739
2446 2 3 31.1018 -2265 0 2.99937136096258739
2447 2 3 31.1018 -2262 0 2.99937136096258739
2448 2 3 31.1018 -2259 0 2.99937136096258739
2449 2 3 31.1018 -2256 0 2.99937136096258739
2450 2 3 31.1018 -2253 0 2.99937136096258739
2451 2 3 31.1018 -2250 0 2.99937136096258739
2452 2 3 31.1018 -2247 0 2.99937136096258739
2453 2 3 31.1018 -2244 0 2.99937136096258739
2454 2 3 31.1018 -2241 0 2.99937136096258739
2455 2 3 31.1018 -2238 0 2.99937136096258739
2456 2 3 31.1018 -2235 0 2.99937136096258739
2457 2 3 31.1018 -2232 0 2.99937136096258739
2458 2 3 31.1018 -2229 0 2.99937136096258739
2459 2 3 31.1018 -2226 0 2.99937136096258739
2460 2 3 31.1018 -2223 0 2.99937136096258739
2461 2 3 31.1018 -2220 0 2.99937136096258739
2462 2 3 31.1018 -2217 0 2.99937136096258739
2463 2 3 31.1018 -2214 0 2.99937136096258739
2464 2 3 31.1018 -2211 0 2.99937136096258739
2465 2 3 31.1018 -2208 0 2.99937136096258739
2466 2 3 31.1018 -2205 0 2.99937136096258739
2467 2 3 31.1018 -2202 0 2.99937136096258739
2468 2 3 31.1018 -2199 0 2.99937136096258739
2469 2 3 31.1018 -2196 0 2.99937136096258739
2470 2 3 31.1018 -2193 0 2.99937136096258739
2471 2 3 31.1018 -2190 0 2.99937136096258739
2472 2 3 31.1018 -2187 0 2.99937136096258739
2473 2 3 31.1018 -2184 0 2.99937136096258739
2474 2 3 31.1018 -2181 0 2.99937136096258739
2475 2 3 31.1018 -2178 0 2.99937136096258739
2476 2 3 31.1018 -2175 0 2.99937136096258739
2477 2 3 31.1018 -2172 0 2.99937136096258739
2478 2 3 31.1018 -2169 0 2.99937136096258739
2479 2 3 31.1018 -2166 0 2.99937136096258739
2480 2 3 31.1018 -2163 0 2.99937136096258739
2481 2 3 31.1018 -2160 0 2.99937136096258739
2482 2 3 31.1018 -2157 0 2.99937136096258739
2483 2 3 31.1018 -2154 0 2.99937136096258739
2484 2 3 31.1018 -2151 0 2.99937136096258739
2485 2 3 31.1018 -2148 0 2.99937136096258739
2486 2 3 31.1018 -2145 0 2.99937136096258739
2487 2 3 31.1018 -2142 0 2.99937136096258739
2488 2 3 31.1018 -2139 0 2.99937136096258739
2489 2 3 31.1018 -2136 0 2.99937136096258739
2490 2 3 31.1018 -2133 0 2.99937136096258739
2491 2 3 31.1018 -2130 0 2.99937136096258739
2492 2 3 31.1018 -2127 0 2.99937136096258739
2493 2 3 31.1018 -2124 0 2.99937136096258739
2494 2 3 31.1018 -2121 0 2.99937136096258739
2495 2 3 31.1018 -2118 0 2.99937136096258739
2496 2 3 31.1018 -2115 0 2.99937136096258739
2497 2 3 31.1018 -2112 0 2.99937136096258739
2498 2 3 31.1018 -2109 0 2.99937136096258739
2499 2 3 31.1018 -2106 0 2.99937136096258739
2500 2 3 31.1018 -2103 0 2.99937136096258739
2501 2 3 31.1018 -2100 0 2.99937136096258739
2502 2 3 31.1018 -2097 0 2.99937136096258739
2503 2 3 31.1018 -2094 0 2.99937136096258739
2504 2 3 31.1018 -2091 0 2.99937136096258739
2505 2 3 31.1018 -2088 0 2.99937136096258739
2506 2 3 31.1018 -2085 0 2.99937136096258739
2507 2 3 31.1018 -2082 0 2.99937136096258739
2508 2 3 31.1018 -2079 0 2.99937136096258739
2509 2 3 31.1018 -2076 0 2.99937136096258739
2510 2 3 31.1018 -2073 0 2.99937136096258739
2511 2 3 31.1018 -2070 0 2.99937136096258739
2512 2 3 31.1018 -2067 0 2.99937136096258739
2513 2 3 31.1018 -2064 0 2.99937136096258739
2514 2 3 31.1018 -2061 0 2.99937136096258739
2515 2 3 31.1018 -2058 0 2.99937136096258739
2516 2 3 31.1018 -2055 0 2.99937136096258739
2517 2 3 31.1018 -2052 0 2.99937136096258739
2518 2 3 31.1018 -2049 0 2.99937136096258739
2519 2 3 31.1018 -2046 0 2.99937136096258739
2520 2 3 31.1018 -2043 0 2.99937136096258739
2521 2 3 31.1018 -2040 0 2.99937136096258739
2522 2 3 31.1018 -2037 0 2.99937136096258739
2523 2 3 31.1018 -2034 0 2.99937136096258739
2524 2 3 31.1018 -2031 0 2.99937136096258739
2525 2 3 31.1018 -2028 0 2.99937136096258739
2526 2 3 31.1018 -2025 0 2.99937136096258739
2527 2 3 31.1018 -2022 0 2.99937136096258739
2528 2 3 31.1018 -2019 0 2.99937136096258739
2529 2 3 31.1018 -2016 0 2.99937136096258739
2530 2 3 31.1018 -2013 0 2.99937136096258739
2531 2 3 31.1018 -2010 0 2.99937136096258739
2532 2 3 31.1018 -2007 0 2.99937136096258739
2533 2 3 31.1018 -2004 0 2.99937136096258739
2534 2 3 31.1018 -2001 0 2.99937136096258739
2535 2 3 31.1018 -1998 0 2.99937136096258739
2536 2 3 31.1018 -1995 0 2.99937136096258739
2537 2 3 31.1018 -1992 0 2.99937136096258739
2538 2 3 31.1018 -1989 0 2.99937136096258739
2539 2 3 31.1018 -1986 0 2.99937136096258739
2540 2 3 31.1018 -1983 0 2.99937136096258739
2541 2 3 31.1018 -1980 0 2.99937136096258739
2542 2 3 31.1018 -1977 0 2.99937136096258739
2543 2 3 31.1018 -1974 0 2.99937136096258739
2544 2 3 31.1018 -1971 0 2.99937136096258739
2545 2 3 31.1018 -1968 0 2.99937136096258739
2546 2 3 31.1018 -1965 0 2.99937136096258739
2547 2 3 31.1018 -1962 0 2.99937136096258739
2548 2 3 31.1018 -1959 0 2.99937136096258739
2549 2 3 31.1018 -1956 0 2.99937136096258739
2550 2 3 31.1018 -1953 0 2.99937136096258739
2551 2 3 31.1018 -1950 0 2.99937136096258739
2552 2 3 31.1018 -1947 0 2.99937136096258739
2553 2 3 31.1018 -1944 0 2.99937136096258739
2554 2 3 31.1018 -1941 0 2.99937136096258739
2555 2 3 31.1018 -1938 0 2.99937136096258739
2556 2 3 31.1018 -1935 0 2.99937136096258739
2557 2 3 31.1018 -1932 0 2.99937136096258739
2558 2 3 31.1018 -1929 0 2.99937136096258739
2559 2 3 31.1018 -1926 0 2.99937136096258739
2560 2 3 31.1018 -1923 0 2.99937136096258739
2561 2 3 31.1018 -1920 0 2.99937136096258739
2562 2 3 31.1018 -1917 0 2.99937136096258739
2563 2 3 31.1018 -1914 0 2.99937136096258739
2564 2 3 31.1018 -1911 0 2.99937136096258739
2565 2 3 31.1018 -1908 0 2.99937136096258739
2566 2 3 31.1018 -1905 0 2.99937136096258739
2567 2 3 31.1018 -1902 0 2.99937136096258739
2568 2 3 31.1018 -1899 0 2.99937136096258739
2569 2 3 31.1018 -1896 0 2.99937136096258739
2570 2 3 31.1018 -1893 0 2.99937136096258739
2571 2 3 31.1018 -1890 0 2.99937136096258739
2572 2 3 31.1018 -1887 0 2.99937136096258739
2573 2 3 31.1018 -1884 0 2.99937136096258739
2574 2 3 31.1018 -1881 0 2.99937136096258739
2575 2 3 31.1018 -1878 0 2.99937136096258739
2576 2 3 31.1018 -1875 0 2.99937136096258739
2577 2 3 31.1018 -1872 0 2.99937136096258739
2578 2 3 31.1018 -1869 0 2.99937136096258739
2579 2 3 31.1018 -1866 0 2.99937136096258739
2580 2 3 31.1018 -1863 0 2.99937136096258739
2581 2 3 31.1018 -1860 0 2.99937136096258739
2582 2 3 31.1018 -1857 0 2.99937136096258739
2583 2 3 31.1018 -1854 0 2.99937136096258739
2584 2 3 31.1018 -1851 0 2.99937136096258739
2585 2 3 31.1018 -1848 0 2.99937136096258739
2586 2 3 31.1018 -1845 0 2.99937136096258739
2587 2 3 31.1018 -1842 0 2.99937136096258739
2588 2 3 31.1018 -1839 0 2.99937136096258739
2589 2 3 31.1018 -1836 0 2.99937136096258739
2590 2 3 31.1018 -1833 0 2.99937136096258739
2591 2 3 31.1018 -1830 0 2.99937136096258739
2592 2 3 31.1018 -1827 0 2.99937136096258739
2593 2 3 31.1018 -1824 0 2.99937136096258739
2594 2 3 31.1018 -1821 0 2.99937136096258739
2595 2 3 31.1018 -1818 0 2.99937136096258739
2596 2 3 31.1018 -1815 0 2.99937136096258739
2597 2 3 31.1018 -1812 0 2.99937136096258739
2598 2 3 31.1018 -1809 0 2.99937136096258739
2599 2 3 31.1018 -1806 0 2.99937136096258739
2600 2 3 31.1018 -1803 0 2.99937136096258739
601 1 3 31.1018 -1800 0 0
602 1 3 31.1018 -1797 0 0
603 1 3 31.1018 -1794 0 0
604 1 3 31.1018 -1791 0 0
605 1 3 31.1018 -1788 0 0
606 1 3 31.1018 -1785 0 0
607 1 3 31.1018 -1782 0 0
608 1 3 31.1018 -1779 0 0
609 1 3 31.1018 -1776 0 0
610 1 3 31.1018 -1773 0 0
611 1 3 31.1018 -1770 0 0
612 1 3 31.1018 -1767 0 0
613 1 3 31.1018 -1764 0 0
614 1 3 31.1018 -1761 0 0
615 1 3 31.1018 -1758 0 0
616 1 3 31.1018 -1755 0 0
617 1 3 31.1018 -1752 0 0
618 1 3 31.1018 -1749 0 0
619 1 3 31.1018 -1746 0 0
620 1 3 31.1018 -1743 0 0
621 1 3 31.1018 -1740 0 0
622 1 3 31.1018 -1737 0 0
623 1 3 31.1018 -1734 0 0
624 1 3 31.1018 -1731 0 0
625 1 3 31.1018 -1728 0 0
626 1 3 31.1018 -1725 0 0
627 1 3 31.1018 -1722 0 0
628 1 3 31.1018 -1719 0 0
629 1 3 31.1018 -1716 0 0
630 1 3 31.1018 -1713 0 0
631 1 3 31.1018 -1710 0 0
632 1 3 31.1018 -1707 0 0
633 1 3 31.1018 -1704 0 0
634 1 3 31.1018 -1701 0 0
635 1 3 31.1018 -1698 0 0
636 1 3 31.1018 -1695 0 0
637 1 3 31.1018 -1692 0 0
638 1 3 31.1018 -1689 0 0
639 1 3 31.1018 -1686 0 0
640 1 3 31.1018 -1683 0 0
641 1 3 31.1018 -1680 0 0
642 1 3 31.1018 -1677 0 0
643 1 3 31.1018 -1674 0 0
644 1 3 31.1018 -1671 0 0
645 1 3 31.1018 -1668 0 0
646 1 3 31.1018 -1665 0 0
647 1 3 31.1018 -1662 0 0
648 1 3 31.1018 -1659 0 0
649 1 3 31.1018 -1656 0 0
650 1 3 31.1018 -1653 0 0
651 1 3 31.1018 -1650 0 0
652 1 3 31.1018 -1647 0 0
653 1 3 31.1018 -1644 0 0
654 1 3 31.1018 -1641 0 0
655 1 3 31.1018 -1638 0 0
656 1 3 31.1018 -1635 0 0
657 1 3 31.1018 -1632 0 0
658 1 3 31.1018 -1629 0 0
659 1 3 31.1018 -1626 0 0
660 1 3 31.1018 -1623 0 0
661 1 3 31.1018 -1620 0 0
662 1 3 31.1018 -1617 0 0
663 1 3 31.1018 -1614 0 0
664 1 3 31.1018 -1611 0 0
665 1 3 31.1018 -1608 0 0
666 1 3 31.1018 -1605 0 0
667 1 3 31.1018 -1602 0 0
668 1 3 31.1018 -1599 0 0
669 1 3 31.1018 -1596 0 0
670 1 3 31.1018 -1593 0 0
671 1 3 31.1018 -1590 0 0
672 1 3 31.1018 -1587 0 0
673 1 3 31.1018 -1584 0 0
674 1 3 31.1018 -1581 0 0
675 1 3 31.1018 -1578 0 0
676 1 3 31.1018 -1575 0 0
677 1 3 31.1018 -1572 0 0
678 1 3 31.1018 -1569 0 0
679 1 3 31.1018 -1566 0 0
680 1 3 31.1018 -1563 0 0
681 1 3 31.1018 -1560 0 0
682 1 3 31.1018 -1557 0 0
683 1 3 31.1018 -1554 0 0
684 1 3 31.1018 -1551 0 0
685 1 3 31.1018 -1548 0 0
686 1 3 31.1018 -1545 0 0
687 1 3 31.1018 -1542 0 0
688 1 3 31.1018 -1539 0 0
689 1 3 31.1018 -1536 0 0
690 1 3 31.1018 -1533 0 0
691 1 3 31.1018 -1530 0 0
692 1 3 31.1018 -1527 0 0
693 1 3 31.1018 -1524 0 0
694 1 3 31.1018 -1521 0 0
695 1 3 31.1018 -1518 0 0
696 1 3 31.1018 -1515 0 0
697 1 3 31.1018 -1512 0 0
698 1 3 31.1018 -1509 0 0
699 1 3 31.1018 -1506 0 0
700 1 3 31.1018 -1503 0 0
701 1 3 31.1018 -1500 0 0
702 1 3 31.1018 -1497 0 0
703 1 3 31.1018 -1494 0 0
704 1 3 31.1018 -1491 0 0
705 1 3 31.1018 -1488 0 0
706 1 3 31.1018 -1485 0 0
707 1 3 31.1018 -1482 0 0
708 1 3 31.1018 -1479 0 0
709 1 3 31.1018 -1476 0 0
710 1 3 31.1018 -1473 0 0
711 1 3 31.1018 -1470 0 0
712 1 3 31.1018 -1467 0 0
713 1 3 31.1018 -1464 0 0
714 1 3 31.1018 -1461 0 0
715 1 3 31.1018 -1458 0 0
716 1 3 31.1018 -1455 0 0
717 1 3 31.1018 -1452 0 0
718 1 3 31.1018 -1449 0 0
719 1 3 31.1018 -1446 0 0
720 1 3 31.1018 -1443 0 0
721 1 3 31.1018 -1440 0 0
722 1 3 31.1018 -1437 0 0
723 1 3 31.1018 -1434 0 0
724 1 3 31.1018 -1431 0 0
725 1 3 31.1018 -1428 0 0
726 1 3 31.1018 -1425 0 0
727 1 3 31.1018 -1422 0 0
728 1 3 31.1018 -1419 0 0
729 1 3 31.1018 -1416 0 0
730 1 3 31.1018 -1413 0 0
731 1 3 31.1018 -1410 0 0
732 1 3 31.1018 -1407 0 0
733 1 3 31.1018 -1404 0 0
734 1 3 31.1018 -1401 0 0
735 1 3 31.1018 -1398 0 0
736 1 3 31.1018 -1395 0 0
737 1 3 31.1018 -1392 0 0
738 1 3 31.1018 -1389 0 0
739 1 3 31.1018 -1386 0 0
740 1 3 31.1018 -1383 0 0
741 1 3 31.1018 -1380 0 0
742 1 3 31.1018 -1377 0 0
743 1 3 31.1018 -1374 0 0
744 1 3 31.1018 -1371 0 0
745 1 3 31.1018 -1368 0 0
746 1 3 31.1018 -1365 0 0
747 1 3 31.1018 -1362 0 0
748 1 3 31.1018 -1359 0 0
749 1 3 31.1018 -1356 0 0
750 1 3 31.1018 -1353 0 0
751 1 3 31.1018 -1350 0 0
752 1 3 31.1018 -1347 0 0
753 1 3 31.1018 -1344 0 0
754 1 3 31.1018 -1341 0 0
755 1 3 31.1018 -1338 0 0
756 1 3 31.1018 -1335 0 0
757 1 3 31.1018 -1332 0 0
758 1 3 31.1018 -1329 0 0
759 1 3 31.1018 -1326 0 0
760 1 3 31.1018 -1323 0 0
761 1 3 31.1018 -1320 0 0
762 1 3 31.1018 -1317 0 0
763 1 3 31.1018 -1314 0 0
764 1 3 31.1018 -1311 0 0
765 1 3 31.1018 -1308 0 0
766 1 3 31.1018 -1305 0 0
767 1 3 31.1018 -1302 0 0
768 1 3 31.1018 -1299 0 0
769 1 3 31.1018 -1296 0 0
770 1 3 31.1018 -1293 0 0
771 1 3 31.1018 -1290 0 0
772 1 3 31.1018 -1287 0 0
773 1 3 31.1018 -1284 0 0
774 1 3 31.1018 -1281 0 0
775 1 3 31.1018 -1278 0 0
776 1 3 31.1018 -1275 0 0
777 1 3 31.1018 -1272 0 0
778 1 3 31.1018 -1269 0 0
779 1 3 31.1018 -1266 0 0
780 1 3 31.1018 -1263 0 0
781 1 3 31.1018 -1260 0 0
782 1 3 31.1018 -1257 0 0
783 1 3 31.1018 -1254 0 0
784 1 3 31.1018 -1251 0 0
785 1 3 31.1018 -1248 0 0
786 1 3 31.1018 -1245 0 0
787 1 3 31.1018 -1242 0 0
788 1 3 31.1018 -1239 0 0
789 1 3 31.1018 -1236 0 0
790 1 3 31.1018 -1233 0 0
791 1 3 31.1018 -1230 0 0
792 1 3 31.1018 -1227 0 0
793 1 3 31.1018 -1224 0 0
794 1 3 31.1018 -1221 0 0
795 1 3 31.1018 -1218 0 0
796 1 3 31.1018 -1215 0 0
797 1 3 31.1018 -1212 0 0
798 1 3 31.1018 -1209 0 0
799 1 3 31.1018 -1206 0 0
800 1 3 31.1018 -1203 0 0
801 1 3 31.1018 -1200 0 0