ITEM: TIMESTEP
2200000
ITEM: NUMBER OF ATOMS
751
ITEM: BOX BOUNDS pp pp pp
-6.7500000000000000e+02 6.7500000000000000e+02
-1.0000000000000000e+02 1.0000000000000000e+02
-1.0000000000000000e+02 1.0000000000000000e+02
ITEM: ATOMS id type diameter mass xu yu zu
1 1 3 31.1018 -675 0 0
2 1 3 31.1018 -672 0 0
3 1 3 31.1018 -669 0 0
4 1 3 31.1018 -666 0 0
5 1 3 31.1018 -663 0 0
6 1 3 31.1018 -660 0 0
7 1 3 31.1018 -657 0 0
8 1 3 31.1018 -654 0 0
9 1 3 31.1018 -651 0 0
10 1 3 31.1018 -648 0 0
11 1 3 31.1018 -645 0 0
12 1 3 31.1018 -642 0 0
13 1 3 31.1018 -639 0 0
14 1 3 31.1018 -636 0 0
15 1 3 31.1018 -633 0 0
16 1 3 31.1018 -630 0 0
17 1 3 31.1018 -627 0 0
18 1 3 31.1018 -624 0 0
19 1 3 31.1018 -621 0 0
20 1 3 31.1018 -618 0 0
21 1 3 31.1018 -615 0 0
22 1 3 31.1018 -612 0 0
23 1 3 31.1018 -609 0 0
24 1 3 31.1018 -606 0 0
25 1 3 31.1018 -603 0 0
26 1 3 31.1018 -600 0 0
27 1 3 31.1018 -597 0 0
28 1 3 31.1018 -594 0 0
29 1 3 31.1018 -591 0 0
30 1 3 31.1018 -588 0 0
31 1 3 31.1018 -585 0 0
32 1 3 31.1018 -582 0 0
33 1 3 31.1018 -579 0 0
34 1 3 31.1018 -576 0 0
35 1 3 31.1018 -573 0 0
36 1 3 31.1018 -570 0 0
37 1 3 31.1018 -567 0 0
38 1 3 31.1018 -564 0 0
39 1 3 31.1018 -561 0 0
40 1 3 31.1018 -558 0 0
41 1 3 31.1018 -555 0 0
42 1 3 31.1018 -552 0 0
43 1 3 31.1018 -549 0 0
44 1 3 31.1018 -546 0 0
45 1 3 31.1018 -543 0 0
46 1 3 31.1018 -540 0 0
47 1 3 31.1018 -537 0 0
48 1 3 31.1018 -534 0 0
49 1 3 31.1018 -531 0 0
50 1 3 31.1018 -528 0 0
51 1 3 31.1018 -525 0 0
52 1 3 31.1018 -522 0 0
53 1 3 31.1018 -519 0 0
54 1 3 31.1018 -516 0 0
55 1 3 31.1018 -513 0 0
56 1 3 31.1018 -510 0 0
57 1 3 31.1018 -507 0 0
58 1 3 31.1018 -504 0 0
59 1 3 31.1018 -501 0 0
60 1 3 31.1018 -498 0 0
61 1 3 31.1018 -495 0 0
62 1 3 31.1018 -492 0 0
63 1 3 31.1018 -489 0 0
64 1 3 31.1018 -486 0 0
65 1 3 31.1018 -483 0 0
66 1 3 31.1018 -480 0 0
67 1 3 31.1018 -477 0 0
68 1 3 31.1018 -474 0 0
69 1 3 31.1018 -471 0 0
70 1 3 31.1018 -468 0 0
71 1 3 31.1018 -465 0 0
72 1 3 31.1018 -462 0 0
73 1 3 31.1018 -459 0 0
74 1 3 31.1018 -456 0 0
75 1 3 31.1018 -453 0 0
76 1 3 31.1018 -450 0 0
77 1 3 31.1018 -447 0 0
78 1 3 31.1018 -444 0 0
79 1 3 31.1018 -441 0 0
80 1 3 31.1018 -438 0 0
81 1 3 31.1018 -435 0 0
82 1 3 31.1018 -432 0 0
83 1 3 31.1018 -429 0 0
84 1 3 31.1018 -426 0 0
85 1 3 31.1018 -423 0 0
86 1 3 31.1018 -420 0 0
87 1 3 31.1018 -417 0 0
88 1 3 31.1018 -414 0 0
89 1 3 31.1018 -411 0 0
90 1 3 31.1018 -408 0 0
91 1 3 31.1018 -405 0 0
92 1 3 31.1018 -402 0 0
93 1 3 31.1018 -399 0 0
94 1 3 31.1018 -396 0 0
95 1 3 31.1018 -393 0 0
96 1 3 31.1018 -390 0 0
97 1 3 31.1018 -387 0 0
98 1 3 31.1018 -384 0 0
99 1 3 31.1018 -381 0 0
100 1 3 31.1018 -378 0 0
101 1 3 31.1018 -375 0 0
102 1 3 31.1018 -372 0 0
103 1 3 31.1018 -369 0 0
104 1 3 31.1018 -366 0 0
105 1 3 31.1018 -363 0 0
106 1 3 31.1018 -360 0 0
107 1 3 31.1018 -357 0 0
108 1 3 31.1018 -354 0 0
109 1 3 31.1018 -351 0 0
110 1 3 31.1018 -348 0 0
111 1 3 31.1018 -345 0 0
112 1 3 31.1018 -342 0 0
113 1 3 31.1018 -339 0 0
451 2 3 31.1018 -450 0 2.99937136090753187
452 2 3 31.1018 -447 0 2.99937136090753187
453 2 3 31.1018 -444 0 2.99937136090753187
454 2 3 31.1018 -441 0 2.99937136090753187
455 2 3 31.1018 -438 0 2.99937136090753187
456 2 3 31.1018 -435 0 2.99937136090753187
457 2 3 31.1018 -432 0 2.99937136090753187
458 2 3 31.1018 -429 0 2.99937136090753187
459 2 3 31.1018 -426 0 2.99937136090753187
460 2 3 31.1018 -423 0 2.99937136090753187
461 2 3 31.1018 -420 0 2.99937136090753187
462 2 3 31.1018 -417 0 2.99937136090753187
463 2 3 31.1018 -414 0 2.99937136090753187
464 2 3 31.1018 -411 0 2.99937136090753187
465 2 3 31.1018 -408 0 2.99937136090753187
466 2 3 31.1018 -405 0 2.99937136090753187
467 2 3 31.1018 -402 0 2.99937136090753187
468 2 3 31.1018 -399 0 2.99937136090753187
469 2 3 31.1018 -396 0 2.99937136090753187
470 2 3 31.1018 -393 0 2.99937136090753187
471 2 3 31.1018 -390 0 2.99937136090753187
472 2 3 31.1018 -387 0 2.99937136090753187
473 2 3 31.1018 -384 0 2.99937136090753187
474 2 3 31.1018 -381 0 2.99937136090753187
475 2 3 31.1018 -378 0 2.99937136090753187
476 2 3 31.1018 -375 0 2.99937136090753187
477 2 3 31.1018 -372 0 2.99937136090753187
478 2 3 31.1018 -369 0 2.99937136090753187
479 2 3 31.1018 -366 0 2.99937136090753187
480 2 3 31.1018 -363 0 2.99937136090753187
481 2 3 31.1018 -360 0 2.99937136090753187
482 2 3 31.1018 -357 0 2.99937136090753187
483 2 3 31.1018 -354 0 2.99937136090753187
484 2 3 31.1018 -351 0 2.99937136090753187
485 2 3 31.1018 -348 0 2.99937136090753187
486 2 3 31.1018 -345 0 2.99937136090753187
487 2 3 31.1018 -342 0 2.99937136090753187
488 2 3 31.1018 -339 0 2.99937136090753187
114 1 3 31.1018 -336 0 0
115 1 3 31.1018 -333 0 0
116 1 3 31.1018 -330 0 0
117 1 3 31.1018 -327 0 0
118 1 3 31.1018 -324 0 0
119 1 3 31.1018 -321 0 0
120 1 3 31.1018 -318 0 0
121 1 3 31.1018 -315 0 0
122 1 3 31.1018 -312 0 0
123 1 3 31.1018 -309 0 0
124 1 3 31.1018 -306 0 0
125 1 3 31.1018 -303 0 0
126 1 3 31.1018 -300 0 0
127 1 3 31.1018 -297 0 0
128 1 3 31.1018 -294 0 0
129 1 3 31.1018 -291 0 0
130 1 3 31.1018 -288 0 0
131 1 3 31.1018 -285 0 0
132 1 3 31.1018 -282 0 0
133 1 3 31.1018 -279 0 0
134 1 3 31.1018 -276 0 0
135 1 3 31.1018 -273 0 0
136 1 3 31.1018 -270 0 0
137 1 3 31.1018 -267 0 0
138 1 3 31.1018 -264 0 0
139 1 3 31.1018 -261 0 0
140 1 3 31.1018 -258 0 0
141 1 3 31.1018 -255 0 0
142 1 3 31.1018 -252 0 0
143 1 3 31.1018 -249 0 0
144 1 3 31.1018 -246 0 0
145 1 3 31.1018 -243 0 0
146 1 3 31.1018 -240 0 0
147 1 3 31.1018 -237 0 0
148 1 3 31.1018 -234 0 0
149 1 3 31.1018 -231 0 0
150 1 3 31.1018 -228 0 0
151 1 3 31.1018 -225 0 0
152 1 3 31.1018 -222 0 0
153 1 3 31.1018 -219 0 0
154 1 3 31.1018 -216 0 0
155 1 3 31.1018 -213 0 0
156 1 3 31.1018 -210 0 0
157 1 3 31.1018 -207 0 0
158 1 3 31.1018 -204 0 0
159 1 3 31.1018 -201 0 0
160 1 3 31.1018 -198 0 0
161 1 3 31.1018 -195 0 0
162 1 3 31.1018 -192 0 0
163 1 3 31.1018 -189 0 0
164 1 3 31.1018 -186 0 0
165 1 3 31.1018 -183 0 0
166 1 3 31.1018 -180 0 0
167 1 3 31.1018 -177 0 0
168 1 3 31.1018 -174 0 0
169 1 3 31.1018 -171 0 0
170 1 3 31.1018 -168 0 0
171 1 3 31.1018 -165 0 0
172 1 3 31.1018 -162 0 0
173 1 3 31.1018 -159 0 0
174 1 3 31.1018 -156 0 0
175 1 3 31.1018 -153 0 0
176 1 3 31.1018 -150 0 0
177 1 3 31.1018 -147 0 0
178 1 3 31.1018 -144 0 0
179 1 3 31.1018 -141 0 0
180 1 3 31.1018 -138 0 0
181 1 3 31.1018 -135 0 0
182 1 3 31.1018 -132 0 0
183 1 3 31.1018 -129 0 0
184 1 3 31.1018 -126 0 0
185 1 3 31.1018 -123 0 0
186 1 3 31.1018 -120 0 0
187 1 3 31.1018 -117 0 0
188 1 3 31.1018 -114 0 0
189 1 3 31.1018 -111 0 0
190 1 3 31.1018 -108 0 0
191 1 3 31.1018 -105 0 0
192 1 3 31.1018 -102 0 0
193 1 3 31.1018 -99 0 0
194 1 3 31.1018 -96 0 0
195 1 3 31.1018 -93 0 0
196 1 3 31.1018 -90 0 0
197 1 3 31.1018 -87 0 0
198 1 3 31.1018 -84 0 0
199 1 3 31.1018 -81 0 0
200 1 3 31.1018 -78 0 0
201 1 3 31.1018 -75 0 0
202 1 3 31.1018 -72 0 0
203 1 3 31.1018 -69 0 0
204 1 3 31.1018 -66 0 0
205 1 3 31.1018 -63 0 0
206 1 3 31.1018 -60 0 0
207 1 3 31.1018 -57 0 0
208 1 3 31.1018 -54 0 0
209 1 3 31.1018 -51 0 0
210 1 3 31.1018 -48 0 0
211 1 3 31.1018 -45 0 0
212 1 3 31.1018 -42 0 0
213 1 3 31.1018 -39 0 0
214 1 3 31.1018 -36 0 0
215 1 3 31.1018 -33 0 0
216 1 3 31.1018 -30 0 0
217 1 3 31.1018 -27 0 0
218 1 3 31.1018 -24 0 0
219 1 3 31.1018 -21 0 0
220 1 3 31.1018 -18 0 0
221 1 3 31.1018 -15 0 0
222 1 3 31.1018 -12 0 0
223 1 3 31.1018 -9 0 0
224 1 3 31.1018 -6 0 0
225 1 3 31.1018 -3 0 0
489 2 3 31.1018 -336 0 2.99937136090753187
490 2 3 31.1018 -333 0 2.99937136090753187
491 2 3 31.1018 -330 0 2.99937136090753187
492 2 3 31.1018 -327 0 2.99937136090753187
493 2 3 31.1018 -324 0 2.99937136090753187
494 2 3 31.1018 -321 0 2.99937136090753187
495 2 3 31.1018 -318 0 2.99937136090753187
496 2 3 31.1018 -315 0 2.99937136090753187
497 2 3 31.1018 -312 0 2.99937136090753187
498 2 3 31.1018 -309 0 2.99937136090753187
499 2 3 31.1018 -306 0 2.99937136090753187
500 2 3 31.1018 -303 0 2.99937136090753187
501 2 3 31.1018 -300 0 2.99937136090753187
502 2 3 31.1018 -297 0 2.99937136090753187
503 2 3 31.1018 -294 0 2.99937136090753187
504 2 3 31.1018 -291 0 2.99937136090753187
505 2 3 31.1018 -288 0 2.99937136090753187
506 2 3 31.1018 -285 0 2.99937136090753187
507 2 3 31.1018 -282 0 2.99937136090753187
508 2 3 31.1018 -279 0 2.99937136090753187
509 2 3 31.1018 -276 0 2.99937136090753187
510 2 3 31.1018 -273 0 2.99937136090753187
511 2 3 31.1018 -270 0 2.99937136090753187
512 2 3 31.1018 -267 0 2.99937136090753187
513 2 3 31.1018 -264 0 2.99937136090753187
514 2 3 31.1018 -261 0 2.99937136090753187
515 2 3 31.1018 -258 0 2.99937136090753187
516 2 3 31.1018 -255 0 2.99937136090753187
517 2 3 31.1018 -252 0 2.99937136090753187
518 2 3 31.1018 -249 0 2.99937136090753187
519 2 3 31.1018 -246 0 2.99937136090753187
520 2 3 31.1018 -243 0 2.99937136090753187
521 2 3 31.1018 -240 0 2.99937136090753187
522 2 3 31.1018 -237 0 2.99937136090753187
523 2 3 31.1018 -234 0 2.99937136090753187
524 2 3 31.1018 -231 0 2.99937136090753187
525 2 3 31.1018 -228 0 2.99937136090753187
526 2 3 31.1018 -225 0 2.99937136090753187
527 2 3 31.1018 -222 0 2.99937136090753187
528 2 3 31.1018 -219 0 2.99937136090753187
529 2 3 31.1018 -216 0 2.99937136090753187
530 2 3 31.1018 -213 0 2.99937136090753187
531 2 3 31.1018 -210 0 2.99937136090753187
532 2 3 31.1018 -207 0 2.99937136090753187
533 2 3 31.1018 -204 0 2.99937136090753187
534 2 3 31.1018 -201 0 2.99937136090753187
535 2 3 31.1018 -198 0 2.99937136090753187
536 2 3 31.1018 -195 0 2.99937136090753187
537 2 3 31.1018 -192 0 2.99937136090753187
538 2 3 31.1018 -189 0 2.99937136090753187
539 2 3 31.1018 -186 0 2.99937136090753187
540 2 3 31.1018 -183 0 2.99937136090753187
541 2 3 31.1018 -180 0 2.99937136090753187
542 2 3 31.1018 -177 0 2.99937136090753187
543 2 3 31.1018 -174 0 2.99937136090753187
544 2 3 31.1018 -171 0 2.99937136090753187
545 2 3 31.1018 -168 0 2.99937136090753187
546 2 3 31.1018 -165 0 2.99937136090753187
547 2 3 31.1018 -162 0 2.99937136090753187
548 2 3 31.1018 -159 0 2.99937136090753187
549 2 3 31.1018 -156 0 2.99937136090753187
550 2 3 31.1018 -153 0 2.99937136090753187
551 2 3 31.1018 -150 0 2.99937136090753187
552 2 3 31.1018 -147 0 2.99937136090753187
553 2 3 31.1018 -144 0 2.99937136090753187
554 2 3 31.1018 -141 0 2.99937136090753187
555 2 3 31.1018 -138 0 2.99937136090753187
556 2 3 31.1018 -135 0 2.99937136090753187
557 2 3 31.1018 -132 0 2.99937136090753187
558 2 3 31.1018 -129 0 2.99937136090753187
559 2 3 31.1018 -126 0 2.99937136090753187
560 2 3 31.1018 -123 0 2.99937136090753187
561 2 3 31.1018 -120 0 2.99937136090753187
562 2 3 31.1018 -117 0 2.99937136090753187
563 2 3 31.1018 -114 0 2.99937136090753187
564 2 3 31.1018 -111 0 2.99937136090753187
565 2 3 31.1018 -108 0 2.99937136090753187
566 2 3 31.1018 -105 0 2.99937136090753187
567 2 3 31.1018 -102 0 2.99937136090753187
568 2 3 31.1018 -99 0 2.99937136090753187
569 2 3 31.1018 -96 0 2.99937136090753187
570 2 3 31.1018 -93 0 2.99937136090753187
571 2 3 31.1018 -90 0 2.99937136090753187
572 2 3 31.1018 -87 0 2.99937136090753187
573 2 3 31.1018 -84 0 2.99937136090753187
574 2 3 31.1018 -81 0 2.99937136090753187
575 2 3 31.1018 -78 0 2.99937136090753187
576 2 3 31.1018 -75 0 2.99937136090753187
577 2 3 31.1018 -72 0 2.99937136090753187
578 2 3 31.1018 -69 0 2.99937136090753187
579 2 3 31.1018 -66 0 2.99937136090753187
580 2 3 31.1018 -63 0 2.99937136090753187
581 2 3 31.1018 -60 0 2.99937136090753187
582 2 3 31.1018 -57 0 2.99937136090753187
583 2 3 31.1018 -54 0 2.99937136090753187
584 2 3 31.1018 -51 0 2.99937136090753187
585 2 3 31.1018 -48 0 2.99937136090753187
586 2 3 31.1018 -45 0 2.99937136090753187
587 2 3 31.1018 -42 0 2.99937136090753187
588 2 3 31.1018 -39 0 2.99937136090753187
589 2 3 31.1018 -36 0 2.99937136090753187
590 2 3 31.1018 -33 0 2.99937136090753187
591 2 3 31.1018 -30 0 2.99937136090753187
592 2 3 31.1018 -27 0 2.99937136090753187
593 2 3 31.1018 -24 0 2.99937136090753187
594 2 3 31.1018 -21 0 2.99937136090753187
595 2 3 31.1018 -18 0 2.99937136090753187
596 2 3 31.1018 -15 0 2.99937136090753187
597 2 3 31.1018 -12 0 2.99937136090753187
598 2 3 31.1018 -9 0 2.99937136090753187
599 2 3 31.1018 -6 0 2.99937136090753187
600 2 3 31.1018 -3 0 2.99937136090753187
601 2 3 31.1018 -4.21407690402474581e-19 0 2.99937136090753187
226 1 3 31.1018 0 0 0
227 1 3 31.1018 3 0 0
228 1 3 31.1018 6 0 0
229 1 3 31.1018 9 0 0
230 1 3 31.1018 12 0 0
231 1 3 31.1018 15 0 0
232 1 3 31.1018 18 0 0
233 1 3 31.1018 21 0 0
234 1 3 31.1018 24 0 0
235 1 3 31.1018 27 0 0
236 1 3 31.1018 30 0 0
237 1 3 31.1018 33 0 0
238 1 3 31.1018 36 0 0
239 1 3 31.1018 39 0 0
240 1 3 31.1018 42 0 0
241 1 3 31.1018 45 0 0
242 1 3 31.1018 48 0 0
243 1 3 31.1018 51 0 0
244 1 3 31.1018 54 0 0
245 1 3 31.1018 57 0 0
246 1 3 31.1018 60 0 0
247 1 3 31.1018 63 0 0
248 1 3 31.1018 66 0 0
249 1 3 31.1018 69 0 0
250 1 3 31.1018 72 0 0
251 1 3 31.1018 75 0 0
252 1 3 31.1018 78 0 0
253 1 3 31.1018 81 0 0
254 1 3 31.1018 84 0 0
255 1 3 31.1018 87 0 0
256 1 3 31.1018 90 0 0
257 1 3 31.1018 93 0 0
258 1 3 31.1018 96 0 0
259 1 3 31.1018 99 0 0
260 1 3 31.1018 102 0 0
261 1 3 31.1018 105 0 0
262 1 3 31.1018 108 0 0
263 1 3 31.1018 111 0 0
264 1 3 31.1018 114 0 0
265 1 3 31.1018 117 0 0
266 1 3 31.1018 120 0 0
267 1 3 31.1018 123 0 0
268 1 3 31.1018 126 0 0
269 1 3 31.1018 129 0 0
270 1 3 31.1018 132 0 0
271 1 3 31.1018 135 0 0
272 1 3 31.1018 138 0 0
273 1 3 31.1018 141 0 0
274 1 3 31.1018 144 0 0
275 1 3 31.1018 147 0 0
276 1 3 31.1018 150 0 0
277 1 3 31.1018 153 0 0
278 1 3 31.1018 156 0 0
279 1 3 31.1018 159 0 0
280 1 3 31.1018 162 0 0
281 1 3 31.1018 165 0 0
282 1 3 31.1018 168 0 0
283 1 3 31.1018 171 0 0
284 1 3 31.1018 174 0 0
285 1 3 31.1018 177 0 0
286 1 3 31.1018 180 0 0
287 1 3 31.1018 183 0 0
288 1 3 31.1018 186 0 0
289 1 3 31.1018 189 0 0
290 1 3 31.1018 192 0 0
291 1 3 31.1018 195 0 0
292 1 3 31.1018 198 0 0
293 1 3 31.1018 201 0 0
294 1 3 31.1018 204 0 0
295 1 3 31.1018 207 0 0
296 1 3 31.1018 210 0 0
297 1 3 31.1018 213 0 0
298 1 3 31.1018 216 0 0
299 1 3 31.1018 219 0 0
300 1 3 31.1018 222 0 0
301 1 3 31.1018 225 0 0
302 1 3 31.1018 228 0 0
303 1 3 31.1018 231 0 0
304 1 3 31.1018 234 0 0
305 1 3 31.1018 237 0 0
306 1 3 31.1018 240 0 0
307 1 3 31.1018 243 0 0
308 1 3 31.1018 246 0 0
309 1 3 31.1018 249 0 0
310 1 3 31.1018 252 0 0
311 1 3 31.1018 255 0 0
312 1 3 31.1018 258 0 0
313 1 3 31.1018 261 0 0
314 1 3 31.1018 264 0 0
315 1 3 31.1018 267 0 0
316 1 3 31.1018 270 0 0
317 1 3 31.1018 273 0 0
318 1 3 31.1018 276 0 0
319 1 3 31.1018 279 0 0
320 1 3 31.1018 282 0 0
321 1 3 31.1018 285 0 0
322 1 3 31.1018 288 0 0
323 1 3 31.1018 291 0 0
324 1 3 31.1018 294 0 0
325 1 3 31.1018 297 0 0
326 1 3 31.1018 300 0 0
327 1 3 31.1018 303 0 0
328 1 3 31.1018 306 0 0
329 1 3 31.1018 309 0 0
330 1 3 31.1018 312 0 0
331 1 3 31.1018 315 0 0
332 1 3 31.1018 318 0 0
333 1 3 31.1018 321 0 0
334 1 3 31.1018 324 0 0
335 1 3 31.1018 327 0 0
336 1 3 31.1018 330 0 0
337 1 3 31.1018 333 0 0
338 1 3 31.1018 336 0 0
602 2 3 31.1018 3 0 2.99937136090753187
603 2 3 31.1018 6 0 2.99937136090753187
604 2 3 31.1018 9 0 2.99937136090753187
605 2 3 31.1018 12 0 2.99937136090753187
606 2 3 31.1018 15 0 2.99937136090753187
607 2 3 31.1018 18 0 2.99937136090753187
608 2 3 31.1018 21 0 2.99937136090753187
609 2 3 31.1018 24 0 2.99937136090753187
610 2 3 31.1018 27 0 2.99937136090753187
611 2 3 31.1018 30 0 2.99937136090753187
612 2 3 31.1018 33 0 2.99937136090753187
613 2 3 31.1018 36 0 2.99937136090753187
614 2 3 31.1018 39 0 2.99937136090753187
615 2 3 31.1018 42 0 2.99937136090753187
616 2 3 31.1018 45 0 2.99937136090753187
617 2 3 31.1018 48 0 2.99937136090753187
618 2 3 31.1018 51 0 2.99937136090753187
619 2 3 31.1018 54 0 2.99937136090753187
620 2 3 31.1018 57 0 2.99937136090753187
621 2 3 31.1018 60 0 2.99937136090753187
622 2 3 31.1018 63 0 2.99937136090753187
623 2 3 31.1018 66 0 2.99937136090753187
624 2 3 31.1018 69 0 2.99937136090753187
625 2 3 31.1018 72 0 2.99937136090753187
626 2 3 31.1018 75 0 2.99937136090753187
627 2 3 31.1018 78 0 2.99937136090753187
628 2 3 31.1018 81 0 2.99937136090753187
629 2 3 31.1018 84 0 2.99937136090753187
630 2 3 31.1018 87 0 2.99937136090753187
631 2 3 31.1018 90 0 2.99937136090753187
632 2 3 31.1018 93 0 2.99937136090753187
633 2 3 31.1018 96 0 2.99937136090753187
634 2 3 31.1018 99 0 2.99937136090753187
635 2 3 31.1018 102 0 2.99937136090753187
636 2 3 31.1018 105 0 2.99937136090753187
637 2 3 31.1018 108 0 2.99937136090753187
638 2 3 31.1018 111 0 2.99937136090753187
639 2 3 31.1018 114 0 2.99937136090753187
640 2 3 31.1018 117 0 2.99937136090753187
641 2 3 31.1018 120 0 2.99937136090753187
642 2 3 31.1018 123 0 2.99937136090753187
643 2 3 31.1018 126 0 2.99937136090753187
644 2 3 31.1018 129 0 2.99937136090753187
645 2 3 31.1018 132 0 2.99937136090753187
646 2 3 31.1018 135 0 2.99937136090753187
647 2 3 31.1018 138 0 2.99937136090753187
648 2 3 31.1018 141 0 2.99937136090753187
649 2 3 31.1018 144 0 2.99937136090753187
650 2 3 31.1018 147 0 2.99937136090753187
651 2 3 31.1018 150 0 2.99937136090753187
652 2 3 31.1018 153 0 2.99937136090753187
653 2 3 31.1018 156 0 2.99937136090753187
654 2 3 31.1018 159 0 2.99937136090753187
655 2 3 31.1018 162 0 2.99937136090753187
656 2 3 31.1018 165 0 2.99937136090753187
657 2 3 31.1018 168 0 2.99937136090753187
658 2 3 31.1018 171 0 2.99937136090753187
659 2 3 31.1018 174 0 2.99937136090753187
660 2 3 31.1018 177 0 2.99937136090753187
661 2 3 31.1018 180 0 2.99937136090753187
662 2 3 31.1018 183 0 2.99937136090753187
663 2 3 31.1018 186 0 2.99937136090753187
664 2 3 31.1018 189 0 2.99937136090753187
665 2 3 31.1018 192 0 2.99937136090753187
666 2 3 31.1018 195 0 2.99937136090753187
667 2 3 31.1018 198 0 2.99937136090753187
668 2 3 31.1018 201 0 2.99937136090753187
669 2 3 31.1018 204 0 2.99937136090753187
670 2 3 31.1018 207 0 2.99937136090753187
671 2 3 31.1018 210 0 2.99937136090753187
672 2 3 31.1018 213 0 2.99937136090753187
673 2 3 31.1018 216 0 2.99937136090753187
674 2 3 31.1018 219 0 2.99937136090753187
675 2 3 31.1018 222 0 2.99937136090753187
676 2 3 31.1018 225 0 2.99937136090753187
677 2 3 31.1018 228 0 2.99937136090753187
678 2 3 31.1018 231 0 2.99937136090753187
679 2 3 31.1018 234 0 2.99937136090753187
680 2 3 31.1018 237 0 2.99937136090753187
681 2 3 31.1018 240 0 2.99937136090753187
682 2 3 31.1018 243 0 2.99937136090753187
683 2 3 31.1018 246 0 2.99937136090753187
684 2 3 31.1018 249 0 2.99937136090753187
685 2 3 31.1018 252 0 2.99937136090753187
686 2 3 31.1018 255 0 2.99937136090753187
687 2 3 31.1018 258 0 2.99937136090753187
688 2 3 31.1018 261 0 2.99937136090753187
689 2 3 31.1018 264 0 2.99937136090753187
690 2 3 31.1018 267 0 2.99937136090753187
691 2 3 31.1018 270 0 2.99937136090753187
692 2 3 31.1018 273 0 2.99937136090753187
693 2 3 31.1018 276 0 2.99937136090753187
694 2 3 31.1018 279 0 2.99937136090753187
695 2 3 31.1018 282 0 2.99937136090753187
696 2 3 31.1018 285 0 2.99937136090753187
697 2 3 31.1018 288 0 2.99937136090753187
698 2 3 31.1018 291 0 2.99937136090753187
699 2 3 31.1018 294 0 2.99937136090753187
700 2 3 31.1018 297 0 2.99937136090753187
701 2 3 31.1018 300 0 2.99937136090753187
702 2 3 31.1018 303 0 2.99937136090753187
703 2 3 31.1018 306 0 2.99937136090753187
704 2 3 31.1018 309 0 2.99937136090753187
705 2 3 31.1018 312 0 2.99937136090753187
706 2 3 31.1018 315 0 2.99937136090753187
707 2 3 31.1018 318 0 2.99937136090753187
708 2 3 31.1018 321 0 2.99937136090753187
709 2 3 31.1018 324 0 2.99937136090753187
710 2 3 31.1018 327 0 2.99937136090753187
711 2 3 31.1018 330 0 2.99937136090753187
712 2 3 31.1018 333 0 2.99937136090753187
713 2 3 31.1018 336 0 2.99937136090753187
339 1 3 31.1018 339 0 0
340 1 3 31.1018 342 0 0
341 1 3 31.1018 345 0 0
342 1 3 31.1018 348 0 0
343 1 3 31.1018 351 0 0
344 1 3 31.1018 354 0 0
345 1 3 31.1018 357 0 0
346 1 3 31.1018 360 0 0
347 1 3 31.1018 363 0 0
348 1 3 31.1018 366 0 0
349 1 3 31.1018 369 0 0
350 1 3 31.1018 372 0 0
351 1 3 31.1018 375 0 0
352 1 3 31.1018 378 0 0
353 1 3 31.1018 381 0 0
354 1 3 31.1018 384 0 0
355 1 3 31.1018 387 0 0
356 1 3 31.1018 390 0 0
357 1 3 31.1018 393 0 0
358 1 3 31.1018 396 0 0
359 1 3 31.1018 399 0 0
360 1 3 31.1018 402 0 0
361 1 3 31.1018 405 0 0
362 1 3 31.1018 408 0 0
363 1 3 31.1018 411 0 0
364 1 3 31.1018 414 0 0
365 1 3 31.1018 417 0 0
366 1 3 31.1018 420 0 0
367 1 3 31.1018 423 0 0
368 1 3 31.1018 426 0 0
369 1 3 31.1018 429 0 0
370 1 3 31.1018 432 0 0
371 1 3 31.1018 435 0 0
372 1 3 31.1018 438 0 0
373 1 3 31.1018 441 0 0
374 1 3 31.1018 444 0 0
375 1 3 31.1018 447 0 0
376 1 3 31.1018 450 0 0
377 1 3 31.1018 453 0 0
378 1 3 31.1018 456 0 0
379 1 3 31.1018 459 0 0
380 1 3 31.1018 462 0 0
381 1 3 31.1018 465 0 0
382 1 3 31.1018 468 0 0
383 1 3 31.1018 471 0 0
384 1 3 31.1018 474 0 0
385 1 3 31.1018 477 0 0
386 1 3 31.1018 480 0 0
387 1 3 31.1018 483 0 0
388 1 3 31.1018 486 0 0
389 1 3 31.1018 489 0 0
390 1 3 31.1018 492 0 0
391 1 3 31.1018 495 0 0
392 1 3 31.1018 498 0 0
393 1 3 31.1018 501 0 0
394 1 3 31.1018 504 0 0
395 1 3 31.1018 507 0 0
396 1 3 31.1018 510 0 0
397 1 3 31.1018 513 0 0
398 1 3 31.1018 516 0 0
399 1 3 31.1018 519 0 0
400 1 3 31.1018 522 0 0
401 1 3 31.1018 525 0 0
402 1 3 31.1018 528 0 0
403 1 3 31.1018 531 0 0
404 1 3 31.1018 534 0 0
405 1 3 31.1018 537 0 0
406 1 3 31.1018 540 0 0
407 1 3 31.1018 543 0 0
408 1 3 31.1018 546 0 0
409 1 3 31.1018 549 0 0
410 1 3 31.1018 552 0 0
411 1 3 31.1018 555 0 0
412 1 3 31.1018 558 0 0
413 1 3 31.1018 561 0 0
414 1 3 31.1018 564 0 0
415 1 3 31.1018 567 0 0
416 1 3 31.1018 570 0 0
417 1 3 31.1018 573 0 0
418 1 3 31.1018 576 0 0
419 1 3 31.1018 579 0 0
420 1 3 31.1018 582 0 0
421 1 3 31.1018 585 0 0
422 1 3 31.1018 588 0 0
423 1 3 31.1018 591 0 0
424 1 3 31.1018 594 0 0
425 1 3 31.1018 597 0 0
426 1 3 31.1018 600 0 0
427 1 3 31.1018 603 0 0
428 1 3 31.1018 606 0 0
429 1 3 31.1018 609 0 0
430 1 3 31.1018 612 0 0
431 1 3 31.1018 615 0 0
432 1 3 31.1018 618 0 0
433 1 3 31.1018 621 0 0
434 1 3 31.1018 624 0 0
435 1 3 31.1018 627 0 0
436 1 3 31.1018 630 0 0
437 1 3 31.1018 633 0 0
438 1 3 31.1018 636 0 0
439 1 3 31.1018 639 0 0
440 1 3 31.1018 642 0 0
441 1 3 31.1018 645 0 0
442 1 3 31.1018 648 0 0
443 1 3 31.1018 651 0 0
444 1 3 31.1018 654 0 0
445 1 3 31.1018 657 0 0
446 1 3 31.1018 660 0 0
447 1 3 31.1018 663 0 0
448 1 3 31.1018 666 0 0
449 1 3 31.1018 669 0 0
450 1 3 31.1018 672 0 0
714 2 3 31.1018 339 0 2.99937136090753187
715 2 3 31.1018 342 0 2.99937136090753187
716 2 3 31.1018 345 0 2.99937136090753187
717 2 3 31.1018 348 0 2.99937136090753187
718 2 3 31.1018 351 0 2.99937136090753187
719 2 3 31.1018 354 0 2.99937136090753187
720 2 3 31.1018 357 0 2.99937136090753187
721 2 3 31.1018 360 0 2.99937136090753187
722 2 3 31.1018 363 0 2.99937136090753187
723 2 3 31.1018 366 0 2.99937136090753187
724 2 3 31.1018 369 0 2.99937136090753187
725 2 3 31.1018 372 0 2.99937136090753187
726 2 3 31.1018 375 0 2.99937136090753187
727 2 3 31.1018 378 0 2.99937136090753187
728 2 3 31.1018 381 0 2.99937136090753187
729 2 3 31.1018 384 0 2.99937136090753187
730 2 3 31.1018 387 0 2.99937136090753187
731 2 3 31.1018 390 0 2.99937136090753187
732 2 3 31.1018 393 0 2.99937136090753187
733 2 3 31.1018 396 0 2.99937136090753187
734 2 3 31.1018 399 0 2.99937136090753187
735 2 3 31.1018 402 0 2.99937136090753187
736 2 3 31.1018 405 0 2.99937136090753187
737 2 3 31.1018 408 0 2.99937136090753187
738 2 3 31.1018 411 0 2.99937136090753187
739 2 3 31.1018 414 0 2.99937136090753187
740 2 3 31.1018 417 0 2.99937136090753187
741 2 3 31.1018 420 0 2.99937136090753187
742 2 3 31.1018 423 0 2.99937136090753187
743 2 3 31.1018 426 0 2.99937136090753187
744 2 3 31.1018 429 0 2.99937136090753187
745 2 3 31.1018 432 0 2.99937136090753187
746 2 3 31.1018 435 0 2.99937136090753187
747 2 3 31.1018 438 0 2.99937136090753187
748 2 3 31.1018 441 0 2.99937136090753187
749 2 3 31.1018 444 0 2.99937136090753187
750 2 3 31.1018 447 0 2.99937136090753187
751 2 3 31.1018 450 0 2.99937136090753187
