ITEM: TIMESTEP
500000
ITEM: NUMBER OF ATOMS
501
ITEM: BOX BOUNDS pp pp pp
-4.5000000000000000e+02 4.5000000000000000e+02
-1.0000000000000000e+02 1.0000000000000000e+02
-1.0000000000000000e+02 1.0000000000000000e+02
ITEM: ATOMS id type diameter mass xu yu zu
1 1 3 31.1018 -450 0 0
2 1 3 31.1018 -447 0 0
3 1 3 31.1018 -444 0 0
4 1 3 31.1018 -441 0 0
5 1 3 31.1018 -438 0 0
6 1 3 31.1018 -435 0 0
7 1 3 31.1018 -432 0 0
8 1 3 31.1018 -429 0 0
9 1 3 31.1018 -426 0 0
10 1 3 31.1018 -423 0 0
11 1 3 31.1018 -420 0 0
12 1 3 31.1018 -417 0 0
13 1 3 31.1018 -414 0 0
14 1 3 31.1018 -411 0 0
15 1 3 31.1018 -408 0 0
16 1 3 31.1018 -405 0 0
17 1 3 31.1018 -402 0 0
18 1 3 31.1018 -399 0 0
19 1 3 31.1018 -396 0 0
20 1 3 31.1018 -393 0 0
21 1 3 31.1018 -390 0 0
22 1 3 31.1018 -387 0 0
23 1 3 31.1018 -384 0 0
24 1 3 31.1018 -381 0 0
25 1 3 31.1018 -378 0 0
26 1 3 31.1018 -375 0 0
27 1 3 31.1018 -372 0 0
28 1 3 31.1018 -369 0 0
29 1 3 31.1018 -366 0 0
30 1 3 31.1018 -363 0 0
31 1 3 31.1018 -360 0 0
32 1 3 31.1018 -357 0 0
33 1 3 31.1018 -354 0 0
34 1 3 31.1018 -351 0 0
35 1 3 31.1018 -348 0 0
36 1 3 31.1018 -345 0 0
37 1 3 31.1018 -342 0 0
38 1 3 31.1018 -339 0 0
39 1 3 31.1018 -336 0 0
40 1 3 31.1018 -333 0 0
41 1 3 31.1018 -330 0 0
42 1 3 31.1018 -327 0 0
43 1 3 31.1018 -324 0 0
44 1 3 31.1018 -321 0 0
45 1 3 31.1018 -318 0 0
46 1 3 31.1018 -315 0 0
47 1 3 31.1018 -312 0 0
48 1 3 31.1018 -309 0 0
49 1 3 31.1018 -306 0 0
50 1 3 31.1018 -303 0 0
51 1 3 31.1018 -300 0 0
52 1 3 31.1018 -297 0 0
53 1 3 31.1018 -294 0 0
54 1 3 31.1018 -291 0 0
55 1 3 31.1018 -288 0 0
56 1 3 31.1018 -285 0 0
57 1 3 31.1018 -282 0 0
58 1 3 31.1018 -279 0 0
59 1 3 31.1018 -276 0 0
60 1 3 31.1018 -273 0 0
61 1 3 31.1018 -270 0 0
62 1 3 31.1018 -267 0 0
63 1 3 31.1018 -264 0 0
64 1 3 31.1018 -261 0 0
65 1 3 31.1018 -258 0 0
66 1 3 31.1018 -255 0 0
67 1 3 31.1018 -252 0 0
68 1 3 31.1018 -249 0 0
69 1 3 31.1018 -246 0 0
70 1 3 31.1018 -243 0 0
71 1 3 31.1018 -240 0 0
72 1 3 31.1018 -237 0 0
73 1 3 31.1018 -234 0 0
74 1 3 31.1018 -231 0 0
75 1 3 31.1018 -228 0 0
301 2 3 31.1018 -300 0 3.00103424754542969
302 2 3 31.1018 -297 0 3.00103424754542969
303 2 3 31.1018 -294 0 3.00103424754542969
304 2 3 31.1018 -291 0 3.00103424754542969
305 2 3 31.1018 -288 0 3.00103424754542969
306 2 3 31.1018 -285 0 3.00103424754542969
307 2 3 31.1018 -282 0 3.00103424754542969
308 2 3 31.1018 -279 0 3.00103424754542969
309 2 3 31.1018 -276 0 3.00103424754542969
310 2 3 31.1018 -273 0 3.00103424754542969
311 2 3 31.1018 -270 0 3.00103424754542969
312 2 3 31.1018 -267 0 3.00103424754542969
313 2 3 31.1018 -264 0 3.00103424754542969
314 2 3 31.1018 -261 0 3.00103424754542969
315 2 3 31.1018 -258 0 3.00103424754542969
316 2 3 31.1018 -255 0 3.00103424754542969
317 2 3 31.1018 -252 0 3.00103424754542969
318 2 3 31.1018 -249 0 3.00103424754542969
319 2 3 31.1018 -246 0 3.00103424754542969
320 2 3 31.1018 -243 0 3.00103424754542969
321 2 3 31.1018 -240 0 3.00103424754542969
322 2 3 31.1018 -237 0 3.00103424754542969
323 2 3 31.1018 -234 0 3.00103424754542969
324 2 3 31.1018 -231 0 3.00103424754542969
325 2 3 31.1018 -228 0 3.00103424754542969
76 1 3 31.1018 -225 0 0
77 1 3 31.1018 -222 0 0
78 1 3 31.1018 -219 0 0
79 1 3 31.1018 -216 0 0
80 1 3 31.1018 -213 0 0
81 1 3 31.1018 -210 0 0
82 1 3 31.1018 -207 0 0
83 1 3 31.1018 -204 0 0
84 1 3 31.1018 -201 0 0
85 1 3 31.1018 -198 0 0
86 1 3 31.1018 -195 0 0
87 1 3 31.1018 -192 0 0
88 1 3 31.1018 -189 0 0
89 1 3 31.1018 -186 0 0
90 1 3 31.1018 -183 0 0
91 1 3 31.1018 -180 0 0
92 1 3 31.1018 -177 0 0
93 1 3 31.1018 -174 0 0
94 1 3 31.1018 -171 0 0
95 1 3 31.1018 -168 0 0
96 1 3 31.1018 -165 0 0
97 1 3 31.1018 -162 0 0
98 1 3 31.1018 -159 0 0
99 1 3 31.1018 -156 0 0
100 1 3 31.1018 -153 0 0
101 1 3 31.1018 -150 0 0
102 1 3 31.1018 -147 0 0
103 1 3 31.1018 -144 0 0
104 1 3 31.1018 -141 0 0
105 1 3 31.1018 -138 0 0
106 1 3 31.1018 -135 0 0
107 1 3 31.1018 -132 0 0
108 1 3 31.1018 -129 0 0
109 1 3 31.1018 -126 0 0
110 1 3 31.1018 -123 0 0
111 1 3 31.1018 -120 0 0
112 1 3 31.1018 -117 0 0
113 1 3 31.1018 -114 0 0
114 1 3 31.1018 -111 0 0
115 1 3 31.1018 -108 0 0
116 1 3 31.1018 -105 0 0
117 1 3 31.1018 -102 0 0
118 1 3 31.1018 -99 0 0
119 1 3 31.1018 -96 0 0
120 1 3 31.1018 -93 0 0
121 1 3 31.1018 -90 0 0
122 1 3 31.1018 -87 0 0
123 1 3 31.1018 -84 0 0
124 1 3 31.1018 -81 0 0
125 1 3 31.1018 -78 0 0
126 1 3 31.1018 -75 0 0
127 1 3 31.1018 -72 0 0
128 1 3 31.1018 -69 0 0
129 1 3 31.1018 -66 0 0
130 1 3 31.1018 -63 0 0
131 1 3 31.1018 -60 0 0
132 1 3 31.1018 -57 0 0
133 1 3 31.1018 -54 0 0
134 1 3 31.1018 -51 0 0
135 1 3 31.1018 -48 0 0
136 1 3 31.1018 -45 0 0
137 1 3 31.1018 -42 0 0
138 1 3 31.1018 -39 0 0
139 1 3 31.1018 -36 0 0
140 1 3 31.1018 -33 0 0
141 1 3 31.1018 -30 0 0
142 1 3 31.1018 -27 0 0
143 1 3 31.1018 -24 0 0
144 1 3 31.1018 -21 0 0
145 1 3 31.1018 -18 0 0
146 1 3 31.1018 -15 0 0
147 1 3 31.1018 -12 0 0
148 1 3 31.1018 -9 0 0
149 1 3 31.1018 -6 0 0
150 1 3 31.1018 -3 0 0
326 2 3 31.1018 -225 0 3.00103424754542969
327 2 3 31.1018 -222 0 3.00103424754542969
328 2 3 31.1018 -219 0 3.00103424754542969
329 2 3 31.1018 -216 0 3.00103424754542969
330 2 3 31.1018 -213 0 3.00103424754542969
331 2 3 31.1018 -210 0 3.00103424754542969
332 2 3 31.1018 -207 0 3.00103424754542969
333 2 3 31.1018 -204 0 3.00103424754542969
334 2 3 31.1018 -201 0 3.00103424754542969
335 2 3 31.1018 -198 0 3.00103424754542969
336 2 3 31.1018 -195 0 3.00103424754542969
337 2 3 31.1018 -192 0 3.00103424754542969
338 2 3 31.1018 -189 0 3.00103424754542969
339 2 3 31.1018 -186 0 3.00103424754542969
340 2 3 31.1018 -183 0 3.00103424754542969
341 2 3 31.1018 -180 0 3.00103424754542969
342 2 3 31.1018 -177 0 3.00103424754542969
343 2 3 31.1018 -174 0 3.00103424754542969
344 2 3 31.1018 -171 0 3.00103424754542969
345 2 3 31.1018 -168 0 3.00103424754542969
346 2 3 31.1018 -165 0 3.00103424754542969
347 2 3 31.1018 -162 0 3.00103424754542969
348 2 3 31.1018 -159 0 3.00103424754542969
349 2 3 31.1018 -156 0 3.00103424754542969
350 2 3 31.1018 -153 0 3.00103424754542969
351 2 3 31.1018 -150 0 3.00103424754542969
352 2 3 31.1018 -147 0 3.00103424754542969
353 2 3 31.1018 -144 0 3.00103424754542969
354 2 3 31.1018 -141 0 3.00103424754542969
355 2 3 31.1018 -138 0 3.00103424754542969
356 2 3 31.1018 -135 0 3.00103424754542969
357 2 3 31.1018 -132 0 3.00103424754542969
358 2 3 31.1018 -129 0 3.00103424754542969
359 2 3 31.1018 -126 0 3.00103424754542969
360 2 3 31.1018 -123 0 3.00103424754542969
361 2 3 31.1018 -120 0 3.00103424754542969
362 2 3 31.1018 -117 0 3.00103424754542969
363 2 3 31.1018 -114 0 3.00103424754542969
364 2 3 31.1018 -111 0 3.00103424754542969
365 2 3 31.1018 -108 0 3.00103424754542969
366 2 3 31.1018 -105 0 3.00103424754542969
367 2 3 31.1018 -102 0 3.00103424754542969
368 2 3 31.1018 -99 0 3.00103424754542969
369 2 3 31.1018 -96 0 3.00103424754542969
370 2 3 31.1018 -93 0 3.00103424754542969
371 2 3 31.1018 -90 0 3.00103424754542969
372 2 3 31.1018 -87 0 3.00103424754542969
373 2 3 31.1018 -84 0 3.00103424754542969
374 2 3 31.1018 -81 0 3.00103424754542969
375 2 3 31.1018 -78 0 3.00103424754542969
376 2 3 31.1018 -75 0 3.00103424754542969
377 2 3 31.1018 -72 0 3.00103424754542969
378 2 3 31.1018 -69 0 3.00103424754542969
379 2 3 31.1018 -66 0 3.00103424754542969
380 2 3 31.1018 -63 0 3.00103424754542969
381 2 3 31.1018 -60 0 3.00103424754542969
382 2 3 31.1018 -57 0 3.00103424754542969
383 2 3 31.1018 -54 0 3.00103424754542969
384 2 3 31.1018 -51 0 3.00103424754542969
385 2 3 31.1018 -48 0 3.00103424754542969
386 2 3 31.1018 -45 0 3.00103424754542969
387 2 3 31.1018 -42 0 3.00103424754542969
388 2 3 31.1018 -39 0 3.00103424754542969
389 2 3 31.1018 -36 0 3.00103424754542969
390 2 3 31.1018 -33 0 3.00103424754542969
391 2 3 31.1018 -30 0 3.00103424754542969
392 2 3 31.1018 -27 0 3.00103424754542969
393 2 3 31.1018 -24 0 3.00103424754542969
394 2 3 31.1018 -21 0 3.00103424754542969
395 2 3 31.1018 -18 0 3.00103424754542969
396 2 3 31.1018 -15 0 3.00103424754542969
397 2 3 31.1018 -12 0 3.00103424754542969
398 2 3 31.1018 -9 0 3.00103424754542969
399 2 3 31.1018 -6 0 3.00103424754542969
400 2 3 31.1018 -3 0 3.00103424754542969
401 2 3 31.1018 -5.58635516657983385e-20 0 3.00103424754542969
151 1 3 31.1018 0 0 0
152 1 3 31.1018 3 0 0
153 1 3 31.1018 6 0 0
154 1 3 31.1018 9 0 0
155 1 3 31.1018 12 0 0
156 1 3 31.1018 15 0 0
157 1 3 31.1018 18 0 0
158 1 3 31.1018 21 0 0
159 1 3 31.1018 24 0 0
160 1 3 31.1018 27 0 0
161 1 3 31.1018 30 0 0
162 1 3 31.1018 33 0 0
163 1 3 31.1018 36 0 0
164 1 3 31.1018 39 0 0
165 1 3 31.1018 42 0 0
166 1 3 31.1018 45 0 0
167 1 3 31.1018 48 0 0
168 1 3 31.1018 51 0 0
169 1 3 31.1018 54 0 0
170 1 3 31.1018 57 0 0
171 1 3 31.1018 60 0 0
172 1 3 31.1018 63 0 0
173 1 3 31.1018 66 0 0
174 1 3 31.1018 69 0 0
175 1 3 31.1018 72 0 0
176 1 3 31.1018 75 0 0
177 1 3 31.1018 78 0 0
178 1 3 31.1018 81 0 0
179 1 3 31.1018 84 0 0
180 1 3 31.1018 87 0 0
181 1 3 31.1018 90 0 0
182 1 3 31.1018 93 0 0
183 1 3 31.1018 96 0 0
184 1 3 31.1018 99 0 0
185 1 3 31.1018 102 0 0
186 1 3 31.1018 105 0 0
187 1 3 31.1018 108 0 0
188 1 3 31.1018 111 0 0
189 1 3 31.1018 114 0 0
190 1 3 31.1018 117 0 0
191 1 3 31.1018 120 0 0
192 1 3 31.1018 123 0 0
193 1 3 31.1018 126 0 0
194 1 3 31.1018 129 0 0
195 1 3 31.1018 132 0 0
196 1 3 31.1018 135 0 0
197 1 3 31.1018 138 0 0
198 1 3 31.1018 141 0 0
199 1 3 31.1018 144 0 0
200 1 3 31.1018 147 0 0
201 1 3 31.1018 150 0 0
202 1 3 31.1018 153 0 0
203 1 3 31.1018 156 0 0
204 1 3 31.1018 159 0 0
205 1 3 31.1018 162 0 0
206 1 3 31.1018 165 0 0
207 1 3 31.1018 168 0 0
208 1 3 31.1018 171 0 0
209 1 3 31.1018 174 0 0
210 1 3 31.1018 177 0 0
211 1 3 31.1018 180 0 0
212 1 3 31.1018 183 0 0
213 1 3 31.1018 186 0 0
214 1 3 31.1018 189 0 0
215 1 3 31.1018 192 0 0
216 1 3 31.1018 195 0 0
217 1 3 31.1018 198 0 0
218 1 3 31.1018 201 0 0
219 1 3 31.1018 204 0 0
220 1 3 31.1018 207 0 0
221 1 3 31.1018 210 0 0
222 1 3 31.1018 213 0 0
223 1 3 31.1018 216 0 0
224 1 3 31.1018 219 0 0
225 1 3 31.1018 222 0 0
402 2 3 31.1018 3 0 3.00103424754542969
403 2 3 31.1018 6 0 3.00103424754542969
404 2 3 31.1018 9 0 3.00103424754542969
405 2 3 31.1018 12 0 3.00103424754542969
406 2 3 31.1018 15 0 3.00103424754542969
407 2 3 31.1018 18 0 3.00103424754542969
408 2 3 31.1018 21 0 3.00103424754542969
409 2 3 31.1018 24 0 3.00103424754542969
410 2 3 31.1018 27 0 3.00103424754542969
411 2 3 31.1018 30 0 3.00103424754542969
412 2 3 31.1018 33 0 3.00103424754542969
413 2 3 31.1018 36 0 3.00103424754542969
414 2 3 31.1018 39 0 3.00103424754542969
415 2 3 31.1018 42 0 3.00103424754542969
416 2 3 31.1018 45 0 3.00103424754542969
417 2 3 31.1018 48 0 3.00103424754542969
418 2 3 31.1018 51 0 3.00103424754542969
419 2 3 31.1018 54 0 3.00103424754542969
420 2 3 31.1018 57 0 3.00103424754542969
421 2 3 31.1018 60 0 3.00103424754542969
422 2 3 31.1018 63 0 3.00103424754542969
423 2 3 31.1018 66 0 3.00103424754542969
424 2 3 31.1018 69 0 3.00103424754542969
425 2 3 31.1018 72 0 3.00103424754542969
426 2 3 31.1018 75 0 3.00103424754542969
427 2 3 31.1018 78 0 3.00103424754542969
428 2 3 31.1018 81 0 3.00103424754542969
429 2 3 31.1018 84 0 3.00103424754542969
430 2 3 31.1018 87 0 3.00103424754542969
431 2 3 31.1018 90 0 3.00103424754542969
432 2 3 31.1018 93 0 3.00103424754542969
433 2 3 31.1018 96 0 3.00103424754542969
434 2 3 31.1018 99 0 3.00103424754542969
435 2 3 31.1018 102 0 3.00103424754542969
436 2 3 31.1018 105 0 3.00103424754542969
437 2 3 31.1018 108 0 3.00103424754542969
438 2 3 31.1018 111 0 3.00103424754542969
439 2 3 31.1018 114 0 3.00103424754542969
440 2 3 31.1018 117 0 3.00103424754542969
441 2 3 31.1018 120 0 3.00103424754542969
442 2 3 31.1018 123 0 3.00103424754542969
443 2 3 31.1018 126 0 3.00103424754542969
444 2 3 31.1018 129 0 3.00103424754542969
445 2 3 31.1018 132 0 3.00103424754542969
446 2 3 31.1018 135 0 3.00103424754542969
447 2 3 31.1018 138 0 3.00103424754542969
448 2 3 31.1018 141 0 3.00103424754542969
449 2 3 31.1018 144 0 3.00103424754542969
450 2 3 31.1018 147 0 3.00103424754542969
451 2 3 31.1018 150 0 3.00103424754542969
452 2 3 31.1018 153 0 3.00103424754542969
453 2 3 31.1018 156 0 3.00103424754542969
454 2 3 31.1018 159 0 3.00103424754542969
455 2 3 31.1018 162 0 3.00103424754542969
456 2 3 31.1018 165 0 3.00103424754542969
457 2 3 31.1018 168 0 3.00103424754542969
458 2 3 31.1018 171 0 3.00103424754542969
459 2 3 31.1018 174 0 3.00103424754542969
460 2 3 31.1018 177 0 3.00103424754542969
461 2 3 31.1018 180 0 3.00103424754542969
462 2 3 31.1018 183 0 3.00103424754542969
463 2 3 31.1018 186 0 3.00103424754542969
464 2 3 31.1018 189 0 3.00103424754542969
465 2 3 31.1018 192 0 3.00103424754542969
466 2 3 31.1018 195 0 3.00103424754542969
467 2 3 31.1018 198 0 3.00103424754542969
468 2 3 31.1018 201 0 3.00103424754542969
469 2 3 31.1018 204 0 3.00103424754542969
470 2 3 31.1018 207 0 3.00103424754542969
471 2 3 31.1018 210 0 3.00103424754542969
472 2 3 31.1018 213 0 3.00103424754542969
473 2 3 31.1018 216 0 3.00103424754542969
474 2 3 31.1018 219 0 3.00103424754542969
475 2 3 31.1018 222 0 3.00103424754542969
226 1 3 31.1018 225 0 0
227 1 3 31.1018 228 0 0
228 1 3 31.1018 231 0 0
229 1 3 31.1018 234 0 0
230 1 3 31.1018 237 0 0
231 1 3 31.1018 240 0 0
232 1 3 31.1018 243 0 0
233 1 3 31.1018 246 0 0
234 1 3 31.1018 249 0 0
235 1 3 31.1018 252 0 0
236 1 3 31.1018 255 0 0
237 1 3 31.1018 258 0 0
238 1 3 31.1018 261 0 0
239 1 3 31.1018 264 0 0
240 1 3 31.1018 267 0 0
241 1 3 31.1018 270 0 0
242 1 3 31.1018 273 0 0
243 1 3 31.1018 276 0 0
244 1 3 31.1018 279 0 0
245 1 3 31.1018 282 0 0
246 1 3 31.1018 285 0 0
247 1 3 31.1018 288 0 0
248 1 3 31.1018 291 0 0
249 1 3 31.1018 294 0 0
250 1 3 31.1018 297 0 0
251 1 3 31.1018 300 0 0
252 1 3 31.1018 303 0 0
253 1 3 31.1018 306 0 0
254 1 3 31.1018 309 0 0
255 1 3 31.1018 312 0 0
256 1 3 31.1018 315 0 0
257 1 3 31.1018 318 0 0
258 1 3 31.1018 321 0 0
259 1 3 31.1018 324 0 0
260 1 3 31.1018 327 0 0
261 1 3 31.1018 330 0 0
262 1 3 31.1018 333 0 0
263 1 3 31.1018 336 0 0
264 1 3 31.1018 339 0 0
265 1 3 31.1018 342 0 0
266 1 3 31.1018 345 0 0
267 1 3 31.1018 348 0 0
268 1 3 31.1018 351 0 0
269 1 3 31.1018 354 0 0
270 1 3 31.1018 357 0 0
271 1 3 31.1018 360 0 0
272 1 3 31.1018 363 0 0
273 1 3 31.1018 366 0 0
274 1 3 31.1018 369 0 0
275 1 3 31.1018 372 0 0
276 1 3 31.1018 375 0 0
277 1 3 31.1018 378 0 0
278 1 3 31.1018 381 0 0
279 1 3 31.1018 384 0 0
280 1 3 31.1018 387 0 0
281 1 3 31.1018 390 0 0
282 1 3 31.1018 393 0 0
283 1 3 31.1018 396 0 0
284 1 3 31.1018 399 0 0
285 1 3 31.1018 402 0 0
286 1 3 31.1018 405 0 0
287 1 3 31.1018 408 0 0
288 1 3 31.1018 411 0 0
289 1 3 31.1018 414 0 0
290 1 3 31.1018 417 0 0
291 1 3 31.1018 420 0 0
292 1 3 31.1018 423 0 0
293 1 3 31.1018 426 0 0
294 1 3 31.1018 429 0 0
295 1 3 31.1018 432 0 0
296 1 3 31.1018 435 0 0
297 1 3 31.1018 438 0 0
298 1 3 31.1018 441 0 0
299 1 3 31.1018 444 0 0
300 1 3 31.1018 447 0 0
476 2 3 31.1018 225 0 3.00103424754542969
477 2 3 31.1018 228 0 3.00103424754542969
478 2 3 31.1018 231 0 3.00103424754542969
479 2 3 31.1018 234 0 3.00103424754542969
480 2 3 31.1018 237 0 3.00103424754542969
481 2 3 31.1018 240 0 3.00103424754542969
482 2 3 31.1018 243 0 3.00103424754542969
483 2 3 31.1018 246 0 3.00103424754542969
484 2 3 31.1018 249 0 3.00103424754542969
485 2 3 31.1018 252 0 3.00103424754542969
486 2 3 31.1018 255 0 3.00103424754542969
487 2 3 31.1018 258 0 3.00103424754542969
488 2 3 31.1018 261 0 3.00103424754542969
489 2 3 31.1018 264 0 3.00103424754542969
490 2 3 31.1018 267 0 3.00103424754542969
491 2 3 31.1018 270 0 3.00103424754542969
492 2 3 31.1018 273 0 3.00103424754542969
493 2 3 31.1018 276 0 3.00103424754542969
494 2 3 31.1018 279 0 3.00103424754542969
495 2 3 31.1018 282 0 3.00103424754542969
496 2 3 31.1018 285 0 3.00103424754542969
497 2 3 31.1018 288 0 3.00103424754542969
498 2 3 31.1018 291 0 3.00103424754542969
499 2 3 31.1018 294 0 3.00103424754542969
500 2 3 31.1018 297 0 3.00103424754542969
501 2 3 31.1018 300 0 3.00103424754542969
