ITEM: TIMESTEP
1900000
ITEM: NUMBER OF ATOMS
251
ITEM: BOX BOUNDS pp pp pp
-2.2500000000000000e+02 2.2500000000000000e+02
-1.0000000000000000e+02 1.0000000000000000e+02
-1.0000000000000000e+02 1.0000000000000000e+02
ITEM: ATOMS id type diameter mass xu yu zu
1 1 3 31.1018 -225 0 0
2 1 3 31.1018 -222 0 0
3 1 3 31.1018 -219 0 0
4 1 3 31.1018 -216 0 0
5 1 3 31.1018 -213 0 0
6 1 3 31.1018 -210 0 0
7 1 3 31.1018 -207 0 0
8 1 3 31.1018 -204 0 0
9 1 3 31.1018 -201 0 0
10 1 3 31.1018 -198 0 0
11 1 3 31.1018 -195 0 0
12 1 3 31.1018 -192 0 0
13 1 3 31.1018 -189 0 0
14 1 3 31.1018 -186 0 0
15 1 3 31.1018 -183 0 0
16 1 3 31.1018 -180 0 0
17 1 3 31.1018 -177 0 0
18 1 3 31.1018 -174 0 0
19 1 3 31.1018 -171 0 0
20 1 3 31.1018 -168 0 0
21 1 3 31.1018 -165 0 0
22 1 3 31.1018 -162 0 0
23 1 3 31.1018 -159 0 0
24 1 3 31.1018 -156 0 0
25 1 3 31.1018 -153 0 0
26 1 3 31.1018 -150 0 0
27 1 3 31.1018 -147 0 0
28 1 3 31.1018 -144 0 0
29 1 3 31.1018 -141 0 0
30 1 3 31.1018 -138 0 0
31 1 3 31.1018 -135 0 0
32 1 3 31.1018 -132 0 0
33 1 3 31.1018 -129 0 0
34 1 3 31.1018 -126 0 0
35 1 3 31.1018 -123 0 0
36 1 3 31.1018 -120 0 0
37 1 3 31.1018 -117 0 0
38 1 3 31.1018 -114 0 0
151 2 3 31.1018 -150 0 2.99937136077737421
152 2 3 31.1018 -147 0 2.99937136077737421
153 2 3 31.1018 -144 0 2.99937136077737421
154 2 3 31.1018 -141 0 2.99937136077737421
155 2 3 31.1018 -138 0 2.99937136077737421
156 2 3 31.1018 -135 0 2.99937136077737421
157 2 3 31.1018 -132 0 2.99937136077737421
158 2 3 31.1018 -129 0 2.99937136077737421
159 2 3 31.1018 -126 0 2.99937136077737421
160 2 3 31.1018 -123 0 2.99937136077737421
161 2 3 31.1018 -120 0 2.99937136077737421
162 2 3 31.1018 -117 0 2.99937136077737421
163 2 3 31.1018 -114 0 2.99937136077737421
39 1 3 31.1018 -111 0 0
40 1 3 31.1018 -108 0 0
41 1 3 31.1018 -105 0 0
42 1 3 31.1018 -102 0 0
43 1 3 31.1018 -99 0 0
44 1 3 31.1018 -96 0 0
45 1 3 31.1018 -93 0 0
46 1 3 31.1018 -90 0 0
47 1 3 31.1018 -87 0 0
48 1 3 31.1018 -84 0 0
49 1 3 31.1018 -81 0 0
50 1 3 31.1018 -78 0 0
51 1 3 31.1018 -75 0 0
52 1 3 31.1018 -72 0 0
53 1 3 31.1018 -69 0 0
54 1 3 31.1018 -66 0 0
55 1 3 31.1018 -63 0 0
56 1 3 31.1018 -60 0 0
57 1 3 31.1018 -57 0 0
58 1 3 31.1018 -54 0 0
59 1 3 31.1018 -51 0 0
60 1 3 31.1018 -48 0 0
61 1 3 31.1018 -45 0 0
62 1 3 31.1018 -42 0 0
63 1 3 31.1018 -39 0 0
64 1 3 31.1018 -36 0 0
65 1 3 31.1018 -33 0 0
66 1 3 31.1018 -30 0 0
67 1 3 31.1018 -27 0 0
68 1 3 31.1018 -24 0 0
69 1 3 31.1018 -21 0 0
70 1 3 31.1018 -18 0 0
71 1 3 31.1018 -15 0 0
72 1 3 31.1018 -12 0 0
73 1 3 31.1018 -9 0 0
74 1 3 31.1018 -6 0 0
75 1 3 31.1018 -3 0 0
164 2 3 31.1018 -111 0 2.99937136077737421
165 2 3 31.1018 -108 0 2.99937136077737421
166 2 3 31.1018 -105 0 2.99937136077737421
167 2 3 31.1018 -102 0 2.99937136077737421
168 2 3 31.1018 -99 0 2.99937136077737421
169 2 3 31.1018 -96 0 2.99937136077737421
170 2 3 31.1018 -93 0 2.99937136077737421
171 2 3 31.1018 -90 0 2.99937136077737421
172 2 3 31.1018 -87 0 2.99937136077737421
173 2 3 31.1018 -84 0 2.99937136077737421
174 2 3 31.1018 -81 0 2.99937136077737421
175 2 3 31.1018 -78 0 2.99937136077737421
176 2 3 31.1018 -75 0 2.99937136077737421
177 2 3 31.1018 -72 0 2.99937136077737421
178 2 3 31.1018 -69 0 2.99937136077737421
179 2 3 31.1018 -66 0 2.99937136077737421
180 2 3 31.1018 -63 0 2.99937136077737421
181 2 3 31.1018 -60 0 2.99937136077737421
182 2 3 31.1018 -57 0 2.99937136077737421
183 2 3 31.1018 -54 0 2.99937136077737421
184 2 3 31.1018 -51 0 2.99937136077737421
185 2 3 31.1018 -48 0 2.99937136077737421
186 2 3 31.1018 -45 0 2.99937136077737421
187 2 3 31.1018 -42 0 2.99937136077737421
188 2 3 31.1018 -39 0 2.99937136077737421
189 2 3 31.1018 -36 0 2.99937136077737421
190 2 3 31.1018 -33 0 2.99937136077737421
191 2 3 31.1018 -30 0 2.99937136077737421
192 2 3 31.1018 -27 0 2.99937136077737421
193 2 3 31.1018 -24 0 2.99937136077737421
194 2 3 31.1018 -21 0 2.99937136077737421
195 2 3 31.1018 -18 0 2.99937136077737421
196 2 3 31.1018 -15 0 2.99937136077737421
197 2 3 31.1018 -12 0 2.99937136077737421
198 2 3 31.1018 -9 0 2.99937136077737421
199 2 3 31.1018 -6 0 2.99937136077737421
200 2 3 31.1018 -3 0 2.99937136077737421
201 2 3 31.1018 -1.15556242379427476e-18 0 2.99937136077737421
76 1 3 31.1018 0 0 0
77 1 3 31.1018 3 0 0
78 1 3 31.1018 6 0 0
79 1 3 31.1018 9 0 0
80 1 3 31.1018 12 0 0
81 1 3 31.1018 15 0 0
82 1 3 31.1018 18 0 0
83 1 3 31.1018 21 0 0
84 1 3 31.1018 24 0 0
85 1 3 31.1018 27 0 0
86 1 3 31.1018 30 0 0
87 1 3 31.1018 33 0 0
88 1 3 31.1018 36 0 0
89 1 3 31.1018 39 0 0
90 1 3 31.1018 42 0 0
91 1 3 31.1018 45 0 0
92 1 3 31.1018 48 0 0
93 1 3 31.1018 51 0 0
94 1 3 31.1018 54 0 0
95 1 3 31.1018 57 0 0
96 1 3 31.1018 60 0 0
97 1 3 31.1018 63 0 0
98 1 3 31.1018 66 0 0
99 1 3 31.1018 69 0 0
100 1 3 31.1018 72 0 0
101 1 3 31.1018 75 0 0
102 1 3 31.1018 78 0 0
103 1 3 31.1018 81 0 0
104 1 3 31.1018 84 0 0
105 1 3 31.1018 87 0 0
106 1 3 31.1018 90 0 0
107 1 3 31.1018 93 0 0
108 1 3 31.1018 96 0 0
109 1 3 31.1018 99 0 0
110 1 3 31.1018 102 0 0
111 1 3 31.1018 105 0 0
112 1 3 31.1018 108 0 0
113 1 3 31.1018 111 0 0
202 2 3 31.1018 3 0 2.99937136077737421
203 2 3 31.1018 6 0 2.99937136077737421
204 2 3 31.1018 9 0 2.99937136077737421
205 2 3 31.1018 12 0 2.99937136077737421
206 2 3 31.1018 15 0 2.99937136077737421
207 2 3 31.1018 18 0 2.99937136077737421
208 2 3 31.1018 21 0 2.99937136077737421
209 2 3 31.1018 24 0 2.99937136077737421
210 2 3 31.1018 27 0 2.99937136077737421
211 2 3 31.1018 30 0 2.99937136077737421
212 2 3 31.1018 33 0 2.99937136077737421
213 2 3 31.1018 36 0 2.99937136077737421
214 2 3 31.1018 39 0 2.99937136077737421
215 2 3 31.1018 42 0 2.99937136077737421
216 2 3 31.1018 45 0 2.99937136077737421
217 2 3 31.1018 48 0 2.99937136077737421
218 2 3 31.1018 51 0 2.99937136077737421
219 2 3 31.1018 54 0 2.99937136077737421
220 2 3 31.1018 57 0 2.99937136077737421
221 2 3 31.1018 60 0 2.99937136077737421
222 2 3 31.1018 63 0 2.99937136077737421
223 2 3 31.1018 66 0 2.99937136077737421
224 2 3 31.1018 69 0 2.99937136077737421
225 2 3 31.1018 72 0 2.99937136077737421
226 2 3 31.1018 75 0 2.99937136077737421
227 2 3 31.1018 78 0 2.99937136077737421
228 2 3 31.1018 81 0 2.99937136077737421
229 2 3 31.1018 84 0 2.99937136077737421
230 2 3 31.1018 87 0 2.99937136077737421
231 2 3 31.1018 90 0 2.99937136077737421
232 2 3 31.1018 93 0 2.99937136077737421
233 2 3 31.1018 96 0 2.99937136077737421
234 2 3 31.1018 99 0 2.99937136077737421
235 2 3 31.1018 102 0 2.99937136077737421
236 2 3 31.1018 105 0 2.99937136077737421
237 2 3 31.1018 108 0 2.99937136077737421
238 2 3 31.1018 111 0 2.99937136077737421
114 1 3 31.1018 114 0 0
115 1 3 31.1018 117 0 0
116 1 3 31.1018 120 0 0
117 1 3 31.1018 123 0 0
118 1 3 31.1018 126 0 0
119 1 3 31.1018 129 0 0
120 1 3 31.1018 132 0 0
121 1 3 31.1018 135 0 0
122 1 3 31.1018 138 0 0
123 1 3 31.1018 141 0 0
124 1 3 31.1018 144 0 0
125 1 3 31.1018 147 0 0
126 1 3 31.1018 150 0 0
127 1 3 31.1018 153 0 0
128 1 3 31.1018 156 0 0
129 1 3 31.1018 159 0 0
130 1 3 31.1018 162 0 0
131 1 3 31.1018 165 0 0
132 1 3 31.1018 168 0 0
133 1 3 31.1018 171 0 0
134 1 3 31.1018 174 0 0
135 1 3 31.1018 177 0 0
136 1 3 31.1018 180 0 0
137 1 3 31.1018 183 0 0
138 1 3 31.1018 186 0 0
139 1 3 31.1018 189 0 0
140 1 3 31.1018 192 0 0
141 1 3 31.1018 195 0 0
142 1 3 31.1018 198 0 0
143 1 3 31.1018 201 0 0
144 1 3 31.1018 204 0 0
145 1 3 31.1018 207 0 0
146 1 3 31.1018 210 0 0
147 1 3 31.1018 213 0 0
148 1 3 31.1018 216 0 0
149 1 3 31.1018 219 0 0
150 1 3 31.1018 222 0 0
239 2 3 31.1018 114 0 2.99937136077737421
240 2 3 31.1018 117 0 2.99937136077737421
241 2 3 31.1018 120 0 2.99937136077737421
242 2 3 31.1018 123 0 2.99937136077737421
243 2 3 31.1018 126 0 2.99937136077737421
244 2 3 31.1018 129 0 2.99937136077737421
245 2 3 31.1018 132 0 2.99937136077737421
246 2 3 31.1018 135 0 2.99937136077737421
247 2 3 31.1018 138 0 2.99937136077737421
248 2 3 31.1018 141 0 2.99937136077737421
249 2 3 31.1018 144 0 2.99937136077737421
250 2 3 31.1018 147 0 2.99937136077737421
251 2 3 31.1018 150 0 2.99937136077737421
