ITEM: TIMESTEP
1000000
ITEM: NUMBER OF ATOMS
4501
ITEM: BOX BOUNDS pp pp pp
-4.0500000000000000e+03 4.0500000000000000e+03
-1.0000000000000000e+02 1.0000000000000000e+02
-1.0000000000000000e+02 1.0000000000000000e+02
ITEM: ATOMS id type diameter mass xu yu zu
1 1 3 31.1018 -4050 0 0
2 1 3 31.1018 -4047 0 0
3 1 3 31.1018 -4044 0 0
4 1 3 31.1018 -4041 0 0
5 1 3 31.1018 -4038 0 0
6 1 3 31.1018 -4035 0 0
7 1 3 31.1018 -4032 0 0
8 1 3 31.1018 -4029 0 0
9 1 3 31.1018 -4026 0 0
10 1 3 31.1018 -4023 0 0
11 1 3 31.1018 -4020 0 0
12 1 3 31.1018 -4017 0 0
13 1 3 31.1018 -4014 0 0
14 1 3 31.1018 -4011 0 0
15 1 3 31.1018 -4008 0 0
16 1 3 31.1018 -4005 0 0
17 1 3 31.1018 -4002 0 0
18 1 3 31.1018 -3999 0 0
19 1 3 31.1018 -3996 0 0
20 1 3 31.1018 -3993 0 0
21 1 3 31.1018 -3990 0 0
22 1 3 31.1018 -3987 0 0
23 1 3 31.1018 -3984 0 0
24 1 3 31.1018 -3981 0 0
25 1 3 31.1018 -3978 0 0
26 1 3 31.1018 -3975 0 0
27 1 3 31.1018 -3972 0 0
28 1 3 31.1018 -3969 0 0
29 1 3 31.1018 -3966 0 0
30 1 3 31.1018 -3963 0 0
31 1 3 31.1018 -3960 0 0
32 1 3 31.1018 -3957 0 0
33 1 3 31.1018 -3954 0 0
34 1 3 31.1018 -3951 0 0
35 1 3 31.1018 -3948 0 0
36 1 3 31.1018 -3945 0 0
37 1 3 31.1018 -3942 0 0
38 1 3 31.1018 -3939 0 0
39 1 3 31.1018 -3936 0 0
40 1 3 31.1018 -3933 0 0
41 1 3 31.1018 -3930 0 0
42 1 3 31.1018 -3927 0 0
43 1 3 31.1018 -3924 0 0
44 1 3 31.1018 -3921 0 0
45 1 3 31.1018 -3918 0 0
46 1 3 31.1018 -3915 0 0
47 1 3 31.1018 -3912 0 0
48 1 3 31.1018 -3909 0 0
49 1 3 31.1018 -3906 0 0
50 1 3 31.1018 -3903 0 0
51 1 3 31.1018 -3900 0 0
52 1 3 31.1018 -3897 0 0
53 1 3 31.1018 -3894 0 0
54 1 3 31.1018 -3891 0 0
55 1 3 31.1018 -3888 0 0
56 1 3 31.1018 -3885 0 0
57 1 3 31.1018 -3882 0 0
58 1 3 31.1018 -3879 0 0
59 1 3 31.1018 -3876 0 0
60 1 3 31.1018 -3873 0 0
61 1 3 31.1018 -3870 0 0
62 1 3 31.1018 -3867 0 0
63 1 3 31.1018 -3864 0 0
64 1 3 31.1018 -3861 0 0
65 1 3 31.1018 -3858 0 0
66 1 3 31.1018 -3855 0 0
67 1 3 31.1018 -3852 0 0
68 1 3 31.1018 -3849 0 0
69 1 3 31.1018 -3846 0 0
70 1 3 31.1018 -3843 0 0
71 1 3 31.1018 -3840 0 0
72 1 3 31.1018 -3837 0 0
73 1 3 31.1018 -3834 0 0
74 1 3 31.1018 -3831 0 0
75 1 3 31.1018 -3828 0 0
76 1 3 31.1018 -3825 0 0
77 1 3 31.1018 -3822 0 0
78 1 3 31.1018 -3819 0 0
79 1 3 31.1018 -3816 0 0
80 1 3 31.1018 -3813 0 0
81 1 3 31.1018 -3810 0 0
82 1 3 31.1018 -3807 0 0
83 1 3 31.1018 -3804 0 0
84 1 3 31.1018 -3801 0 0
85 1 3 31.1018 -3798 0 0
86 1 3 31.1018 -3795 0 0
87 1 3 31.1018 -3792 0 0
88 1 3 31.1018 -3789 0 0
89 1 3 31.1018 -3786 0 0
90 1 3 31.1018 -3783 0 0
91 1 3 31.1018 -3780 0 0
92 1 3 31.1018 -3777 0 0
93 1 3 31.1018 -3774 0 0
94 1 3 31.1018 -3771 0 0
95 1 3 31.1018 -3768 0 0
96 1 3 31.1018 -3765 0 0
97 1 3 31.1018 -3762 0 0
98 1 3 31.1018 -3759 0 0
99 1 3 31.1018 -3756 0 0
100 1 3 31.1018 -3753 0 0
101 1 3 31.1018 -3750 0 0
102 1 3 31.1018 -3747 0 0
103 1 3 31.1018 -3744 0 0
104 1 3 31.1018 -3741 0 0
105 1 3 31.1018 -3738 0 0
106 1 3 31.1018 -3735 0 0
107 1 3 31.1018 -3732 0 0
108 1 3 31.1018 -3729 0 0
109 1 3 31.1018 -3726 0 0
110 1 3 31.1018 -3723 0 0
111 1 3 31.1018 -3720 0 0
112 1 3 31.1018 -3717 0 0
113 1 3 31.1018 -3714 0 0
114 1 3 31.1018 -3711 0 0
115 1 3 31.1018 -3708 0 0
116 1 3 31.1018 -3705 0 0
117 1 3 31.1018 -3702 0 0
118 1 3 31.1018 -3699 0 0
119 1 3 31.1018 -3696 0 0
120 1 3 31.1018 -3693 0 0
121 1 3 31.1018 -3690 0 0
122 1 3 31.1018 -3687 0 0
123 1 3 31.1018 -3684 0 0
124 1 3 31.1018 -3681 0 0
125 1 3 31.1018 -3678 0 0
126 1 3 31.1018 -3675 0 0
127 1 3 31.1018 -3672 0 0
128 1 3 31.1018 -3669 0 0
129 1 3 31.1018 -3666 0 0
130 1 3 31.1018 -3663 0 0
131 1 3 31.1018 -3660 0 0
132 1 3 31.1018 -3657 0 0
133 1 3 31.1018 -3654 0 0
134 1 3 31.1018 -3651 0 0
135 1 3 31.1018 -3648 0 0
136 1 3 31.1018 -3645 0 0
137 1 3 31.1018 -3642 0 0
138 1 3 31.1018 -3639 0 0
139 1 3 31.1018 -3636 0 0
140 1 3 31.1018 -3633 0 0
141 1 3 31.1018 -3630 0 0
142 1 3 31.1018 -3627 0 0
143 1 3 31.1018 -3624 0 0
144 1 3 31.1018 -3621 0 0
145 1 3 31.1018 -3618 0 0
146 1 3 31.1018 -3615 0 0
147 1 3 31.1018 -3612 0 0
148 1 3 31.1018 -3609 0 0
149 1 3 31.1018 -3606 0 0
150 1 3 31.1018 -3603 0 0
151 1 3 31.1018 -3600 0 0
152 1 3 31.1018 -3597 0 0
153 1 3 31.1018 -3594 0 0
154 1 3 31.1018 -3591 0 0
155 1 3 31.1018 -3588 0 0
156 1 3 31.1018 -3585 0 0
157 1 3 31.1018 -3582 0 0
158 1 3 31.1018 -3579 0 0
159 1 3 31.1018 -3576 0 0
160 1 3 31.1018 -3573 0 0
161 1 3 31.1018 -3570 0 0
162 1 3 31.1018 -3567 0 0
163 1 3 31.1018 -3564 0 0
164 1 3 31.1018 -3561 0 0
165 1 3 31.1018 -3558 0 0
166 1 3 31.1018 -3555 0 0
167 1 3 31.1018 -3552 0 0
168 1 3 31.1018 -3549 0 0
169 1 3 31.1018 -3546 0 0
170 1 3 31.1018 -3543 0 0
171 1 3 31.1018 -3540 0 0
172 1 3 31.1018 -3537 0 0
173 1 3 31.1018 -3534 0 0
174 1 3 31.1018 -3531 0 0
175 1 3 31.1018 -3528 0 0
176 1 3 31.1018 -3525 0 0
177 1 3 31.1018 -3522 0 0
178 1 3 31.1018 -3519 0 0
179 1 3 31.1018 -3516 0 0
180 1 3 31.1018 -3513 0 0
181 1 3 31.1018 -3510 0 0
182 1 3 31.1018 -3507 0 0
183 1 3 31.1018 -3504 0 0
184 1 3 31.1018 -3501 0 0
185 1 3 31.1018 -3498 0 0
186 1 3 31.1018 -3495 0 0
187 1 3 31.1018 -3492 0 0
188 1 3 31.1018 -3489 0 0
189 1 3 31.1018 -3486 0 0
190 1 3 31.1018 -3483 0 0
191 1 3 31.1018 -3480 0 0
192 1 3 31.1018 -3477 0 0
193 1 3 31.1018 -3474 0 0
194 1 3 31.1018 -3471 0 0
195 1 3 31.1018 -3468 0 0
196 1 3 31.1018 -3465 0 0
197 1 3 31.1018 -3462 0 0
198 1 3 31.1018 -3459 0 0
199 1 3 31.1018 -3456 0 0
200 1 3 31.1018 -3453 0 0
201 1 3 31.1018 -3450 0 0
202 1 3 31.1018 -3447 0 0
203 1 3 31.1018 -3444 0 0
204 1 3 31.1018 -3441 0 0
205 1 3 31.1018 -3438 0 0
206 1 3 31.1018 -3435 0 0
207 1 3 31.1018 -3432 0 0
208 1 3 31.1018 -3429 0 0
209 1 3 31.1018 -3426 0 0
210 1 3 31.1018 -3423 0 0
211 1 3 31.1018 -3420 0 0
212 1 3 31.1018 -3417 0 0
213 1 3 31.1018 -3414 0 0
214 1 3 31.1018 -3411 0 0
215 1 3 31.1018 -3408 0 0
216 1 3 31.1018 -3405 0 0
217 1 3 31.1018 -3402 0 0
218 1 3 31.1018 -3399 0 0
219 1 3 31.1018 -3396 0 0
220 1 3 31.1018 -3393 0 0
221 1 3 31.1018 -3390 0 0
222 1 3 31.1018 -3387 0 0
223 1 3 31.1018 -3384 0 0
224 1 3 31.1018 -3381 0 0
225 1 3 31.1018 -3378 0 0
226 1 3 31.1018 -3375 0 0
227 1 3 31.1018 -3372 0 0
228 1 3 31.1018 -3369 0 0
229 1 3 31.1018 -3366 0 0
230 1 3 31.1018 -3363 0 0
231 1 3 31.1018 -3360 0 0
232 1 3 31.1018 -3357 0 0
233 1 3 31.1018 -3354 0 0
234 1 3 31.1018 -3351 0 0
235 1 3 31.1018 -3348 0 0
236 1 3 31.1018 -3345 0 0
237 1 3 31.1018 -3342 0 0
238 1 3 31.1018 -3339 0 0
239 1 3 31.1018 -3336 0 0
240 1 3 31.1018 -3333 0 0
241 1 3 31.1018 -3330 0 0
242 1 3 31.1018 -3327 0 0
243 1 3 31.1018 -3324 0 0
244 1 3 31.1018 -3321 0 0
245 1 3 31.1018 -3318 0 0
246 1 3 31.1018 -3315 0 0
247 1 3 31.1018 -3312 0 0
248 1 3 31.1018 -3309 0 0
249 1 3 31.1018 -3306 0 0
250 1 3 31.1018 -3303 0 0
251 1 3 31.1018 -3300 0 0
252 1 3 31.1018 -3297 0 0
253 1 3 31.1018 -3294 0 0
254 1 3 31.1018 -3291 0 0
255 1 3 31.1018 -3288 0 0
256 1 3 31.1018 -3285 0 0
257 1 3 31.1018 -3282 0 0
258 1 3 31.1018 -3279 0 0
259 1 3 31.1018 -3276 0 0
260 1 3 31.1018 -3273 0 0
261 1 3 31.1018 -3270 0 0
262 1 3 31.1018 -3267 0 0
263 1 3 31.1018 -3264 0 0
264 1 3 31.1018 -3261 0 0
265 1 3 31.1018 -3258 0 0
266 1 3 31.1018 -3255 0 0
267 1 3 31.1018 -3252 0 0
268 1 3 31.1018 -3249 0 0
269 1 3 31.1018 -3246 0 0
270 1 3 31.1018 -3243 0 0
271 1 3 31.1018 -3240 0 0
272 1 3 31.1018 -3237 0 0
273 1 3 31.1018 -3234 0 0
274 1 3 31.1018 -3231 0 0
275 1 3 31.1018 -3228 0 0
276 1 3 31.1018 -3225 0 0
277 1 3 31.1018 -3222 0 0
278 1 3 31.1018 -3219 0 0
279 1 3 31.1018 -3216 0 0
280 1 3 31.1018 -3213 0 0
281 1 3 31.1018 -3210 0 0
282 1 3 31.1018 -3207 0 0
283 1 3 31.1018 -3204 0 0
284 1 3 31.1018 -3201 0 0
285 1 3 31.1018 -3198 0 0
286 1 3 31.1018 -3195 0 0
287 1 3 31.1018 -3192 0 0
288 1 3 31.1018 -3189 0 0
289 1 3 31.1018 -3186 0 0
290 1 3 31.1018 -3183 0 0
291 1 3 31.1018 -3180 0 0
292 1 3 31.1018 -3177 0 0
293 1 3 31.1018 -3174 0 0
294 1 3 31.1018 -3171 0 0
295 1 3 31.1018 -3168 0 0
296 1 3 31.1018 -3165 0 0
297 1 3 31.1018 -3162 0 0
298 1 3 31.1018 -3159 0 0
299 1 3 31.1018 -3156 0 0
300 1 3 31.1018 -3153 0 0
301 1 3 31.1018 -3150 0 0
302 1 3 31.1018 -3147 0 0
303 1 3 31.1018 -3144 0 0
304 1 3 31.1018 -3141 0 0
305 1 3 31.1018 -3138 0 0
306 1 3 31.1018 -3135 0 0
307 1 3 31.1018 -3132 0 0
308 1 3 31.1018 -3129 0 0
309 1 3 31.1018 -3126 0 0
310 1 3 31.1018 -3123 0 0
311 1 3 31.1018 -3120 0 0
312 1 3 31.1018 -3117 0 0
313 1 3 31.1018 -3114 0 0
314 1 3 31.1018 -3111 0 0
315 1 3 31.1018 -3108 0 0
316 1 3 31.1018 -3105 0 0
317 1 3 31.1018 -3102 0 0
318 1 3 31.1018 -3099 0 0
319 1 3 31.1018 -3096 0 0
320 1 3 31.1018 -3093 0 0
321 1 3 31.1018 -3090 0 0
322 1 3 31.1018 -3087 0 0
323 1 3 31.1018 -3084 0 0
324 1 3 31.1018 -3081 0 0
325 1 3 31.1018 -3078 0 0
326 1 3 31.1018 -3075 0 0
327 1 3 31.1018 -3072 0 0
328 1 3 31.1018 -3069 0 0
329 1 3 31.1018 -3066 0 0
330 1 3 31.1018 -3063 0 0
331 1 3 31.1018 -3060 0 0
332 1 3 31.1018 -3057 0 0
333 1 3 31.1018 -3054 0 0
334 1 3 31.1018 -3051 0 0
335 1 3 31.1018 -3048 0 0
336 1 3 31.1018 -3045 0 0
337 1 3 31.1018 -3042 0 0
338 1 3 31.1018 -3039 0 0
339 1 3 31.1018 -3036 0 0
340 1 3 31.1018 -3033 0 0
341 1 3 31.1018 -3030 0 0
342 1 3 31.1018 -3027 0 0
343 1 3 31.1018 -3024 0 0
344 1 3 31.1018 -3021 0 0
345 1 3 31.1018 -3018 0 0
346 1 3 31.1018 -3015 0 0
347 1 3 31.1018 -3012 0 0
348 1 3 31.1018 -3009 0 0
349 1 3 31.1018 -3006 0 0
350 1 3 31.1018 -3003 0 0
351 1 3 31.1018 -3000 0 0
352 1 3 31.1018 -2997 0 0
353 1 3 31.1018 -2994 0 0
354 1 3 31.1018 -2991 0 0
355 1 3 31.1018 -2988 0 0
356 1 3 31.1018 -2985 0 0
357 1 3 31.1018 -2982 0 0
358 1 3 31.1018 -2979 0 0
359 1 3 31.1018 -2976 0 0
360 1 3 31.1018 -2973 0 0
361 1 3 31.1018 -2970 0 0
362 1 3 31.1018 -2967 0 0
363 1 3 31.1018 -2964 0 0
364 1 3 31.1018 -2961 0 0
365 1 3 31.1018 -2958 0 0
366 1 3 31.1018 -2955 0 0
367 1 3 31.1018 -2952 0 0
368 1 3 31.1018 -2949 0 0
369 1 3 31.1018 -2946 0 0
370 1 3 31.1018 -2943 0 0
371 1 3 31.1018 -2940 0 0
372 1 3 31.1018 -2937 0 0
373 1 3 31.1018 -2934 0 0
374 1 3 31.1018 -2931 0 0
375 1 3 31.1018 -2928 0 0
376 1 3 31.1018 -2925 0 0
377 1 3 31.1018 -2922 0 0
378 1 3 31.1018 -2919 0 0
379 1 3 31.1018 -2916 0 0
380 1 3 31.1018 -2913 0 0
381 1 3 31.1018 -2910 0 0
382 1 3 31.1018 -2907 0 0
383 1 3 31.1018 -2904 0 0
384 1 3 31.1018 -2901 0 0
385 1 3 31.1018 -2898 0 0
386 1 3 31.1018 -2895 0 0
387 1 3 31.1018 -2892 0 0
388 1 3 31.1018 -2889 0 0
389 1 3 31.1018 -2886 0 0
390 1 3 31.1018 -2883 0 0
391 1 3 31.1018 -2880 0 0
392 1 3 31.1018 -2877 0 0
393 1 3 31.1018 -2874 0 0
394 1 3 31.1018 -2871 0 0
395 1 3 31.1018 -2868 0 0
396 1 3 31.1018 -2865 0 0
397 1 3 31.1018 -2862 0 0
398 1 3 31.1018 -2859 0 0
399 1 3 31.1018 -2856 0 0
400 1 3 31.1018 -2853 0 0
401 1 3 31.1018 -2850 0 0
402 1 3 31.1018 -2847 0 0
403 1 3 31.1018 -2844 0 0
404 1 3 31.1018 -2841 0 0
405 1 3 31.1018 -2838 0 0
406 1 3 31.1018 -2835 0 0
407 1 3 31.1018 -2832 0 0
408 1 3 31.1018 -2829 0 0
409 1 3 31.1018 -2826 0 0
410 1 3 31.1018 -2823 0 0
411 1 3 31.1018 -2820 0 0
412 1 3 31.1018 -2817 0 0
413 1 3 31.1018 -2814 0 0
414 1 3 31.1018 -2811 0 0
415 1 3 31.1018 -2808 0 0
416 1 3 31.1018 -2805 0 0
417 1 3 31.1018 -2802 0 0
418 1 3 31.1018 -2799 0 0
419 1 3 31.1018 -2796 0 0
420 1 3 31.1018 -2793 0 0
421 1 3 31.1018 -2790 0 0
422 1 3 31.1018 -2787 0 0
423 1 3 31.1018 -2784 0 0
424 1 3 31.1018 -2781 0 0
425 1 3 31.1018 -2778 0 0
426 1 3 31.1018 -2775 0 0
427 1 3 31.1018 -2772 0 0
428 1 3 31.1018 -2769 0 0
429 1 3 31.1018 -2766 0 0
430 1 3 31.1018 -2763 0 0
431 1 3 31.1018 -2760 0 0
432 1 3 31.1018 -2757 0 0
433 1 3 31.1018 -2754 0 0
434 1 3 31.1018 -2751 0 0
435 1 3 31.1018 -2748 0 0
436 1 3 31.1018 -2745 0 0
437 1 3 31.1018 -2742 0 0
438 1 3 31.1018 -2739 0 0
439 1 3 31.1018 -2736 0 0
440 1 3 31.1018 -2733 0 0
441 1 3 31.1018 -2730 0 0
442 1 3 31.1018 -2727 0 0
443 1 3 31.1018 -2724 0 0
444 1 3 31.1018 -2721 0 0
445 1 3 31.1018 -2718 0 0
446 1 3 31.1018 -2715 0 0
447 1 3 31.1018 -2712 0 0
448 1 3 31.1018 -2709 0 0
449 1 3 31.1018 -2706 0 0
450 1 3 31.1018 -2703 0 0
451 1 3 31.1018 -2700 0 0
452 1 3 31.1018 -2697 0 0
453 1 3 31.1018 -2694 0 0
454 1 3 31.1018 -2691 0 0
455 1 3 31.1018 -2688 0 0
456 1 3 31.1018 -2685 0 0
457 1 3 31.1018 -2682 0 0
458 1 3 31.1018 -2679 0 0
459 1 3 31.1018 -2676 0 0
460 1 3 31.1018 -2673 0 0
461 1 3 31.1018 -2670 0 0
462 1 3 31.1018 -2667 0 0
463 1 3 31.1018 -2664 0 0
464 1 3 31.1018 -2661 0 0
465 1 3 31.1018 -2658 0 0
466 1 3 31.1018 -2655 0 0
467 1 3 31.1018 -2652 0 0
468 1 3 31.1018 -2649 0 0
469 1 3 31.1018 -2646 0 0
470 1 3 31.1018 -2643 0 0
471 1 3 31.1018 -2640 0 0
472 1 3 31.1018 -2637 0 0
473 1 3 31.1018 -2634 0 0
474 1 3 31.1018 -2631 0 0
475 1 3 31.1018 -2628 0 0
476 1 3 31.1018 -2625 0 0
477 1 3 31.1018 -2622 0 0
478 1 3 31.1018 -2619 0 0
479 1 3 31.1018 -2616 0 0
480 1 3 31.1018 -2613 0 0
481 1 3 31.1018 -2610 0 0
482 1 3 31.1018 -2607 0 0
483 1 3 31.1018 -2604 0 0
484 1 3 31.1018 -2601 0 0
485 1 3 31.1018 -2598 0 0
486 1 3 31.1018 -2595 0 0
487 1 3 31.1018 -2592 0 0
488 1 3 31.1018 -2589 0 0
489 1 3 31.1018 -2586 0 0
490 1 3 31.1018 -2583 0 0
491 1 3 31.1018 -2580 0 0
492 1 3 31.1018 -2577 0 0
493 1 3 31.1018 -2574 0 0
494 1 3 31.1018 -2571 0 0
495 1 3 31.1018 -2568 0 0
496 1 3 31.1018 -2565 0 0
497 1 3 31.1018 -2562 0 0
498 1 3 31.1018 -2559 0 0
499 1 3 31.1018 -2556 0 0
500 1 3 31.1018 -2553 0 0
501 1 3 31.1018 -2550 0 0
502 1 3 31.1018 -2547 0 0
503 1 3 31.1018 -2544 0 0
504 1 3 31.1018 -2541 0 0
505 1 3 31.1018 -2538 0 0
506 1 3 31.1018 -2535 0 0
507 1 3 31.1018 -2532 0 0
508 1 3 31.1018 -2529 0 0
509 1 3 31.1018 -2526 0 0
510 1 3 31.1018 -2523 0 0
511 1 3 31.1018 -2520 0 0
512 1 3 31.1018 -2517 0 0
513 1 3 31.1018 -2514 0 0
514 1 3 31.1018 -2511 0 0
515 1 3 31.1018 -2508 0 0
516 1 3 31.1018 -2505 0 0
517 1 3 31.1018 -2502 0 0
518 1 3 31.1018 -2499 0 0
519 1 3 31.1018 -2496 0 0
520 1 3 31.1018 -2493 0 0
521 1 3 31.1018 -2490 0 0
522 1 3 31.1018 -2487 0 0
523 1 3 31.1018 -2484 0 0
524 1 3 31.1018 -2481 0 0
525 1 3 31.1018 -2478 0 0
526 1 3 31.1018 -2475 0 0
527 1 3 31.1018 -2472 0 0
528 1 3 31.1018 -2469 0 0
529 1 3 31.1018 -2466 0 0
530 1 3 31.1018 -2463 0 0
531 1 3 31.1018 -2460 0 0
532 1 3 31.1018 -2457 0 0
533 1 3 31.1018 -2454 0 0
534 1 3 31.1018 -2451 0 0
535 1 3 31.1018 -2448 0 0
536 1 3 31.1018 -2445 0 0
537 1 3 31.1018 -2442 0 0
538 1 3 31.1018 -2439 0 0
539 1 3 31.1018 -2436 0 0
540 1 3 31.1018 -2433 0 0
541 1 3 31.1018 -2430 0 0
542 1 3 31.1018 -2427 0 0
543 1 3 31.1018 -2424 0 0
544 1 3 31.1018 -2421 0 0
545 1 3 31.1018 -2418 0 0
546 1 3 31.1018 -2415 0 0
547 1 3 31.1018 -2412 0 0
548 1 3 31.1018 -2409 0 0
549 1 3 31.1018 -2406 0 0
550 1 3 31.1018 -2403 0 0
551 1 3 31.1018 -2400 0 0
552 1 3 31.1018 -2397 0 0
553 1 3 31.1018 -2394 0 0
554 1 3 31.1018 -2391 0 0
555 1 3 31.1018 -2388 0 0
556 1 3 31.1018 -2385 0 0
557 1 3 31.1018 -2382 0 0
558 1 3 31.1018 -2379 0 0
559 1 3 31.1018 -2376 0 0
560 1 3 31.1018 -2373 0 0
561 1 3 31.1018 -2370 0 0
562 1 3 31.1018 -2367 0 0
563 1 3 31.1018 -2364 0 0
564 1 3 31.1018 -2361 0 0
565 1 3 31.1018 -2358 0 0
566 1 3 31.1018 -2355 0 0
567 1 3 31.1018 -2352 0 0
568 1 3 31.1018 -2349 0 0
569 1 3 31.1018 -2346 0 0
570 1 3 31.1018 -2343 0 0
571 1 3 31.1018 -2340 0 0
572 1 3 31.1018 -2337 0 0
573 1 3 31.1018 -2334 0 0
574 1 3 31.1018 -2331 0 0
575 1 3 31.1018 -2328 0 0
576 1 3 31.1018 -2325 0 0
577 1 3 31.1018 -2322 0 0
578 1 3 31.1018 -2319 0 0
579 1 3 31.1018 -2316 0 0
580 1 3 31.1018 -2313 0 0
581 1 3 31.1018 -2310 0 0
582 1 3 31.1018 -2307 0 0
583 1 3 31.1018 -2304 0 0
584 1 3 31.1018 -2301 0 0
585 1 3 31.1018 -2298 0 0
586 1 3 31.1018 -2295 0 0
587 1 3 31.1018 -2292 0 0
588 1 3 31.1018 -2289 0 0
589 1 3 31.1018 -2286 0 0
590 1 3 31.1018 -2283 0 0
591 1 3 31.1018 -2280 0 0
592 1 3 31.1018 -2277 0 0
593 1 3 31.1018 -2274 0 0
594 1 3 31.1018 -2271 0 0
595 1 3 31.1018 -2268 0 0
596 1 3 31.1018 -2265 0 0
597 1 3 31.1018 -2262 0 0
598 1 3 31.1018 -2259 0 0
599 1 3 31.1018 -2256 0 0
600 1 3 31.1018 -2253 0 0
601 1 3 31.1018 -2250 0 0
602 1 3 31.1018 -2247 0 0
603 1 3 31.1018 -2244 0 0
604 1 3 31.1018 -2241 0 0
605 1 3 31.1018 -2238 0 0
606 1 3 31.1018 -2235 0 0
607 1 3 31.1018 -2232 0 0
608 1 3 31.1018 -2229 0 0
609 1 3 31.1018 -2226 0 0
610 1 3 31.1018 -2223 0 0
611 1 3 31.1018 -2220 0 0
612 1 3 31.1018 -2217 0 0
613 1 3 31.1018 -2214 0 0
614 1 3 31.1018 -2211 0 0
615 1 3 31.1018 -2208 0 0
616 1 3 31.1018 -2205 0 0
617 1 3 31.1018 -2202 0 0
618 1 3 31.1018 -2199 0 0
619 1 3 31.1018 -2196 0 0
620 1 3 31.1018 -2193 0 0
621 1 3 31.1018 -2190 0 0
622 1 3 31.1018 -2187 0 0
623 1 3 31.1018 -2184 0 0
624 1 3 31.1018 -2181 0 0
625 1 3 31.1018 -2178 0 0
626 1 3 31.1018 -2175 0 0
627 1 3 31.1018 -2172 0 0
628 1 3 31.1018 -2169 0 0
629 1 3 31.1018 -2166 0 0
630 1 3 31.1018 -2163 0 0
631 1 3 31.1018 -2160 0 0
632 1 3 31.1018 -2157 0 0
633 1 3 31.1018 -2154 0 0
634 1 3 31.1018 -2151 0 0
635 1 3 31.1018 -2148 0 0
636 1 3 31.1018 -2145 0 0
637 1 3 31.1018 -2142 0 0
638 1 3 31.1018 -2139 0 0
639 1 3 31.1018 -2136 0 0
640 1 3 31.1018 -2133 0 0
641 1 3 31.1018 -2130 0 0
642 1 3 31.1018 -2127 0 0
643 1 3 31.1018 -2124 0 0
644 1 3 31.1018 -2121 0 0
645 1 3 31.1018 -2118 0 0
646 1 3 31.1018 -2115 0 0
647 1 3 31.1018 -2112 0 0
648 1 3 31.1018 -2109 0 0
649 1 3 31.1018 -2106 0 0
650 1 3 31.1018 -2103 0 0
651 1 3 31.1018 -2100 0 0
652 1 3 31.1018 -2097 0 0
653 1 3 31.1018 -2094 0 0
654 1 3 31.1018 -2091 0 0
655 1 3 31.1018 -2088 0 0
656 1 3 31.1018 -2085 0 0
657 1 3 31.1018 -2082 0 0
658 1 3 31.1018 -2079 0 0
659 1 3 31.1018 -2076 0 0
660 1 3 31.1018 -2073 0 0
661 1 3 31.1018 -2070 0 0
662 1 3 31.1018 -2067 0 0
663 1 3 31.1018 -2064 0 0
664 1 3 31.1018 -2061 0 0
665 1 3 31.1018 -2058 0 0
666 1 3 31.1018 -2055 0 0
667 1 3 31.1018 -2052 0 0
668 1 3 31.1018 -2049 0 0
669 1 3 31.1018 -2046 0 0
670 1 3 31.1018 -2043 0 0
671 1 3 31.1018 -2040 0 0
672 1 3 31.1018 -2037 0 0
673 1 3 31.1018 -2034 0 0
674 1 3 31.1018 -2031 0 0
675 1 3 31.1018 -2028 0 0
2701 2 3 31.1018 -2700 0 2.9993704163725905
2702 2 3 31.1018 -2697 0 2.9993704163725905
2703 2 3 31.1018 -2694 0 2.9993704163725905
2704 2 3 31.1018 -2691 0 2.9993704163725905
2705 2 3 31.1018 -2688 0 2.9993704163725905
2706 2 3 31.1018 -2685 0 2.9993704163725905
2707 2 3 31.1018 -2682 0 2.9993704163725905
2708 2 3 31.1018 -2679 0 2.9993704163725905
2709 2 3 31.1018 -2676 0 2.9993704163725905
2710 2 3 31.1018 -2673 0 2.9993704163725905
2711 2 3 31.1018 -2670 0 2.9993704163725905
2712 2 3 31.1018 -2667 0 2.9993704163725905
2713 2 3 31.1018 -2664 0 2.9993704163725905
2714 2 3 31.1018 -2661 0 2.9993704163725905
2715 2 3 31.1018 -2658 0 2.9993704163725905
2716 2 3 31.1018 -2655 0 2.9993704163725905
2717 2 3 31.1018 -2652 0 2.9993704163725905
2718 2 3 31.1018 -2649 0 2.9993704163725905
2719 2 3 31.1018 -2646 0 2.9993704163725905
2720 2 3 31.1018 -2643 0 2.9993704163725905
2721 2 3 31.1018 -2640 0 2.9993704163725905
2722 2 3 31.1018 -2637 0 2.9993704163725905
2723 2 3 31.1018 -2634 0 2.9993704163725905
2724 2 3 31.1018 -2631 0 2.9993704163725905
2725 2 3 31.1018 -2628 0 2.9993704163725905
2726 2 3 31.1018 -2625 0 2.9993704163725905
2727 2 3 31.1018 -2622 0 2.9993704163725905
2728 2 3 31.1018 -2619 0 2.9993704163725905
2729 2 3 31.1018 -2616 0 2.9993704163725905
2730 2 3 31.1018 -2613 0 2.9993704163725905
2731 2 3 31.1018 -2610 0 2.9993704163725905
2732 2 3 31.1018 -2607 0 2.9993704163725905
2733 2 3 31.1018 -2604 0 2.9993704163725905
2734 2 3 31.1018 -2601 0 2.9993704163725905
2735 2 3 31.1018 -2598 0 2.9993704163725905
2736 2 3 31.1018 -2595 0 2.9993704163725905
2737 2 3 31.1018 -2592 0 2.9993704163725905
2738 2 3 31.1018 -2589 0 2.9993704163725905
2739 2 3 31.1018 -2586 0 2.9993704163725905
2740 2 3 31.1018 -2583 0 2.9993704163725905
2741 2 3 31.1018 -2580 0 2.9993704163725905
2742 2 3 31.1018 -2577 0 2.9993704163725905
2743 2 3 31.1018 -2574 0 2.9993704163725905
2744 2 3 31.1018 -2571 0 2.9993704163725905
2745 2 3 31.1018 -2568 0 2.9993704163725905
2746 2 3 31.1018 -2565 0 2.9993704163725905
2747 2 3 31.1018 -2562 0 2.9993704163725905
2748 2 3 31.1018 -2559 0 2.9993704163725905
2749 2 3 31.1018 -2556 0 2.9993704163725905
2750 2 3 31.1018 -2553 0 2.9993704163725905
2751 2 3 31.1018 -2550 0 2.9993704163725905
2752 2 3 31.1018 -2547 0 2.9993704163725905
2753 2 3 31.1018 -2544 0 2.9993704163725905
2754 2 3 31.1018 -2541 0 2.9993704163725905
2755 2 3 31.1018 -2538 0 2.9993704163725905
2756 2 3 31.1018 -2535 0 2.9993704163725905
2757 2 3 31.1018 -2532 0 2.9993704163725905
2758 2 3 31.1018 -2529 0 2.9993704163725905
2759 2 3 31.1018 -2526 0 2.9993704163725905
2760 2 3 31.1018 -2523 0 2.9993704163725905
2761 2 3 31.1018 -2520 0 2.9993704163725905
2762 2 3 31.1018 -2517 0 2.9993704163725905
2763 2 3 31.1018 -2514 0 2.9993704163725905
2764 2 3 31.1018 -2511 0 2.9993704163725905
2765 2 3 31.1018 -2508 0 2.9993704163725905
2766 2 3 31.1018 -2505 0 2.9993704163725905
2767 2 3 31.1018 -2502 0 2.9993704163725905
2768 2 3 31.1018 -2499 0 2.9993704163725905
2769 2 3 31.1018 -2496 0 2.9993704163725905
2770 2 3 31.1018 -2493 0 2.9993704163725905
2771 2 3 31.1018 -2490 0 2.9993704163725905
2772 2 3 31.1018 -2487 0 2.9993704163725905
2773 2 3 31.1018 -2484 0 2.9993704163725905
2774 2 3 31.1018 -2481 0 2.9993704163725905
2775 2 3 31.1018 -2478 0 2.9993704163725905
2776 2 3 31.1018 -2475 0 2.9993704163725905
2777 2 3 31.1018 -2472 0 2.9993704163725905
2778 2 3 31.1018 -2469 0 2.9993704163725905
2779 2 3 31.1018 -2466 0 2.9993704163725905
2780 2 3 31.1018 -2463 0 2.9993704163725905
2781 2 3 31.1018 -2460 0 2.9993704163725905
2782 2 3 31.1018 -2457 0 2.9993704163725905
2783 2 3 31.1018 -2454 0 2.9993704163725905
2784 2 3 31.1018 -2451 0 2.9993704163725905
2785 2 3 31.1018 -2448 0 2.9993704163725905
2786 2 3 31.1018 -2445 0 2.9993704163725905
2787 2 3 31.1018 -2442 0 2.9993704163725905
2788 2 3 31.1018 -2439 0 2.9993704163725905
2789 2 3 31.1018 -2436 0 2.9993704163725905
2790 2 3 31.1018 -2433 0 2.9993704163725905
2791 2 3 31.1018 -2430 0 2.9993704163725905
2792 2 3 31.1018 -2427 0 2.9993704163725905
2793 2 3 31.1018 -2424 0 2.9993704163725905
2794 2 3 31.1018 -2421 0 2.9993704163725905
2795 2 3 31.1018 -2418 0 2.9993704163725905
2796 2 3 31.1018 -2415 0 2.9993704163725905
2797 2 3 31.1018 -2412 0 2.9993704163725905
2798 2 3 31.1018 -2409 0 2.9993704163725905
2799 2 3 31.1018 -2406 0 2.9993704163725905
2800 2 3 31.1018 -2403 0 2.9993704163725905
2801 2 3 31.1018 -2400 0 2.9993704163725905
2802 2 3 31.1018 -2397 0 2.9993704163725905
2803 2 3 31.1018 -2394 0 2.9993704163725905
2804 2 3 31.1018 -2391 0 2.9993704163725905
2805 2 3 31.1018 -2388 0 2.9993704163725905
2806 2 3 31.1018 -2385 0 2.9993704163725905
2807 2 3 31.1018 -2382 0 2.9993704163725905
2808 2 3 31.1018 -2379 0 2.9993704163725905
2809 2 3 31.1018 -2376 0 2.9993704163725905
2810 2 3 31.1018 -2373 0 2.9993704163725905
2811 2 3 31.1018 -2370 0 2.9993704163725905
2812 2 3 31.1018 -2367 0 2.9993704163725905
2813 2 3 31.1018 -2364 0 2.9993704163725905
2814 2 3 31.1018 -2361 0 2.9993704163725905
2815 2 3 31.1018 -2358 0 2.9993704163725905
2816 2 3 31.1018 -2355 0 2.9993704163725905
2817 2 3 31.1018 -2352 0 2.9993704163725905
2818 2 3 31.1018 -2349 0 2.9993704163725905
2819 2 3 31.1018 -2346 0 2.9993704163725905
2820 2 3 31.1018 -2343 0 2.9993704163725905
2821 2 3 31.1018 -2340 0 2.9993704163725905
2822 2 3 31.1018 -2337 0 2.9993704163725905
2823 2 3 31.1018 -2334 0 2.9993704163725905
2824 2 3 31.1018 -2331 0 2.9993704163725905
2825 2 3 31.1018 -2328 0 2.9993704163725905
2826 2 3 31.1018 -2325 0 2.9993704163725905
2827 2 3 31.1018 -2322 0 2.9993704163725905
2828 2 3 31.1018 -2319 0 2.9993704163725905
2829 2 3 31.1018 -2316 0 2.9993704163725905
2830 2 3 31.1018 -2313 0 2.9993704163725905
2831 2 3 31.1018 -2310 0 2.9993704163725905
2832 2 3 31.1018 -2307 0 2.9993704163725905
2833 2 3 31.1018 -2304 0 2.9993704163725905
2834 2 3 31.1018 -2301 0 2.9993704163725905
2835 2 3 31.1018 -2298 0 2.9993704163725905
2836 2 3 31.1018 -2295 0 2.9993704163725905
2837 2 3 31.1018 -2292 0 2.9993704163725905
2838 2 3 31.1018 -2289 0 2.9993704163725905
2839 2 3 31.1018 -2286 0 2.9993704163725905
2840 2 3 31.1018 -2283 0 2.9993704163725905
2841 2 3 31.1018 -2280 0 2.9993704163725905
2842 2 3 31.1018 -2277 0 2.9993704163725905
2843 2 3 31.1018 -2274 0 2.9993704163725905
2844 2 3 31.1018 -2271 0 2.9993704163725905
2845 2 3 31.1018 -2268 0 2.9993704163725905
2846 2 3 31.1018 -2265 0 2.9993704163725905
2847 2 3 31.1018 -2262 0 2.9993704163725905
2848 2 3 31.1018 -2259 0 2.9993704163725905
2849 2 3 31.1018 -2256 0 2.9993704163725905
2850 2 3 31.1018 -2253 0 2.9993704163725905
2851 2 3 31.1018 -2250 0 2.9993704163725905
2852 2 3 31.1018 -2247 0 2.9993704163725905
2853 2 3 31.1018 -2244 0 2.9993704163725905
2854 2 3 31.1018 -2241 0 2.9993704163725905
2855 2 3 31.1018 -2238 0 2.9993704163725905
2856 2 3 31.1018 -2235 0 2.9993704163725905
2857 2 3 31.1018 -2232 0 2.9993704163725905
2858 2 3 31.1018 -2229 0 2.9993704163725905
2859 2 3 31.1018 -2226 0 2.9993704163725905
2860 2 3 31.1018 -2223 0 2.9993704163725905
2861 2 3 31.1018 -2220 0 2.9993704163725905
2862 2 3 31.1018 -2217 0 2.9993704163725905
2863 2 3 31.1018 -2214 0 2.9993704163725905
2864 2 3 31.1018 -2211 0 2.9993704163725905
2865 2 3 31.1018 -2208 0 2.9993704163725905
2866 2 3 31.1018 -2205 0 2.9993704163725905
2867 2 3 31.1018 -2202 0 2.9993704163725905
2868 2 3 31.1018 -2199 0 2.9993704163725905
2869 2 3 31.1018 -2196 0 2.9993704163725905
2870 2 3 31.1018 -2193 0 2.9993704163725905
2871 2 3 31.1018 -2190 0 2.9993704163725905
2872 2 3 31.1018 -2187 0 2.9993704163725905
2873 2 3 31.1018 -2184 0 2.9993704163725905
2874 2 3 31.1018 -2181 0 2.9993704163725905
2875 2 3 31.1018 -2178 0 2.9993704163725905
2876 2 3 31.1018 -2175 0 2.9993704163725905
2877 2 3 31.1018 -2172 0 2.9993704163725905
2878 2 3 31.1018 -2169 0 2.9993704163725905
2879 2 3 31.1018 -2166 0 2.9993704163725905
2880 2 3 31.1018 -2163 0 2.9993704163725905
2881 2 3 31.1018 -2160 0 2.9993704163725905
2882 2 3 31.1018 -2157 0 2.9993704163725905
2883 2 3 31.1018 -2154 0 2.9993704163725905
2884 2 3 31.1018 -2151 0 2.9993704163725905
2885 2 3 31.1018 -2148 0 2.9993704163725905
2886 2 3 31.1018 -2145 0 2.9993704163725905
2887 2 3 31.1018 -2142 0 2.9993704163725905
2888 2 3 31.1018 -2139 0 2.9993704163725905
2889 2 3 31.1018 -2136 0 2.9993704163725905
2890 2 3 31.1018 -2133 0 2.9993704163725905
2891 2 3 31.1018 -2130 0 2.9993704163725905
2892 2 3 31.1018 -2127 0 2.9993704163725905
2893 2 3 31.1018 -2124 0 2.9993704163725905
2894 2 3 31.1018 -2121 0 2.9993704163725905
2895 2 3 31.1018 -2118 0 2.9993704163725905
2896 2 3 31.1018 -2115 0 2.9993704163725905
2897 2 3 31.1018 -2112 0 2.9993704163725905
2898 2 3 31.1018 -2109 0 2.9993704163725905
2899 2 3 31.1018 -2106 0 2.9993704163725905
2900 2 3 31.1018 -2103 0 2.9993704163725905
2901 2 3 31.1018 -2100 0 2.9993704163725905
2902 2 3 31.1018 -2097 0 2.9993704163725905
2903 2 3 31.1018 -2094 0 2.9993704163725905
2904 2 3 31.1018 -2091 0 2.9993704163725905
2905 2 3 31.1018 -2088 0 2.9993704163725905
2906 2 3 31.1018 -2085 0 2.9993704163725905
2907 2 3 31.1018 -2082 0 2.9993704163725905
2908 2 3 31.1018 -2079 0 2.9993704163725905
2909 2 3 31.1018 -2076 0 2.9993704163725905
2910 2 3 31.1018 -2073 0 2.9993704163725905
2911 2 3 31.1018 -2070 0 2.9993704163725905
2912 2 3 31.1018 -2067 0 2.9993704163725905
2913 2 3 31.1018 -2064 0 2.9993704163725905
2914 2 3 31.1018 -2061 0 2.9993704163725905
2915 2 3 31.1018 -2058 0 2.9993704163725905
2916 2 3 31.1018 -2055 0 2.9993704163725905
2917 2 3 31.1018 -2052 0 2.9993704163725905
2918 2 3 31.1018 -2049 0 2.9993704163725905
2919 2 3 31.1018 -2046 0 2.9993704163725905
2920 2 3 31.1018 -2043 0 2.9993704163725905
2921 2 3 31.1018 -2040 0 2.9993704163725905
2922 2 3 31.1018 -2037 0 2.9993704163725905
2923 2 3 31.1018 -2034 0 2.9993704163725905
2924 2 3 31.1018 -2031 0 2.9993704163725905
2925 2 3 31.1018 -2028 0 2.9993704163725905
676 1 3 31.1018 -2025 0 0
677 1 3 31.1018 -2022 0 0
678 1 3 31.1018 -2019 0 0
679 1 3 31.1018 -2016 0 0
680 1 3 31.1018 -2013 0 0
681 1 3 31.1018 -2010 0 0
682 1 3 31.1018 -2007 0 0
683 1 3 31.1018 -2004 0 0
684 1 3 31.1018 -2001 0 0
685 1 3 31.1018 -1998 0 0
686 1 3 31.1018 -1995 0 0
687 1 3 31.1018 -1992 0 0
688 1 3 31.1018 -1989 0 0
689 1 3 31.1018 -1986 0 0
690 1 3 31.1018 -1983 0 0
691 1 3 31.1018 -1980 0 0
692 1 3 31.1018 -1977 0 0
693 1 3 31.1018 -1974 0 0
694 1 3 31.1018 -1971 0 0
695 1 3 31.1018 -1968 0 0
696 1 3 31.1018 -1965 0 0
697 1 3 31.1018 -1962 0 0
698 1 3 31.1018 -1959 0 0
699 1 3 31.1018 -1956 0 0
700 1 3 31.1018 -1953 0 0
701 1 3 31.1018 -1950 0 0
702 1 3 31.1018 -1947 0 0
703 1 3 31.1018 -1944 0 0
704 1 3 31.1018 -1941 0 0
705 1 3 31.1018 -1938 0 0
706 1 3 31.1018 -1935 0 0
707 1 3 31.1018 -1932 0 0
708 1 3 31.1018 -1929 0 0
709 1 3 31.1018 -1926 0 0
710 1 3 31.1018 -1923 0 0
711 1 3 31.1018 -1920 0 0
712 1 3 31.1018 -1917 0 0
713 1 3 31.1018 -1914 0 0
714 1 3 31.1018 -1911 0 0
715 1 3 31.1018 -1908 0 0
716 1 3 31.1018 -1905 0 0
717 1 3 31.1018 -1902 0 0
718 1 3 31.1018 -1899 0 0
719 1 3 31.1018 -1896 0 0
720 1 3 31.1018 -1893 0 0
721 1 3 31.1018 -1890 0 0
722 1 3 31.1018 -1887 0 0
723 1 3 31.1018 -1884 0 0
724 1 3 31.1018 -1881 0 0
725 1 3 31.1018 -1878 0 0
726 1 3 31.1018 -1875 0 0
727 1 3 31.1018 -1872 0 0
728 1 3 31.1018 -1869 0 0
729 1 3 31.1018 -1866 0 0
730 1 3 31.1018 -1863 0 0
731 1 3 31.1018 -1860 0 0
732 1 3 31.1018 -1857 0 0
733 1 3 31.1018 -1854 0 0
734 1 3 31.1018 -1851 0 0
735 1 3 31.1018 -1848 0 0
736 1 3 31.1018 -1845 0 0
737 1 3 31.1018 -1842 0 0
738 1 3 31.1018 -1839 0 0
739 1 3 31.1018 -1836 0 0
740 1 3 31.1018 -1833 0 0
741 1 3 31.1018 -1830 0 0
742 1 3 31.1018 -1827 0 0
743 1 3 31.1018 -1824 0 0
744 1 3 31.1018 -1821 0 0
745 1 3 31.1018 -1818 0 0
746 1 3 31.1018 -1815 0 0
747 1 3 31.1018 -1812 0 0
748 1 3 31.1018 -1809 0 0
749 1 3 31.1018 -1806 0 0
750 1 3 31.1018 -1803 0 0
751 1 3 31.1018 -1800 0 0
752 1 3 31.1018 -1797 0 0
753 1 3 31.1018 -1794 0 0
754 1 3 31.1018 -1791 0 0
755 1 3 31.1018 -1788 0 0
756 1 3 31.1018 -1785 0 0
757 1 3 31.1018 -1782 0 0
758 1 3 31.1018 -1779 0 0
759 1 3 31.1018 -1776 0 0
760 1 3 31.1018 -1773 0 0
761 1 3 31.1018 -1770 0 0
762 1 3 31.1018 -1767 0 0
763 1 3 31.1018 -1764 0 0
764 1 3 31.1018 -1761 0 0
765 1 3 31.1018 -1758 0 0
766 1 3 31.1018 -1755 0 0
767 1 3 31.1018 -1752 0 0