LAMMPS (23 Jun 2022 - Update 1)
  using 1 OpenMP thread(s) per MPI task
Lattice spacing in x,y,z = 3 3 3
Created orthogonal box = (-225 -100 -100) to (225 100 100)
  4 by 1 by 1 MPI processor grid
Created 150 atoms
  using lattice units in orthogonal box = (-225 -100 -100) to (225 100 100)
  create_atoms CPU = 0.003 seconds
Lattice spacing in x,y,z = 3 3 3
Created 101 atoms
  using lattice units in orthogonal box = (-225 -100 -100) to (225 100 100)
  create_atoms CPU = 0.000 seconds
Setting atom values ...
  150 settings made for diameter
Setting atom values ...
  150 settings made for mass
Setting atom values ...
  101 settings made for diameter
Setting atom values ...
  101 settings made for mass
150 atoms in group substrate
101 atoms in group slider1
251 atoms in group substrate_slider
  1 rigid bodies with 101 atoms
Generated 0 of 1 mixed pair_coeff terms from geometric mixing rule
Neighbor list info ...
  update every 1 steps, delay 0 steps, check yes
  max neighbors/atom: 2000, page size: 100000
  master list distance cutoff = 3.1
  ghost atom cutoff = 3.1
  binsize = 1.55, bins = 291 130 130
  1 neighbor lists, perpetual/occasional/extra = 1 0 0
  (1) pair granular, perpetual
      attributes: half, newton on, size, history
      pair build: half/size/bin/newton
      stencil: half/bin/3d
      bin: standard
Setting up Verlet run ...
  Unit style    : micro
  Current step  : 0
  Time step     : 1e-05
Per MPI rank memory allocation (min/avg/max) = 18.14 | 18.14 | 18.14 Mbytes
   Step           Lx             Ly             Lz           Press           Pxx            Pyy            Pzz           KinEng         PotEng          Temp          c_1[1]         c_1[2]         c_1[3]    
         0   450            200            200            0              0              0              0              0              0              0              9.2649635e-15  0              6            
    100000   450            200            200            0.0046601063   4.3220738e-40  0              0.013980319    60969.908      0              5.8880373e+10  9.2649635e-15  0              3.3137022    
    200000   450            200            200            0.0018445601  -1.402396e-36   0              0.0055336802   17673.208      0              1.7067519e+10  9.2649635e-15  0              3.0493986    
    300000   450            200            200            0.00051929604  2.6275386e-41  0              0.0015578881   2355.4943      0              2.2747678e+09  9.2649635e-15  0              3.0331825    
    400000   450            200            200            0.0003607504   7.012463e-37   0              0.0010822512   1269.4993      0              1.2259915e+09  9.2649635e-15  0              3.0004336    
    500000   450            200            200           -0.00010720842  4.0584631e-42  0             -0.00032162527  165.14807      0              1.5948818e+08  9.2649635e-15  0              3.00086      
    600000   450            200            200            0.015167311    1.0903042e-40  0              0.045501933    3.0646024      0              2959573.7      9.2649635e-15  0              2.9987807    
    700000   450            200            200            0.0084771281  -1.402412e-36   0              0.025431384    2.1075133      0              2035285.5      9.2649635e-15  0              2.999173     
    800000   450            200            200            0.0064592284  -1.4024045e-36  0              0.019377685    0.49633512     0              479324.93      9.2649635e-15  0              2.9993099    
    900000   450            200            200            0.0060243785  -1.7530009e-37  0              0.018073136    0.016681677    0              16109.969      9.2649635e-15  0              2.9993408    
   1000000   450            200            200            0.0057702417  -4.3825453e-38  0              0.017310725    0.00037082147  0              358.11283      9.2649635e-15  0              2.9993594    
   1100000   450            200            200            0.0056565283  -8.7651211e-38  0              0.016969585    0.00090628614  0              875.22628      9.2649635e-15  0              2.9993679    
   1200000   450            200            200            0.005618018    1.7530242e-37  0              0.016854054    0.00027560274  0              266.1574       9.2649635e-15  0              2.9993707    
   1300000   450            200            200            0.005608797   -4.3825605e-38  0              0.016826391    4.2428126e-05  0              40.974047      9.2649635e-15  0              2.9993714    
   1400000   450            200            200            0.0056081184  -4.3825606e-38  0              0.016824355    3.6409933e-06  0              3.5162108      9.2649635e-15  0              2.9993715    
   1500000   450            200            200            0.0056089315   4.3825606e-38  0              0.016826794    1.1289505e-07  0              0.10902595     9.2649635e-15  0              2.9993714    
   1600000   450            200            200            0.0056095412   2.5616059e-51  0              0.016828623    1.9033126e-09  0              0.001838083    9.2649635e-15  0              2.9993714    
   1700000   450            200            200            0.0056098198   5.1944178e-51  0              0.016829459    5.3531899e-09  0              0.0051697277   9.2649635e-15  0              2.9993714    
   1800000   450            200            200            0.0056099149  -8.7651212e-38  0              0.016829745    1.6579716e-09  0              0.0016011503   9.2649635e-15  0              2.9993714    
   1900000   450            200            200            0.0056099379  -4.3825606e-38  0              0.016829814    2.5790423e-10  0              0.00024906544  9.2649635e-15  0              2.9993714    
   2000000   450            200            200            0.0056099397   9.5317869e-50  0              0.016829819    2.2391956e-11  0              2.1624549e-05  9.2649635e-15  0              2.9993714    
   2100000   450            200            200            0.0056099378   4.3825606e-38  0              0.016829813    7.1522889e-13  0              6.9071686e-07  9.2649635e-15  0              2.9993714    
   2200000   450            200            200            0.0056099363   8.7651212e-38  0              0.016829809    1.0021663e-14  0              9.6782046e-09  9.2649635e-15  0              2.9993714    
   2300000   450            200            200            0.0056099356   8.7651212e-38  0              0.016829807    3.173742e-14   0              3.0649729e-08  9.2649635e-15  0              2.9993714    
   2400000   450            200            200            0.0056099354   7.7471108e-50  0              0.016829806    1.0011154e-14  0              9.6680556e-09  9.2649635e-15  0              2.9993714    
   2500000   450            200            200            0.0056099353  -4.3825606e-38  0              0.016829806    1.5742977e-15  0              1.520344e-09   9.2649635e-15  0              2.9993714    
   2600000   450            200            200            0.0056099353   4.3825606e-38  0              0.016829806    1.4341916e-16  0              1.3850396e-10  9.2649635e-15  0              2.9993714    
   2700000   450            200            200            0.0056099353   4.3825606e-38  0              0.016829806    9.6203993e-18  0              9.2906931e-12  9.2649635e-15  0              2.9993714    
   2800000   450            200            200            0.0056099353   8.7651212e-38  0              0.016829806    1.2986252e-18  0              1.2541192e-12  9.2649635e-15  0              2.9993714    
   2900000   450            200            200            0.0056099353   4.3825606e-38  0              0.016829806    7.2703035e-19  0              7.0211387e-13  9.2649635e-15  0              2.9993714    
   3000000   450            200            200            0.0056099353   5.6763032e-50  0              0.016829806    1.5984791e-20  0              1.5436967e-14  9.2649635e-15  0              2.9993714    
Loop time of 71.2575 on 4 procs for 3000000 steps with 251 atoms

Performance: 36375136.394 ns/day, 0.000 hours/ns, 42100.852 timesteps/s
100.0% CPU use with 4 MPI tasks x 1 OpenMP threads

MPI task timing breakdown:
Section |  min time  |  avg time  |  max time  |%varavg| %total
---------------------------------------------------------------
Pair    | 7.3737     | 11.257     | 15.198     | 105.7 | 15.80
Neigh   | 0.27781    | 0.27915    | 0.2805     |   0.2 |  0.39
Comm    | 22.008     | 25.083     | 29.327     |  60.2 | 35.20
Output  | 0.072282   | 0.072341   | 0.072428   |   0.0 |  0.10
Modify  | 22.687     | 24.875     | 26.304     |  27.1 | 34.91
Other   |            | 9.691      |            |       | 13.60

Nlocal:          62.75 ave          75 max          50 min
Histogram: 2 0 0 0 0 0 0 0 0 2
Nghost:           4.25 ave           5 max           3 min
Histogram: 1 0 0 0 0 1 0 0 0 2
Neighs:          87.75 ave         113 max          62 min
Histogram: 2 0 0 0 0 0 0 0 0 2

Total # of neighbors = 351
Ave neighs/atom = 1.3984064
Neighbor list builds = 174
Dangerous builds = 0
  using 1 OpenMP thread(s) per MPI task
Lattice spacing in x,y,z = 3 3 3
Created orthogonal box = (-450 -100 -100) to (450 100 100)
  4 by 1 by 1 MPI processor grid
Created 300 atoms
  using lattice units in orthogonal box = (-450 -100 -100) to (450 100 100)
  create_atoms CPU = 0.001 seconds
Lattice spacing in x,y,z = 3 3 3
Created 201 atoms
  using lattice units in orthogonal box = (-450 -100 -100) to (450 100 100)
  create_atoms CPU = 0.000 seconds
Setting atom values ...
  300 settings made for diameter
Setting atom values ...
  300 settings made for mass
Setting atom values ...
  201 settings made for diameter
Setting atom values ...
  201 settings made for mass
300 atoms in group substrate
201 atoms in group slider1
501 atoms in group substrate_slider
  1 rigid bodies with 201 atoms
Generated 0 of 1 mixed pair_coeff terms from geometric mixing rule
Neighbor list info ...
  update every 1 steps, delay 0 steps, check yes
  max neighbors/atom: 2000, page size: 100000
  master list distance cutoff = 3.1
  ghost atom cutoff = 3.1
  binsize = 1.55, bins = 581 130 130
  1 neighbor lists, perpetual/occasional/extra = 1 0 0
  (1) pair granular, perpetual
      attributes: half, newton on, size, history
      pair build: half/size/bin/newton
      stencil: half/bin/3d
      bin: standard
Setting up Verlet run ...
  Unit style    : micro
  Current step  : 0
  Time step     : 1e-05
Per MPI rank memory allocation (min/avg/max) = 23.16 | 23.16 | 23.16 Mbytes
   Step           Lx             Ly             Lz           Press           Pxx            Pyy            Pzz           KinEng         PotEng          Temp          c_1[1]         c_1[2]         c_1[3]    
         0   900            200            200            0              0              0              0              0              0              0              0              0              6            
    100000   900            200            200            0.0046370868   1.7264363e-41  0              0.013911261    121340.04      0              5.8590764e+10  0              0              3.313619     
    200000   900            200            200            0.0018363016  -4.2072309e-36  0              0.0055089048   35198.345      0              1.6996021e+10  0              0              3.0491971    
    300000   900            200            200            0.00051881611  7.0121207e-37  0              0.0015564483   4720.6056      0              2.2794115e+09  0              0              3.0329904    
    400000   900            200            200            0.0003630677   1.7530264e-37  0              0.0010892031   2578.0786      0              1.2448619e+09  0              0              3.0001547    
    500000   900            200            200           -0.00010095891  8.765135e-38   0             -0.00030287673  292.39724      0              1.4118816e+08  0              0              3.0010342    
    600000   900            200            200            0.015385269   -8.7651097e-38  0              0.046155807    0.090509186    0              43703.647      0              0              2.998764     
    700000   900            200            200            0.0088468198  -5.259071e-37   0              0.026540459    1.1491593      0              554887.9       0              0              2.9991459    
    800000   900            200            200            0.0066331535   4.3825619e-38  0              0.01989946     0.47030356     0              227092.76      0              0              2.999295     
    900000   900            200            200            0.0060196254   3.9443046e-37  0              0.018058876    0.0019794117   0              955.78708      0              0              2.9993389    
   1000000   900            200            200            0.0057280854   1.8056442e-45  0              0.017184256    0.0058100515   0              2805.4659      0              0              2.9993604    
   1100000   900            200            200            0.0056164884   4.8440588e-46  0              0.016849465    0.0030455289   0              1470.5769      0              0              2.9993688    
   1200000   900            200            200            0.0055843829   2.1723826e-46  0              0.016753149    0.00061972874  0              299.24483      0              0              2.9993712    
   1300000   900            200            200            0.0055789514   2.8583062e-47  0              0.016736854    7.0741957e-05  0              34.158759      0              0              2.9993716    
   1400000   900            200            200            0.0055798197  -1.3695502e-39  0              0.016739459    3.9932804e-06  0              1.9282122      0              0              2.9993715    
   1500000   900            200            200            0.0055811046   2.7391004e-39  0              0.016743314    1.9131019e-08  0              0.0092376842   0              0              2.9993714    
   1600000   900            200            200            0.0055818054  -1.3695502e-39  0              0.016745416    3.2852494e-08  0              0.015863294    0              0              2.9993714    
   1700000   900            200            200            0.0055820782  -2.7391004e-39  0              0.016746235    1.7950316e-08  0              0.0086675653   0              0              2.9993714    
   1800000   900            200            200            0.0055821574   1.3695502e-39  0              0.016746472    3.7008929e-09  0              0.0017870287   0              0              2.9993714    
   1900000   900            200            200            0.0055821711   1.3695502e-39  0              0.016746513    4.2682464e-10  0              0.00020609835  0              0              2.9993714    
   2000000   900            200            200            0.0055821691   1.2565507e-53  0              0.016746507    2.4501408e-11  0              1.1830853e-05  0              0              2.9993714    
   2100000   900            200            200            0.005582166   -2.7391004e-39  0              0.016746498    1.3384971e-13  0              6.4631234e-08  0              0              2.9993714    
   2200000   900            200            200            0.0055821642  -2.7391004e-39  0              0.016746493    1.8840848e-13  0              9.0975711e-08  0              0              2.9993714    
   2300000   900            200            200            0.0055821636   1.3695502e-39  0              0.016746491    1.0620343e-13  0              5.1281834e-08  0              0              2.9993714    
   2400000   900            200            200            0.0055821634   4.0610289e-57  0              0.01674649     2.211997e-14   0              1.0680942e-08  0              0              2.9993714    
   2500000   900            200            200            0.0055821633  -8.2173011e-39  0              0.01674649     2.5806236e-15  0              1.2460908e-09  0              0              2.9993714    
   2600000   900            200            200            0.0055821634  -2.7391004e-39  0              0.01674649     1.5448406e-16  0              7.4594823e-11  0              0              2.9993714    
   2700000   900            200            200            0.0055821634   2.7391004e-39  0              0.01674649     3.1808221e-18  0              1.5359051e-12  0              0              2.9993714    
   2800000   900            200            200            0.0055821634   2.0430458e-56  0              0.01674649     5.1686923e-18  0              2.4957765e-12  0              0              2.9993714    
   2900000   900            200            200            0.0055821634   1.3695502e-39  0              0.01674649     4.4443461e-21  0              2.1460157e-15  0              0              2.9993714    
   3000000   900            200            200            0.0055821634  -1.3695502e-39  0              0.01674649     1.8263244e-19  0              8.8186668e-14  0              0              2.9993714    
Loop time of 100.093 on 4 procs for 3000000 steps with 501 atoms

Performance: 25896004.000 ns/day, 0.000 hours/ns, 29972.227 timesteps/s
100.0% CPU use with 4 MPI tasks x 1 OpenMP threads

MPI task timing breakdown:
Section |  min time  |  avg time  |  max time  |%varavg| %total
---------------------------------------------------------------
Pair    | 14.055     | 20.957     | 27.888     | 141.5 | 20.94
Neigh   | 0.53519    | 0.53883    | 0.54257    |   0.4 |  0.54
Comm    | 23.561     | 29.412     | 35.217     | 105.1 | 29.38
Output  | 0.091027   | 0.091101   | 0.091207   |   0.0 |  0.09
Modify  | 33.115     | 36.446     | 39.478     |  47.7 | 36.41
Other   |            | 12.65      |            |       | 12.64

Nlocal:         125.25 ave         151 max         100 min
Histogram: 2 0 0 0 0 0 0 0 0 2
Nghost:           5.25 ave           7 max           4 min
Histogram: 1 0 0 2 0 0 0 0 0 1
Neighs:         175.25 ave         226 max         125 min
Histogram: 2 0 0 0 0 0 0 0 0 2

Total # of neighbors = 701
Ave neighs/atom = 1.3992016
Neighbor list builds = 174
Dangerous builds = 0
  using 1 OpenMP thread(s) per MPI task
Lattice spacing in x,y,z = 3 3 3
Created orthogonal box = (-675 -100 -100) to (675 100 100)
  4 by 1 by 1 MPI processor grid
Created 450 atoms
  using lattice units in orthogonal box = (-675 -100 -100) to (675 100 100)
  create_atoms CPU = 0.001 seconds
Lattice spacing in x,y,z = 3 3 3
Created 301 atoms
  using lattice units in orthogonal box = (-675 -100 -100) to (675 100 100)
  create_atoms CPU = 0.000 seconds
Setting atom values ...
  450 settings made for diameter
Setting atom values ...
  450 settings made for mass
Setting atom values ...
  301 settings made for diameter
Setting atom values ...
  301 settings made for mass
450 atoms in group substrate
301 atoms in group slider1
751 atoms in group substrate_slider
  1 rigid bodies with 301 atoms
Generated 0 of 1 mixed pair_coeff terms from geometric mixing rule
Neighbor list info ...
  update every 1 steps, delay 0 steps, check yes
  max neighbors/atom: 2000, page size: 100000
  master list distance cutoff = 3.1
  ghost atom cutoff = 3.1
  binsize = 1.55, bins = 871 130 130
  1 neighbor lists, perpetual/occasional/extra = 1 0 0
  (1) pair granular, perpetual
      attributes: half, newton on, size, history
      pair build: half/size/bin/newton
      stencil: half/bin/3d
      bin: standard
Setting up Verlet run ...
  Unit style    : micro
  Current step  : 0
  Time step     : 1e-05
Per MPI rank memory allocation (min/avg/max) = 28.24 | 28.24 | 28.24 Mbytes
   Step           Lx             Ly             Lz           Press           Pxx            Pyy            Pzz           KinEng         PotEng          Temp          c_1[1]         c_1[2]         c_1[3]    
         0   1350           200            200            0              0              0              0              0              0              0              2.4870732e-14  0              6            
    100000   1350           200            200            0.0046294471   9.3495014e-37  0              0.013888341    181714.05      0              5.8495474e+10  2.4870732e-14  0              3.3135358    
    200000   1350           200            200            0.0018341282   5.5267072e-41  0              0.0055023846   52750.281      0              1.6980815e+10  2.4870732e-14  0              3.0489955    
    300000   1350           200            200            0.00052004425  7.2825093e-43  0              0.0015601328   7118.6482      0              2.2915603e+09  2.4870732e-14  0              3.0327976    
    400000   1350           200            200            0.00087147422 -4.6747175e-37  0              0.0026144226   3937.3767      0              1.2674789e+09  2.4870732e-14  0              2.9998733    
    500000   1350           200            200           -9.5050803e-05  1.8698947e-36  0             -0.00028515241  386.81289      0              1.2451873e+08  2.4870732e-14  0              3.0011981    
    600000   1350           200            200            0.014840312   -2.337365e-37   0              0.044520937    13.784433      0              4437339.6      2.4870732e-14  0              2.9987911    
    700000   1350           200            200            0.0089669963   7.3042676e-38  0              0.026900989    0.00021322064  0              68.637745      2.4870732e-14  0              2.9991368    
    800000   1350           200            200            0.0067441281  -5.8434129e-38  0              0.020232384    0.15934304     0              51294.033      2.4870732e-14  0              2.9992862    
    900000   1350           200            200            0.0060007406   9.9377598e-46  0              0.018002222    0.013544945    0              4360.2462      2.4870732e-14  0              2.9993395    
   1000000   1350           200            200            0.0056941725   1.2041194e-47  0              0.017082518    0.021152127    0              6809.07        2.4870732e-14  0              2.9993622    
   1100000   1350           200            200            0.0055927727   1.4608535e-38  0              0.016778318    0.0060483556   0              1947.023       2.4870732e-14  0              2.9993698    
   1200000   1350           200            200            0.0055692463   7.9801054e-48  0              0.016707739    0.00089698197  0              288.74699      2.4870732e-14  0              2.9993716    
   1300000   1350           200            200            0.0055679053   4.3825606e-38  0              0.016703716    7.3741199e-05  0              23.737991      2.4870732e-14  0              2.9993717    
   1400000   1350           200            200            0.0055702184  -2.9217071e-38  0              0.016710655    2.0506621e-06  0              0.66012757     2.4870732e-14  0              2.9993716    
   1500000   1350           200            200            0.0055718699   1.801771e-53   0              0.01671561     5.9708998e-08  0              0.019220892    2.4870732e-14  0              2.9993714    
   1600000   1350           200            200            0.0055726087  -1.4608535e-38  0              0.016717826    1.2101664e-07  0              0.038956404    2.4870732e-14  0              2.9993714    
   1700000   1350           200            200            0.0055728564   1.3483706e-50  0              0.016718569    3.5448337e-08  0              0.011411156    2.4870732e-14  0              2.9993714    
   1800000   1350           200            200            0.0055729144   2.2086904e-51  0              0.016718743    5.3156734e-09  0              0.0017111656   2.4870732e-14  0              2.9993714    
   1900000   1350           200            200            0.0055729181   1.4608535e-38  0              0.016718754    4.4228484e-10  0              0.00014237568  2.4870732e-14  0              2.9993714    
   2000000   1350           200            200            0.0055729126  -1.4608535e-38  0              0.016718738    1.2714647e-11  0              4.0929653e-06  2.4870732e-14  0              2.9993714    
   2100000   1350           200            200            0.0055729086   4.6396407e-54  0              0.016718726    3.1386445e-13  0              1.0103594e-07  2.4870732e-14  0              2.9993714    
   2200000   1350           200            200            0.0055729068   2.9217071e-38  0              0.01671872     6.9836032e-13  0              2.248088e-07   2.4870732e-14  0              2.9993714    
   2300000   1350           200            200            0.0055729062   1.4608535e-38  0              0.016718719    2.0734807e-13  0              6.6747308e-08  2.4870732e-14  0              2.9993714    
   2400000   1350           200            200            0.005572906    2.9217071e-38  0              0.016718718    3.138086e-14   0              1.0101796e-08  2.4870732e-14  0              2.9993714    
   2500000   1350           200            200            0.005572906    1.6625408e-53  0              0.016718718    2.6524474e-15  0              8.5384795e-10  2.4870732e-14  0              2.9993714    
   2600000   1350           200            200            0.005572906   -1.4608535e-38  0              0.016718718    7.9099318e-17  0              2.546282e-11   2.4870732e-14  0              2.9993714    
   2700000   1350           200            200            0.005572906    2.9217071e-38  0              0.016718718    8.5221802e-19  0              2.7433705e-13  2.4870732e-14  0              2.9993714    
   2800000   1350           200            200            0.005572906   -2.9217071e-38  0              0.016718718    9.0013023e-18  0              2.8976045e-12  2.4870732e-14  0              2.9993714    
   2900000   1350           200            200            0.005572906   -2.9217071e-38  0              0.016718718    4.8985378e-19  0              1.5768857e-13  2.4870732e-14  0              2.9993714    
   3000000   1350           200            200            0.005572906   -1.4608535e-38  0              0.016718718    7.6916552e-19  0              2.4760167e-13  2.4870732e-14  0              2.9993714    
Loop time of 127.602 on 4 procs for 3000000 steps with 751 atoms

Performance: 20313152.145 ns/day, 0.000 hours/ns, 23510.593 timesteps/s
100.0% CPU use with 4 MPI tasks x 1 OpenMP threads

MPI task timing breakdown:
Section |  min time  |  avg time  |  max time  |%varavg| %total
---------------------------------------------------------------
Pair    | 20.689     | 30.721     | 40.787     | 180.5 | 24.08
Neigh   | 0.78605    | 0.79197    | 0.79806    |   0.5 |  0.62
Comm    | 23.706     | 32.981     | 43.18      | 161.8 | 25.85
Output  | 0.10463    | 0.10472    | 0.10485    |   0.0 |  0.08
Modify  | 42.28      | 47.661     | 52.085     |  64.0 | 37.35
Other   |            | 15.34      |            |       | 12.02

Nlocal:         187.75 ave         225 max         150 min
Histogram: 2 0 0 0 0 0 0 0 0 2
Nghost:           4.25 ave           5 max           3 min
Histogram: 1 0 0 0 0 1 0 0 0 2
Neighs:         262.75 ave         338 max         187 min
Histogram: 2 0 0 0 0 0 0 0 0 2

Total # of neighbors = 1051
Ave neighs/atom = 1.3994674
Neighbor list builds = 174
Dangerous builds = 0
  using 1 OpenMP thread(s) per MPI task
Lattice spacing in x,y,z = 3 3 3
Created orthogonal box = (-900 -100 -100) to (900 100 100)
  4 by 1 by 1 MPI processor grid
Created 600 atoms
  using lattice units in orthogonal box = (-900 -100 -100) to (900 100 100)
  create_atoms CPU = 0.001 seconds
Lattice spacing in x,y,z = 3 3 3
Created 401 atoms
  using lattice units in orthogonal box = (-900 -100 -100) to (900 100 100)
  create_atoms CPU = 0.000 seconds
Setting atom values ...
  600 settings made for diameter
Setting atom values ...
  600 settings made for mass
Setting atom values ...
  401 settings made for diameter
Setting atom values ...
  401 settings made for mass
600 atoms in group substrate
401 atoms in group slider1
1001 atoms in group substrate_slider
  1 rigid bodies with 401 atoms
Generated 0 of 1 mixed pair_coeff terms from geometric mixing rule
Neighbor list info ...
  update every 1 steps, delay 0 steps, check yes
  max neighbors/atom: 2000, page size: 100000
  master list distance cutoff = 3.1
  ghost atom cutoff = 3.1
  binsize = 1.55, bins = 1162 130 130
  1 neighbor lists, perpetual/occasional/extra = 1 0 0
  (1) pair granular, perpetual
      attributes: half, newton on, size, history
      pair build: half/size/bin/newton
      stencil: half/bin/3d
      bin: standard
Setting up Verlet run ...
  Unit style    : micro
  Current step  : 0
  Time step     : 1e-05
Per MPI rank memory allocation (min/avg/max) = 33.32 | 33.35 | 33.39 Mbytes
   Step           Lx             Ly             Lz           Press           Pxx            Pyy            Pzz           KinEng         PotEng          Temp          c_1[1]         c_1[2]         c_1[3]    
         0   1800           200            200            0              0              0              0              0              0              0             -1.8668555e-14  0              6            
    100000   1800           200            200            0.0046256522   6.778689e-42   0              0.013876957    242091.93      0              5.8448764e+10 -1.8668555e-14  0              3.3134526    
    200000   1800           200            200            0.0018334742  -4.207253e-36   0              0.0055004226   70328.916      0              1.6979658e+10 -1.8668555e-14  0              3.0487943    
    300000   1800           200            200            0.00052169705  8.276059e-42   0              0.0015650912   9549.6756      0              2.3055983e+09 -1.8668555e-14  0              3.0326044    
    400000   1800           200            200            0.0033058894  -2.1036268e-36  0              0.0099176681   5317.3119      0              1.2837698e+09 -1.8668555e-14  0              2.9995898    
    500000   1800           200            200           -8.9207717e-05  5.6096823e-36  0             -0.00026762315  451.64525      0              1.0904166e+08 -1.8668555e-14  0              3.0013516    
    600000   1800           200            200            0.013571197   -4.207258e-36   0              0.04071359     60.468136      0              14598949      -1.8668555e-14  0              2.9988595    
    700000   1800           200            200            0.0088050675   1.7530253e-37  0              0.026415202    2.1633119      0              522292.94     -1.8668555e-14  0              2.9991463    
    800000   1800           200            200            0.0067665272   3.9429682e-44  0              0.020299582    0.0062341386   0              1505.1212     -1.8668555e-14  0              2.9992841    
    900000   1800           200            200            0.0059541522   4.3825609e-38  0              0.017862457    0.10169217     0              24551.754     -1.8668555e-14  0              2.9993425    
   1000000   1800           200            200            0.0056562791   2.1912804e-38  0              0.016968837    0.046038849    0              11115.256     -1.8668555e-14  0              2.9993647    
   1100000   1800           200            200            0.0055724897  -2.7391004e-39  0              0.016717469    0.0089603724   0              2163.3216     -1.8668555e-14  0              2.999371     
   1200000   1800           200            200            0.0055591311   2.7391004e-39  0              0.016677393    0.00098579524  0              238.00262     -1.8668555e-14  0              2.999372     
   1300000   1800           200            200            0.0055618982   1.6130816e-48  0              0.016685695    5.2438527e-05  0              12.660344     -1.8668555e-14  0              2.9993718    
   1400000   1800           200            200            0.0055654529   5.4782007e-39  0              0.016696359    1.4870921e-07  0              0.035903179   -1.8668555e-14  0              2.9993716    
   1500000   1800           200            200            0.0055673397   1.5211687e-49  0              0.016702019    5.2815889e-07  0              0.12751451    -1.8668555e-14  0              2.9993714    
   1600000   1800           200            200            0.0055680609   1.9489007e-51  0              0.016704183    2.6338355e-07  0              0.063589244   -1.8668555e-14  0              2.9993714    
   1700000   1800           200            200            0.0055682657  -5.4782007e-39  0              0.016704797    5.2154697e-08  0              0.012591818   -1.8668555e-14  0              2.9993714    
   1800000   1800           200            200            0.005568299    4.1622273e-52  0              0.016704897    5.8001413e-09  0              0.0014003403  -1.8668555e-14  0              2.9993714    
   1900000   1800           200            200            0.0055682927   5.4782007e-39  0              0.016704878    3.1401899e-10  0              7.5814265e-05 -1.8668555e-14  0              2.9993714    
   2000000   1800           200            200            0.0055682842  -2.1912803e-38  0              0.016704853    1.0706514e-12  0              2.5848962e-07 -1.8668555e-14  0              2.9993714    
   2100000   1800           200            200            0.0055682797   1.3028679e-54  0              0.016704839    2.9594036e-12  0              7.1449504e-07 -1.8668555e-14  0              2.9993714    
   2200000   1800           200            200            0.0055682779   5.4782007e-39  0              0.016704834    1.5174808e-12  0              3.6636859e-07 -1.8668555e-14  0              2.9993714    
   2300000   1800           200            200            0.0055682774   3.1253331e-56  0              0.016704832    3.0410674e-13  0              7.342113e-08  -1.8668555e-14  0              2.9993714    
   2400000   1800           200            200            0.0055682773   1.3276236e-56  0              0.016704832    3.4087288e-14  0              8.2297656e-09 -1.8668555e-14  0              2.9993714    
   2500000   1800           200            200            0.0055682774   5.4782007e-39  0              0.016704832    1.8852486e-15  0              4.5515953e-10 -1.8668555e-14  0              2.9993714    
   2600000   1800           200            200            0.0055682774  -1.0956401e-38  0              0.016704832    5.0193345e-18  0              1.2118285e-12 -1.8668555e-14  0              2.9993714    
   2700000   1800           200            200            0.0055682774   1.0956401e-38  0              0.016704832    2.2203394e-17  0              5.3606121e-12 -1.8668555e-14  0              2.9993714    
   2800000   1800           200            200            0.0055682774   1.0956401e-38  0              0.016704832    1.1249579e-17  0              2.7160095e-12 -1.8668555e-14  0              2.9993714    
   2900000   1800           200            200            0.0055682774   1.0018041e-55  0              0.016704832    1.7202849e-18  0              4.1533202e-13 -1.8668555e-14  0              2.9993714    
   3000000   1800           200            200            0.0055682774   8.6870491e-56  0              0.016704832    1.3581337e-20  0              3.2789709e-15 -1.8668555e-14  0              2.9993714    
Loop time of 158.819 on 4 procs for 3000000 steps with 1001 atoms

Performance: 16320414.670 ns/day, 0.000 hours/ns, 18889.369 timesteps/s
100.0% CPU use with 4 MPI tasks x 1 OpenMP threads

MPI task timing breakdown:
Section |  min time  |  avg time  |  max time  |%varavg| %total
---------------------------------------------------------------
Pair    | 27.147     | 41.303     | 55.841     | 206.7 | 26.01
Neigh   | 1.0359     | 1.0419     | 1.0479     |   0.5 |  0.66
Comm    | 24.632     | 37.745     | 51.07      | 198.8 | 23.77
Output  | 0.11715    | 0.11725    | 0.11738    |   0.0 |  0.07
Modify  | 54.009     | 60.231     | 66.264     |  77.3 | 37.92
Other   |            | 18.38      |            |       | 11.57

Nlocal:         250.25 ave         301 max         200 min
Histogram: 2 0 0 0 0 0 0 0 0 2
Nghost:           5.25 ave           7 max           4 min
Histogram: 1 0 0 2 0 0 0 0 0 1
Neighs:         350.25 ave         451 max         250 min
Histogram: 2 0 0 0 0 0 0 0 0 2

Total # of neighbors = 1401
Ave neighs/atom = 1.3996004
Neighbor list builds = 174
Dangerous builds = 0
  using 1 OpenMP thread(s) per MPI task
Lattice spacing in x,y,z = 3 3 3
Created orthogonal box = (-1125 -100 -100) to (1125 100 100)
  4 by 1 by 1 MPI processor grid
Created 750 atoms
  using lattice units in orthogonal box = (-1125 -100 -100) to (1125 100 100)
  create_atoms CPU = 0.001 seconds
Lattice spacing in x,y,z = 3 3 3
Created 501 atoms
  using lattice units in orthogonal box = (-1125 -100 -100) to (1125 100 100)
  create_atoms CPU = 0.000 seconds
Setting atom values ...
  750 settings made for diameter
Setting atom values ...
  750 settings made for mass
Setting atom values ...
  501 settings made for diameter
Setting atom values ...
  501 settings made for mass
750 atoms in group substrate
501 atoms in group slider1
1251 atoms in group substrate_slider
  1 rigid bodies with 501 atoms
Generated 0 of 1 mixed pair_coeff terms from geometric mixing rule
Neighbor list info ...
  update every 1 steps, delay 0 steps, check yes
  max neighbors/atom: 2000, page size: 100000
  master list distance cutoff = 3.1
  ghost atom cutoff = 3.1
  binsize = 1.55, bins = 1452 130 130
  1 neighbor lists, perpetual/occasional/extra = 1 0 0
  (1) pair granular, perpetual
      attributes: half, newton on, size, history
      pair build: half/size/bin/newton
      stencil: half/bin/3d
      bin: standard
Setting up Verlet run ...
  Unit style    : micro
  Current step  : 0
  Time step     : 1e-05
Per MPI rank memory allocation (min/avg/max) = 38.4 | 38.4 | 38.4 Mbytes
   Step           Lx             Ly             Lz           Press           Pxx            Pyy            Pzz           KinEng         PotEng          Temp          c_1[1]         c_1[2]         c_1[3]    
         0   2250           200            200            0              0              0              0              0              0              0              0              0              6            
    100000   2250           200            200            0.0046233954   1.6610356e-42  0              0.013870186    302473.68      0              5.8421485e+10  0              0              3.3133694    
    200000   2250           200            200            0.0018334286   1.1219368e-36  0              0.0055002858   87934.309      0              1.6984132e+10  0              0              3.0485929    
    300000   2250           200            200            0.00052352332 -2.2438648e-36  0              0.00157057     12013.958      0              2.3204442e+09  0              0              3.0324106    
    400000   2250           200            200            0.006840467    5.6096858e-37  0              0.020521401    6656.0885      0              1.2855948e+09  0              0              2.999305     
    500000   2250           200            200           -8.3367477e-05  1.3030683e-43  0             -0.00025010243  490.02863      0              94646914       0              0              3.0014947    
    600000   2250           200            200            0.011735713   -2.8048385e-37  0              0.035207139    141.30763      0              27292958       0              0              2.9989635    
    700000   2250           200            200            0.0083772146   3.2612308e-43  0              0.025131644    9.9677251      0              1925223.1      0              0              2.9991735    
    800000   2250           200            200            0.0066957238  -1.0518145e-37  0              0.020087171    0.46134956     0              89107.677      0              0              2.9992887    
    900000   2250           200            200            0.0058806936   8.9731342e-46  0              0.017642081    0.2843246      0              54916.07       0              0              2.9993477    
   1000000   2250           200            200            0.0056141931  -1.0956401e-38  0              0.016842579    0.074694867    0              14426.991      0              0              2.9993676    
   1100000   2250           200            200            0.0055540149   2.1912803e-39  0              0.016662045    0.010665516    0              2059.9984      0              0              2.9993722    
   1200000   2250           200            200            0.0055516508   3.0677924e-38  0              0.016654952    0.00084031679  0              162.30356      0              0              2.9993724    
   1300000   2250           200            200            0.0055582452  -2.1912803e-39  0              0.016674736    2.0818641e-05  0              4.0210307      0              0              2.9993719    
   1400000   2250           200            200            0.0055627518   4.6737278e-49  0              0.016688255    9.7457584e-07  0              0.18823512     0              0              2.9993716    
   1500000   2250           200            200            0.0055647282   4.3825606e-39  0              0.016694184    1.5303874e-06  0              0.29558773     0              0              2.9993714    
   1600000   2250           200            200            0.0055653784   1.3633158e-50  0              0.016696135    4.2577463e-07  0              0.082236532    0              0              2.9993714    
   1700000   2250           200            200            0.0055655263   4.3825606e-39  0              0.016696579    6.1638795e-08  0              0.011905267    0              0              2.9993714    
   1800000   2250           200            200            0.0055655331   4.3825606e-39  0              0.016696599    4.9172884e-09  0              0.00094975304  0              0              2.9993714    
   1900000   2250           200            200            0.0055655175  -1.3147682e-38  0              0.016696553    1.263925e-10   0              2.4412167e-05  0              0              2.9993714    
   2000000   2250           200            200            0.0055655068  -4.3825606e-39  0              0.01669652     5.0926108e-12  0              9.8361581e-07  0              0              2.9993714    
   2100000   2250           200            200            0.0055655021   4.3825606e-39  0              0.016696506    8.6216128e-12  0              1.6652273e-06  0              0              2.9993714    
   2200000   2250           200            200            0.0055655005   8.7651212e-39  0              0.016696501    2.4358196e-12  0              4.7046805e-07  0              0              2.9993714    
   2300000   2250           200            200            0.0055655001  -1.7530242e-38  0              0.0166965      3.5625712e-13  0              6.8809525e-08  0              0              2.9993714    
   2400000   2250           200            200            0.0055655001  -8.7651212e-39  0              0.0166965      2.8570721e-14  0              5.5183114e-09  0              0              2.9993714    
   2500000   2250           200            200            0.0055655002  -8.7651212e-39  0              0.0166965      7.1486457e-16  0              1.3807301e-10  0              0              2.9993714    
   2600000   2250           200            200            0.0055655002   1.3458087e-55  0              0.016696501    3.9110723e-17  0              7.5540675e-12  0              0              2.9993714    
   2700000   2250           200            200            0.0055655002   1.3147682e-38  0              0.016696501    7.2631496e-17  0              1.402846e-11   0              0              2.9993714    
   2800000   2250           200            200            0.0055655002   1.7530242e-38  0              0.016696501    3.6000467e-18  0              6.9533348e-13  0              0              2.9993714    
   2900000   2250           200            200            0.0055655002  -4.3825606e-39  0              0.016696501    1.5206518e-18  0              2.9370733e-13  0              0              2.9993714    
   3000000   2250           200            200            0.0055655002  -8.7651212e-39  0              0.016696501    1.7059365e-18  0              3.2949428e-13  0              0              2.9993714    
Loop time of 189.763 on 4 procs for 3000000 steps with 1251 atoms

Performance: 13659162.543 ns/day, 0.000 hours/ns, 15809.216 timesteps/s
100.0% CPU use with 4 MPI tasks x 1 OpenMP threads

MPI task timing breakdown:
Section |  min time  |  avg time  |  max time  |%varavg| %total
---------------------------------------------------------------
Pair    | 34.929     | 52.22      | 69.993     | 235.5 | 27.52
Neigh   | 1.3149     | 1.3252     | 1.3353     |   0.7 |  0.70
Comm    | 24.543     | 41.444     | 57.559     | 249.7 | 21.84
Output  | 0.12275    | 0.12286    | 0.12302    |   0.0 |  0.06
Modify  | 64.129     | 72.632     | 81.899     |  98.3 | 38.28
Other   |            | 22.02      |            |       | 11.60

Nlocal:         312.75 ave         376 max         250 min
Histogram: 2 0 0 0 0 0 0 0 0 2
Nghost:           4.25 ave           6 max           3 min
Histogram: 1 0 0 2 0 0 0 0 0 1
Neighs:         437.75 ave         564 max         312 min
Histogram: 2 0 0 0 0 0 0 0 0 2

Total # of neighbors = 1751
Ave neighs/atom = 1.3996803
Neighbor list builds = 174
Dangerous builds = 0
  using 1 OpenMP thread(s) per MPI task
Lattice spacing in x,y,z = 3 3 3
Created orthogonal box = (-1350 -100 -100) to (1350 100 100)
  4 by 1 by 1 MPI processor grid
Created 900 atoms
  using lattice units in orthogonal box = (-1350 -100 -100) to (1350 100 100)
  create_atoms CPU = 0.001 seconds
Lattice spacing in x,y,z = 3 3 3
Created 601 atoms
  using lattice units in orthogonal box = (-1350 -100 -100) to (1350 100 100)
  create_atoms CPU = 0.000 seconds
Setting atom values ...
  900 settings made for diameter
Setting atom values ...
  900 settings made for mass
Setting atom values ...
  601 settings made for diameter
Setting atom values ...
  601 settings made for mass
900 atoms in group substrate
601 atoms in group slider1
1501 atoms in group substrate_slider
  1 rigid bodies with 601 atoms
Generated 0 of 1 mixed pair_coeff terms from geometric mixing rule
Neighbor list info ...
  update every 1 steps, delay 0 steps, check yes
  max neighbors/atom: 2000, page size: 100000
  master list distance cutoff = 3.1
  ghost atom cutoff = 3.1
  binsize = 1.55, bins = 1742 130 130
  1 neighbor lists, perpetual/occasional/extra = 1 0 0
  (1) pair granular, perpetual
      attributes: half, newton on, size, history
      pair build: half/size/bin/newton
      stencil: half/bin/3d
      bin: standard
Setting up Verlet run ...
  Unit style    : micro
  Current step  : 0
  Time step     : 1e-05
Per MPI rank memory allocation (min/avg/max) = 43.41 | 43.44 | 43.48 Mbytes
   Step           Lx             Ly             Lz           Press           Pxx            Pyy            Pzz           KinEng         PotEng          Temp          c_1[1]         c_1[2]         c_1[3]    
         0   2700           200            200            0              0              0              0              0              0              0              0              0              6            
    100000   2700           200            200            0.0046219075   5.5289915e-42  0              0.013865722    362859.29      0              5.8403922e+10  0              0              3.3132862    
    200000   2700           200            200            0.0018336879   7.4795801e-36  0              0.0055010636   105566.53      0              1.6991433e+10  0              0              3.0483914    
    300000   2700           200            200            0.00052543482  2.9217071e-38  0              0.0015763045   14511.553      0              2.3357032e+09  0              0              3.0322162    
    400000   2700           200            200            0.011176609   -1.4024192e-36  0              0.033529828    7878.7191      0              1.2681172e+09  0              0              2.9990212    
    500000   2700           200            200           -7.7515452e-05  1.4024196e-36  0             -0.00023254636  505.17756      0              81310722       0              0              3.0016276    
    600000   2700           200            200            0.0095580491  -4.6747303e-37  0              0.028674147    240.80153      0              38758148       0              0              2.9990948    
    700000   2700           200            200            0.0077319852  -4.6747308e-37  0              0.023195956    23.20122       0              3734346.2      0              0              2.9992159    
    800000   2700           200            200            0.0065379399   1.3439232e-43  0              0.01961382     1.7593841      0              283181.21      0              0              2.9992996    
    900000   2700           200            200            0.005785451   -3.5060484e-37  0              0.017356353    0.53435682     0              86007.262      0              0              2.9993546    
   1000000   2700           200            200            0.0055700467   6.3570784e-47  0              0.01671014     0.098009885    0              15775.155      0              0              2.9993708    
   1100000   2700           200            200            0.0055375915  -1.0956401e-38  0              0.016612775    0.010391311    0              1672.5308      0              0              2.9993733    
   1200000   2700           200            200            0.0055462146   9.4955479e-38  0              0.016638644    0.00052037791  0              83.75729       0              0              2.9993727    
   1300000   2700           200            200            0.0055560756  -1.4608535e-38  0              0.016668227    6.9486264e-07  0              0.11184143     0              0              2.9993719    
   1400000   2700           200            200            0.005561179    1.2096723e-48  0              0.016683537    6.3502919e-06  0              1.0221096      0              0              2.9993715    
   1500000   2700           200            200            0.0055630956   1.4608535e-38  0              0.016689287    2.9175593e-06  0              0.46959498     0              0              2.9993714    
   1600000   2700           200            200            0.0055636282   3.3052088e-50  0              0.016690885    5.5595188e-07  0              0.089483089    0              0              2.9993714    
   1700000   2700           200            200            0.0055637096   1.6362484e-50  0              0.016691129    5.9663108e-08  0              0.0096030599   0              0              2.9993714    
   1800000   2700           200            200            0.00556369     4.9596705e-52  0              0.01669107     3.0430437e-09  0              0.0004897923   0              0              2.9993714    
   1900000   2700           200            200            0.0055636668   1.4608535e-38  0              0.016691       5.3982669e-12  0              8.6887662e-07  0              0              2.9993714    
   2000000   2700           200            200            0.0055636546   4.9972211e-54  0              0.016690964    3.4769394e-11  0              5.5962986e-06  0              0              2.9993714    
   2100000   2700           200            200            0.0055636501  -7.3042676e-39  0              0.01669095     1.6375353e-11  0              2.6356906e-06  0              0              2.9993714    
   2200000   2700           200            200            0.0055636488   7.3042676e-39  0              0.016690946    3.1575669e-12  0              5.0822534e-07  0              0              2.9993714    
   2300000   2700           200            200            0.0055636486   1.4429756e-56  0              0.016690946    3.431693e-13   0              5.5234724e-08  0              0              2.9993714    
   2400000   2700           200            200            0.0055636486  -7.3042676e-39  0              0.016690946    1.7702149e-14  0              2.8492447e-09  0              0              2.9993714    
   2500000   2700           200            200            0.0055636487   1.306613e-56   0              0.016690946    3.6963455e-17  0              5.9494432e-12  0              0              2.9993714    
   2600000   2700           200            200            0.0055636487   4.1900378e-56  0              0.016690946    1.9351468e-16  0              3.1147105e-11  0              0              2.9993714    
   2700000   2700           200            200            0.0055636487  -7.3042676e-39  0              0.016690946    1.2281551e-16  0              1.9767739e-11  0              0              2.9993714    
   2800000   2700           200            200            0.0055636487   7.3042676e-39  0              0.016690946    4.2827344e-18  0              6.8932638e-13  0              0              2.9993714    
   2900000   2700           200            200            0.0055636487   4.1290662e-56  0              0.016690946    3.9338836e-19  0              6.3317719e-14  0              0              2.9993714    
   3000000   2700           200            200            0.0055636487   4.1705394e-56  0              0.016690946    2.3805964e-18  0              3.8316826e-13  0              0              2.9993714    
Loop time of 220.706 on 4 procs for 3000000 steps with 1501 atoms

Performance: 11744123.155 ns/day, 0.000 hours/ns, 13592.735 timesteps/s
100.0% CPU use with 4 MPI tasks x 1 OpenMP threads

MPI task timing breakdown:
Section |  min time  |  avg time  |  max time  |%varavg| %total
---------------------------------------------------------------
Pair    | 42.739     | 63.447     | 86.145     | 260.1 | 28.75
Neigh   | 1.5511     | 1.5615     | 1.5723     |   0.7 |  0.71
Comm    | 25.842     | 46.889     | 67.146     | 285.2 | 21.25
Output  | 0.14591    | 0.14604    | 0.1462     |   0.0 |  0.07
Modify  | 73.037     | 83.851     | 94.257     | 106.4 | 37.99
Other   |            | 24.81      |            |       | 11.24

Nlocal:         375.25 ave         451 max         300 min
Histogram: 2 0 0 0 0 0 0 0 0 2
Nghost:           5.25 ave           7 max           4 min
Histogram: 1 0 0 2 0 0 0 0 0 1
Neighs:         525.25 ave         676 max         375 min
Histogram: 2 0 0 0 0 0 0 0 0 2

Total # of neighbors = 2101
Ave neighs/atom = 1.3997335
Neighbor list builds = 174
Dangerous builds = 0
  using 1 OpenMP thread(s) per MPI task
Lattice spacing in x,y,z = 3 3 3
Created orthogonal box = (-1575 -100 -100) to (1575 100 100)
  4 by 1 by 1 MPI processor grid
Created 1050 atoms
  using lattice units in orthogonal box = (-1575 -100 -100) to (1575 100 100)
  create_atoms CPU = 0.001 seconds
Lattice spacing in x,y,z = 3 3 3
Created 701 atoms
  using lattice units in orthogonal box = (-1575 -100 -100) to (1575 100 100)
  create_atoms CPU = 0.001 seconds
Setting atom values ...
  1050 settings made for diameter
Setting atom values ...
  1050 settings made for mass
Setting atom values ...
  701 settings made for diameter
Setting atom values ...
  701 settings made for mass
1050 atoms in group substrate
701 atoms in group slider1
1751 atoms in group substrate_slider
  1 rigid bodies with 701 atoms
Generated 0 of 1 mixed pair_coeff terms from geometric mixing rule
Neighbor list info ...
  update every 1 steps, delay 0 steps, check yes
  max neighbors/atom: 2000, page size: 100000
  master list distance cutoff = 3.1
  ghost atom cutoff = 3.1
  binsize = 1.55, bins = 2033 130 130
  1 neighbor lists, perpetual/occasional/extra = 1 0 0
  (1) pair granular, perpetual
      attributes: half, newton on, size, history
      pair build: half/size/bin/newton
      stencil: half/bin/3d
      bin: standard
Setting up Verlet run ...
  Unit style    : micro
  Current step  : 0
  Time step     : 1e-05
Per MPI rank memory allocation (min/avg/max) = 48.56 | 48.56 | 48.56 Mbytes
   Step           Lx             Ly             Lz           Press           Pxx            Pyy            Pzz           KinEng         PotEng          Temp          c_1[1]         c_1[2]         c_1[3]    
         0   3150           200            200            0              0              0              0              0              0              0              0              0              6            
    100000   3150           200            200            0.004620859    6.2874557e-42  0              0.013862577    423248.78      0              5.8391911e+10  0              0              3.313203     
    200000   3150           200            200            0.0018341223  -3.2055223e-36  0              0.0055023668   123225.69      0              1.7000365e+10  0              0              3.0481896    
    300000   3150           200            200            0.00052739889 -8.0138234e-37  0              0.0015821967   17042.801      0              2.3512454e+09  0              0              3.032021     
    400000   3150           200            200            0.016134027    3.274424e-43   0              0.048402082    8902.4846      0              1.2281975e+09  0              0              2.9987405    
    500000   3150           200            200           -7.1639365e-05 -8.0138218e-37  0             -0.0002149181   500.18881      0              69006650       0              0              3.0017502    
    600000   3150           200            200            0.0072800659   1.5371238e-45  0              0.021840198    333.41719      0              45998637       0              0              2.9992437    
    700000   3150           200            200            0.0069387815   2.2151145e-44  0              0.020816345    38.939357      0              5372120.5      0              0              2.9992701    
    800000   3150           200            200            0.0063076734  -7.5129609e-38  0              0.01892302     3.7786317      0              521304.58      0              0              2.9993159    
    900000   3150           200            200            0.0056756152   9.6559002e-46  0              0.017026846    0.78641437     0              108494.67      0              0              2.9993626    
   1000000   3150           200            200            0.005526625    1.0633548e-45  0              0.016579875    0.10724801     0              14796.065      0              0              2.999374     
   1100000   3150           200            200            0.0055238733  -6.2608007e-39  0              0.01657162     0.0081006132   0              1117.5703      0              0              2.9993742    
   1200000   3150           200            200            0.005542668    1.5652002e-39  0              0.016628004    0.00017727253  0              24.456731      0              0              2.9993728    
   1300000   3150           200            200            0.0055550043  -6.2608008e-39  0              0.016665013    1.2794913e-05  0              1.7652016      0              0              2.9993719    
   1400000   3150           200            200            0.0055603126   9.399199e-50   0              0.016680938    1.631836e-05   0              2.2513006      0              0              2.9993715    
   1500000   3150           200            200            0.0055620278   2.6976454e-51  0              0.016686083    4.3262582e-06  0              0.59685579     0              0              2.9993714    
   1600000   3150           200            200            0.0055624058  -6.2608008e-39  0              0.016687217    6.0526744e-07  0              0.083503424    0              0              2.9993714    
   1700000   3150           200            200            0.0055624164  -6.2608008e-39  0              0.016687249    4.6293881e-08  0              0.0063867595   0              0              2.9993714    
   1800000   3150           200            200            0.0055623727   1.2521602e-38  0              0.016687118    1.0549814e-09  0              0.0001455465   0              0              2.9993714    
   1900000   3150           200            200            0.0055623436   1.2521602e-38  0              0.016687031    6.5950041e-11  0              9.0985471e-06  0              0              2.9993714    
   2000000   3150           200            200            0.0055623311  -6.2608008e-39  0              0.016686993    8.9650175e-11  0              1.2368246e-05  0              0              2.9993714    
   2100000   3150           200            200            0.005562327   -2.5043203e-38  0              0.016686981    2.4117615e-11  0              3.3272952e-06  0              0              2.9993714    
   2200000   3150           200            200            0.0055623261  -1.8782403e-38  0              0.016686978    3.4047668e-12  0              4.6972573e-07  0              0              2.9993714    
   2300000   3150           200            200            0.005562326    5.0086407e-38  0              0.016686978    2.6325093e-13  0              3.6318414e-08  0              0              2.9993714    
   2400000   3150           200            200            0.0055623261   1.1510582e-56  0              0.016686978    6.1217609e-15  0              8.445655e-10   0              0              2.9993714    
   2500000   3150           200            200            0.0055623262   1.2521602e-38  0              0.016686979    3.6056824e-16  0              4.9744429e-11  0              0              2.9993714    
   2600000   3150           200            200            0.0055623262   3.7069688e-56  0              0.016686979    4.5851146e-16  0              6.3256792e-11  0              0              2.9993714    
   2700000   3150           200            200            0.0055623263   2.9324691e-56  0              0.016686979    1.493796e-16   0              2.060859e-11   0              0              2.9993714    
   2800000   3150           200            200            0.0055623263   2.9667005e-56  0              0.016686979    5.8160995e-18  0              8.0239608e-13  0              0              2.9993714    
   2900000   3150           200            200            0.0055623263  -6.2608008e-39  0              0.016686979    4.456469e-19   0              6.1481982e-14  0              0              2.9993714    
   3000000   3150           200            200            0.0055623263   1.2521602e-38  0              0.016686979    1.9036401e-18  0              2.6262848e-13  0              0              2.9993714    
Loop time of 248.95 on 4 procs for 3000000 steps with 1751 atoms

Performance: 10411744.060 ns/day, 0.000 hours/ns, 12050.630 timesteps/s
100.0% CPU use with 4 MPI tasks x 1 OpenMP threads

MPI task timing breakdown:
Section |  min time  |  avg time  |  max time  |%varavg| %total
---------------------------------------------------------------
Pair    | 47.853     | 73.282     | 99.113     | 292.6 | 29.44
Neigh   | 1.8034     | 1.8165     | 1.8302     |   0.8 |  0.73
Comm    | 25.871     | 50.87      | 75.738     | 338.1 | 20.43
Output  | 0.15789    | 0.15803    | 0.15821    |   0.0 |  0.06
Modify  | 83.749     | 95.318     | 107.43     | 117.6 | 38.29
Other   |            | 27.51      |            |       | 11.05

Nlocal:         437.75 ave         526 max         350 min
Histogram: 2 0 0 0 0 0 0 0 0 2
Nghost:           4.25 ave           6 max           3 min
Histogram: 1 0 0 2 0 0 0 0 0 1
Neighs:         612.75 ave         789 max         437 min
Histogram: 2 0 0 0 0 0 0 0 0 2

Total # of neighbors = 2451
Ave neighs/atom = 1.3997716
Neighbor list builds = 174
Dangerous builds = 0
  using 1 OpenMP thread(s) per MPI task
Lattice spacing in x,y,z = 3 3 3
Created orthogonal box = (-1800 -100 -100) to (1800 100 100)
  4 by 1 by 1 MPI processor grid
Created 1200 atoms
  using lattice units in orthogonal box = (-1800 -100 -100) to (1800 100 100)
  create_atoms CPU = 0.001 seconds
Lattice spacing in x,y,z = 3 3 3
Created 801 atoms
  using lattice units in orthogonal box = (-1800 -100 -100) to (1800 100 100)
  create_atoms CPU = 0.000 seconds
Setting atom values ...
  1200 settings made for diameter
Setting atom values ...
  1200 settings made for mass
Setting atom values ...
  801 settings made for diameter
Setting atom values ...
  801 settings made for mass
1200 atoms in group substrate
801 atoms in group slider1
2001 atoms in group substrate_slider
  1 rigid bodies with 801 atoms
Generated 0 of 1 mixed pair_coeff terms from geometric mixing rule
Neighbor list info ...
  update every 1 steps, delay 0 steps, check yes
  max neighbors/atom: 2000, page size: 100000
  master list distance cutoff = 3.1
  ghost atom cutoff = 3.1
  binsize = 1.55, bins = 2323 130 130
  1 neighbor lists, perpetual/occasional/extra = 1 0 0
  (1) pair granular, perpetual
      attributes: half, newton on, size, history
      pair build: half/size/bin/newton
      stencil: half/bin/3d
      bin: standard
Setting up Verlet run ...
  Unit style    : micro
  Current step  : 0
  Time step     : 1e-05
Per MPI rank memory allocation (min/avg/max) = 53.57 | 53.57 | 53.57 Mbytes
   Step           Lx             Ly             Lz           Press           Pxx            Pyy            Pzz           KinEng         PotEng          Temp          c_1[1]         c_1[2]         c_1[3]    
         0   3600           200            200            0              0              0              0              0              0              0              7.4767445e-14  0              6            
    100000   3600           200            200            0.0046200852   3.5060497e-37  0              0.013860255    483642.14      0              5.838337e+10   7.4767445e-14  0              3.3131198    
    200000   3600           200            200            0.001834664    7.1712859e-42  0              0.0055039921   140911.55      0              1.7010286e+10  7.4767445e-14  0              3.0479879    
    300000   3600           200            200            0.00052939283  2.804845e-36   0              0.0015881785   19607.642      0              2.3669572e+09  7.4767445e-14  0              3.0318253    
    400000   3600           200            200            0.021548178   -2.8048382e-36  0              0.064644533    9645.6381      0              1.1643834e+09  7.4767445e-14  0              2.9984659    
    500000   3600           200            200           -6.5741449e-05  7.0120988e-36  0             -0.00019722435  478.28809      0              57737050       7.4767445e-14  0              3.0018625    
    600000   3600           200            200            0.0051256725  -1.4024193e-36  0              0.015377018    394.09263      0              47573306       7.4767445e-14  0              2.9994       
    700000   3600           200            200            0.0060771477   2.0678574e-42  0              0.018231443    52.607559      0              6350576.9      7.4767445e-14  0              2.9993314    
    800000   3600           200            200            0.0060257098   2.3733996e-43  0              0.01807713     6.0452831      0              729762.72      7.4767445e-14  0              2.9993363    
    900000   3600           200            200            0.0055596189   1.7814409e-44  0              0.016678857    0.9597769      0              115860.48      7.4767445e-14  0              2.9993713    
   1000000   3600           200            200            0.0054868708   2.1912804e-38  0              0.016460612    0.097864271    0              11813.788      7.4767445e-14  0              2.9993769    
   1100000   3600           200            200            0.0055135467  -5.4782007e-39  0              0.01654064     0.0046134771   0              556.92075      7.4767445e-14  0              2.999375     
   1200000   3600           200            200            0.0055409524  -8.7651212e-38  0              0.016622857    1.6564586e-06  0              0.19996114     7.4767445e-14  0              2.9993729    
   1300000   3600           200            200            0.0055548023   2.1912803e-38  0              0.016664407    6.7733852e-05  0              8.1765632      7.4767445e-14  0              2.9993719    
   1400000   3600           200            200            0.005559916    4.9544156e-48  0              0.016679748    2.8892864e-05  0              3.4878325      7.4767445e-14  0              2.9993715    
   1500000   3600           200            200            0.0055613066  -3.2869204e-38  0              0.01668392     5.3070891e-06  0              0.64065085     7.4767445e-14  0              2.9993714    
   1600000   3600           200            200            0.0055615054   1.0956401e-38  0              0.016684516    5.4989596e-07  0              0.06638127     7.4767445e-14  0              2.9993713    
   1700000   3600           200            200            0.0055614462   8.7651212e-38  0              0.016684339    2.6384602e-08  0              0.003185045    7.4767445e-14  0              2.9993714    
   1800000   3600           200            200            0.0055613824  -2.1912803e-38  0              0.016684147    1.6558509e-11  0              1.9988779e-06  7.4767445e-14  0              2.9993714    
   1900000   3600           200            200            0.0055613498  -1.0956401e-38  0              0.01668405     3.6216691e-10  0              4.371936e-05   7.4767445e-14  0              2.9993714    
   2000000   3600           200            200            0.0055613378   3.7473082e-54  0              0.016684013    1.5808989e-10  0              1.9083987e-05  7.4767445e-14  0              2.9993714    
   2100000   3600           200            200            0.0055613345   8.3537173e-57  0              0.016684003    2.9358391e-11  0              3.5440291e-06  7.4767445e-14  0              2.9993714    
   2200000   3600           200            200            0.005561334   -1.0956401e-38  0              0.016684002    3.0726291e-12  0              3.7091566e-07  7.4767445e-14  0              2.9993714    
   2300000   3600           200            200            0.0055613341   4.1555577e-58  0              0.016684002    1.5043574e-13  0              1.8160009e-08  7.4767445e-14  0              2.9993714    
   2400000   3600           200            200            0.0055613343  -2.1912803e-38  0              0.016684003    1.7889204e-16  0              2.1595141e-11  7.4767445e-14  0              2.9993714    
   2500000   3600           200            200            0.0055613344   1.0956401e-38  0              0.016684003    1.8333099e-15  0              2.2130994e-10  7.4767445e-14  0              2.9993714    
   2600000   3600           200            200            0.0055613344  -1.0956401e-38  0              0.016684003    8.1649029e-16  0              9.8563486e-11  7.4767445e-14  0              2.9993714    
   2700000   3600           200            200            0.0055613344  -2.1912803e-38  0              0.016684003    1.3511354e-16  0              1.6310373e-11  7.4767445e-14  0              2.9993714    
   2800000   3600           200            200            0.0055613344  -2.1912803e-38  0              0.016684003    1.8786391e-17  0              2.267819e-12   7.4767445e-14  0              2.9993714    
   2900000   3600           200            200            0.0055613344   1.0956401e-38  0              0.016684003    1.0901676e-18  0              1.3160073e-13  7.4767445e-14  0              2.9993714    
   3000000   3600           200            200            0.0055613344   9.6631799e-56  0              0.016684003    4.1854492e-18  0              5.0525091e-13  7.4767445e-14  0              2.9993714    
Loop time of 277.663 on 4 procs for 3000000 steps with 2001 atoms

Performance: 9335055.666 ns/day, 0.000 hours/ns, 10804.463 timesteps/s
100.0% CPU use with 4 MPI tasks x 1 OpenMP threads

MPI task timing breakdown:
Section |  min time  |  avg time  |  max time  |%varavg| %total
---------------------------------------------------------------
Pair    | 55.059     | 83.507     | 113.46     | 299.4 | 30.07
Neigh   | 2.0683     | 2.0858     | 2.1033     |   1.0 |  0.75
Comm    | 26.991     | 55.149     | 83.701     | 348.3 | 19.86
Output  | 0.16995    | 0.17009    | 0.17029    |   0.0 |  0.06
Modify  | 92.683     | 106.5      | 119.36     | 117.8 | 38.35
Other   |            | 30.26      |            |       | 10.90

Nlocal:         500.25 ave         600 max         400 min
Histogram: 2 0 0 0 0 0 0 0 0 2
Nghost:           5.25 ave           6 max           4 min
Histogram: 1 0 0 0 0 1 0 0 0 2
Neighs:         700.25 ave         900 max         500 min
Histogram: 2 0 0 0 0 0 0 0 0 2

Total # of neighbors = 2801
Ave neighs/atom = 1.3998001
Neighbor list builds = 174
Dangerous builds = 0
  using 1 OpenMP thread(s) per MPI task
Lattice spacing in x,y,z = 3 3 3
Created orthogonal box = (-2025 -100 -100) to (2025 100 100)
  4 by 1 by 1 MPI processor grid
Created 1350 atoms
  using lattice units in orthogonal box = (-2025 -100 -100) to (2025 100 100)
  create_atoms CPU = 0.001 seconds
Lattice spacing in x,y,z = 3 3 3
Created 901 atoms
  using lattice units in orthogonal box = (-2025 -100 -100) to (2025 100 100)
  create_atoms CPU = 0.000 seconds
Setting atom values ...
  1350 settings made for diameter
Setting atom values ...
  1350 settings made for mass
Setting atom values ...
  901 settings made for diameter
Setting atom values ...
  901 settings made for mass
1350 atoms in group substrate
901 atoms in group slider1
2251 atoms in group substrate_slider
  1 rigid bodies with 901 atoms
Generated 0 of 1 mixed pair_coeff terms from geometric mixing rule
Neighbor list info ...
  update every 1 steps, delay 0 steps, check yes
  max neighbors/atom: 2000, page size: 100000
  master list distance cutoff = 3.1
  ghost atom cutoff = 3.1
  binsize = 1.55, bins = 2613 130 130
  1 neighbor lists, perpetual/occasional/extra = 1 0 0
  (1) pair granular, perpetual
      attributes: half, newton on, size, history
      pair build: half/size/bin/newton
      stencil: half/bin/3d
      bin: standard
Setting up Verlet run ...
  Unit style    : micro
  Current step  : 0
  Time step     : 1e-05
Per MPI rank memory allocation (min/avg/max) = 58.65 | 58.65 | 58.65 Mbytes
   Step           Lx             Ly             Lz           Press           Pxx            Pyy            Pzz           KinEng         PotEng          Temp          c_1[1]         c_1[2]         c_1[3]    
         0   4050           200            200            0              0              0              0              0              0              0              6.6469172e-14  0              6            
    100000   4050           200            200            0.0046194944   1.1879715e-41  0              0.013858483    544039.37      0              5.8377143e+10  6.6469172e-14  0              3.3130366    
    200000   4050           200            200            0.0018352775   6.2329784e-37  0              0.0055058324   158624.12      0              1.7020869e+10  6.6469172e-14  0              3.0477864    
    300000   4050           200            200            0.00053140732 -2.493189e-36   0              0.001594222    22206.247      0              2.3828004e+09  6.6469172e-14  0              3.0316291    
    400000   4050           200            200            0.027266371    3.6620217e-43  0              0.081799114    10035.948      0              1.0768889e+09  6.6469172e-14  0              2.9982002    
    500000   4050           200            200           -5.981452e-05   1.6998234e-44  0             -0.00017944356  442.52502      0              47484332       6.6469172e-14  0              3.0019646    
    600000   4050           200            200            0.0032645328   1.5582438e-37  0              0.0097935984   407.66809      0              43744074       6.6469172e-14  0              2.9995541    
    700000   4050           200            200            0.0052228911   1.5768138e-47  0              0.015668673    59.812832      0              6418105.8      6.6469172e-14  0              2.9993953    
    800000   4050           200            200            0.0057158808   6.7925065e-46  0              0.017147642    7.8939771      0              847048.67      6.6469172e-14  0              2.9993591    
    900000   4050           200            200            0.0054460107   7.791219e-38   0              0.016338032    0.99004037     0              106234.46      6.6469172e-14  0              2.9993798    
   1000000   4050           200            200            0.0054534404   1.9478047e-38  0              0.016360321    0.071941252    0              7719.5236      6.6469172e-14  0              2.9993794    
   1100000   4050           200            200            0.0055071291  -1.9478047e-38  0              0.016521387    0.0013798134   0              148.05834      6.6469172e-14  0              2.9993754    
   1200000   4050           200            200            0.0055409817  -1.9478047e-38  0              0.016622945    0.0001495784   0              16.050234      6.6469172e-14  0              2.9993728    
   1300000   4050           200            200            0.0055552897   7.3338904e-50  0              0.016665869    0.00016037772  0              17.209036      6.6469172e-14  0              2.9993718    
   1400000   4050           200            200            0.0055598321  -9.7390235e-39  0              0.016679496    4.0641549e-05  0              4.3609665      6.6469172e-14  0              2.9993714    
   1500000   4050           200            200            0.0055608013   6.9108516e-52  0              0.016682404    5.5007221e-06  0              0.59024485     6.6469172e-14  0              2.9993713    
   1600000   4050           200            200            0.0055608105   6.391729e-51   0              0.016682431    4.0339509e-07  0              0.043285568    6.6469172e-14  0              2.9993713    
   1700000   4050           200            200            0.0055606876   1.6549014e-50  0              0.016682063    8.0744618e-09  0              0.00086641526  6.6469172e-14  0              2.9993714    
   1800000   4050           200            200            0.0055606088   3.4727587e-51  0              0.016681827    7.5843569e-10  0              8.1382545e-05  6.6469172e-14  0              2.9993714    
   1900000   4050           200            200            0.0055605754   9.7390235e-39  0              0.016681726    8.5956468e-10  0              9.2234004e-05  6.6469172e-14  0              2.9993714    
   2000000   4050           200            200            0.0055605647   1.7827784e-53  0              0.016681694    2.2085235e-10  0              2.3698154e-05  6.6469172e-14  0              2.9993714    
   2100000   4050           200            200            0.0055605624   2.1076341e-54  0              0.016681687    3.0179402e-11  0              3.2383451e-06  6.6469172e-14  0              2.9993714    
[...]
Output  | 0.46454    | 0.46508    | 0.46562    |   0.1 |  0.05
Modify  | 324.01     | 382.44     | 434.42     | 264.6 | 40.07
Other   |            | 104.1      |            |       | 10.91

Nlocal:        2000.25 ave        2401 max        1600 min
Histogram: 2 0 0 0 0 0 0 0 0 2
Nghost:           5.25 ave           7 max           4 min
Histogram: 1 0 0 2 0 0 0 0 0 1
Neighs:        2800.25 ave        3601 max        2000 min
Histogram: 2 0 0 0 0 0 0 0 0 2

Total # of neighbors = 11201
Ave neighs/atom = 1.39995
Neighbor list builds = 174
Dangerous builds = 0
  using 1 OpenMP thread(s) per MPI task
Lattice spacing in x,y,z = 3 3 3
Created orthogonal box = (-7425 -100 -100) to (7425 100 100)
  4 by 1 by 1 MPI processor grid
Created 4950 atoms
  using lattice units in orthogonal box = (-7425 -100 -100) to (7425 100 100)
  create_atoms CPU = 0.001 seconds
Lattice spacing in x,y,z = 3 3 3
Created 3301 atoms
  using lattice units in orthogonal box = (-7425 -100 -100) to (7425 100 100)
  create_atoms CPU = 0.001 seconds
Setting atom values ...
  4950 settings made for diameter
Setting atom values ...
  4950 settings made for mass
Setting atom values ...
  3301 settings made for diameter
Setting atom values ...
  3301 settings made for mass
4950 atoms in group substrate
3301 atoms in group slider1
8251 atoms in group substrate_slider
  1 rigid bodies with 3301 atoms
Generated 0 of 1 mixed pair_coeff terms from geometric mixing rule
Neighbor list info ...
  update every 1 steps, delay 0 steps, check yes
  max neighbors/atom: 2000, page size: 100000
  master list distance cutoff = 3.1
  ghost atom cutoff = 3.1
  binsize = 1.55, bins = 9581 130 130
  1 neighbor lists, perpetual/occasional/extra = 1 0 0
  (1) pair granular, perpetual
      attributes: half, newton on, size, history
      pair build: half/size/bin/newton
      stencil: half/bin/3d
      bin: standard
Setting up Verlet run ...
  Unit style    : micro
  Current step  : 0
  Time step     : 1e-05
Per MPI rank memory allocation (min/avg/max) = 179.9 | 179.9 | 179.9 Mbytes
   Step           Lx             Ly             Lz           Press           Pxx            Pyy            Pzz           KinEng         PotEng          Temp          c_1[1]         c_1[2]         c_1[3]    
         0   14850          200            200            0              0              0              0              0              0              0              2.9028161e-13  0              6            
    100000   14850          200            200            0.0046169671   1.0879376e-35  0              0.013850901    1994733.7      0              5.837488e+10   2.9028161e-13  0              3.3110408    
    200000   14850          200            200            0.0018546211  -1.0879374e-35  0              0.0055638633   591799.43      0              1.7318713e+10  2.9028161e-13  0              3.0429296    
    300000   14850          200            200            0.0005813866   4.9533194e-45  0              0.0017441598   95115.424      0              2.7835051e+09  2.9028161e-13  0              3.0267384    
    400000   14850          200            200            0.0076157785   3.1007127e-43  0              0.022847336    42383.862      0              1.2403424e+09  2.9028161e-13  0              2.9992054    
    500000   14850          200            200            9.1013541e-05 -5.4396871e-36  0              0.00027304062  3281.497       0              96031362       2.9028161e-13  0              3.0013845    
    600000   14850          200            200            0.010879032    4.545664e-44   0              0.032637095    936.5091       0              27406468       2.9028161e-13  0              2.9990132    
    700000   14850          200            200            0.00496126    -1.3599217e-36  0              0.01488378     183.84363      0              5380091.5      2.9028161e-13  0              2.9994154    
    800000   14850          200            200            0.0054754871   1.3395882e-45  0              0.016426461    24.078382      0              704641.74      2.9028161e-13  0              2.9993769    
    900000   14850          200            200            0.0053767694   5.0997069e-37  0              0.016130308    2.3349184      0              68330.213      2.9028161e-13  0              2.9993848    
   1000000   14850          200            200            0.0054449545   2.5059029e-47  0              0.016334863    0.1076653      0              3150.771       2.9028161e-13  0              2.9993797    
   1100000   14850          200            200            0.0055096665   5.7411239e-48  0              0.016529       7.1028749e-05  0              2.0786207      2.9028161e-13  0              2.9993749    
   1200000   14850          200            200            0.0055415007  -3.1873168e-38  0              0.016624502    0.0013173224   0              38.550778      2.9028161e-13  0              2.9993725    
   1300000   14850          200            200            0.0055529562  -3.7185363e-38  0              0.016658869    0.0005477794   0              16.030489      2.9028161e-13  0              2.9993716    
   1400000   14850          200            200            0.0055559922   2.9217071e-38  0              0.016667977    9.6607655e-05  0              2.8271745      2.9028161e-13  0              2.9993714    
   1500000   14850          200            200            0.0055564167   1.4599828e-49  0              0.01666925     9.6064804e-06  0              0.28112882     2.9028161e-13  0              2.9993713    
   1600000   14850          200            200            0.0055562955  -6.6402433e-40  0              0.016668886    4.4750722e-07  0              0.013096074    2.9028161e-13  0              2.9993713    
   1700000   14850          200            200            0.0055561674   9.960365e-40   0              0.016668502    4.4875223e-10  0              1.3132509e-05  2.9028161e-13  0              2.9993714    
   1800000   14850          200            200            0.0055561038   1.4008579e-51  0              0.016668312    5.0742162e-09  0              0.00014849439  2.9028161e-13  0              2.9993714    
   1900000   14850          200            200            0.0055560809   1.6600608e-40  0              0.016668243    2.1622001e-09  0              6.32757e-05    2.9028161e-13  0              2.9993714    
   2000000   14850          200            200            0.0055560748   8.3003041e-41  0              0.016668224    3.8570757e-10  0              1.1287538e-05  2.9028161e-13  0              2.9993714    
   2100000   14850          200            200            0.0055560739   1.8850791e-56  0              0.016668222    3.8779104e-11  0              1.134851e-06   2.9028161e-13  0              2.9993714    
   2200000   14850          200            200            0.0055560741   1.6600608e-40  0              0.016668222    1.8435244e-12  0              5.3949814e-08  2.9028161e-13  0              2.9993714    
   2300000   14850          200            200            0.0055560744  -4.1501521e-41  0              0.016668223    2.4881423e-15  0              7.2814234e-11  2.9028161e-13  0              2.9993714    
   2400000   14850          200            200            0.0055560745   4.1978183e-59  0              0.016668223    1.9754443e-14  0              5.7810385e-10  2.9028161e-13  0              2.9993714    
   2500000   14850          200            200            0.0055560745   4.1501521e-41  0              0.016668224    8.5247072e-15  0              2.4947127e-10  2.9028161e-13  0              2.9993714    
   2600000   14850          200            200            0.0055560746  -4.1501521e-41  0              0.016668224    1.5409515e-15  0              4.5095171e-11  2.9028161e-13  0              2.9993714    
   2700000   14850          200            200            0.0055560746   4.1501521e-41  0              0.016668224    1.9361133e-16  0              5.6659383e-12  2.9028161e-13  0              2.9993714    
   2800000   14850          200            200            0.0055560746   8.3003041e-41  0              0.016668224    4.3665018e-18  0              1.2778348e-13  2.9028161e-13  0              2.9993714    
   2900000   14850          200            200            0.0055560746  -4.1501521e-41  0              0.016668224    2.6980239e-19  0              7.8956314e-15  2.9028161e-13  0              2.9993714    
   3000000   14850          200            200            0.0055560746  -8.3003041e-41  0              0.016668224    1.7235507e-17  0              5.0438846e-13  2.9028161e-13  0              2.9993714    
Loop time of 978.957 on 4 procs for 3000000 steps with 8251 atoms

Performance: 2647716.320 ns/day, 0.000 hours/ns, 3064.486 timesteps/s
100.0% CPU use with 4 MPI tasks x 1 OpenMP threads

MPI task timing breakdown:
Section |  min time  |  avg time  |  max time  |%varavg| %total
---------------------------------------------------------------
Pair    | 211.73     | 320.11     | 429.47     | 587.9 | 32.70
Neigh   | 8.5318     | 8.6025     | 8.6753     |   1.9 |  0.88
Comm    | 40.021     | 148.37     | 259.74     | 850.9 | 15.16
Output  | 0.47963    | 0.48016    | 0.48069    |   0.1 |  0.05
Modify  | 333.88     | 392.71     | 448.54     | 276.1 | 40.12
Other   |            | 108.7      |            |       | 11.10

Nlocal:        2062.75 ave        2476 max        1650 min
Histogram: 2 0 0 0 0 0 0 0 0 2
Nghost:           4.25 ave           6 max           3 min
Histogram: 1 0 0 2 0 0 0 0 0 1
Neighs:        2887.75 ave        3714 max        2062 min
Histogram: 2 0 0 0 0 0 0 0 0 2

Total # of neighbors = 11551
Ave neighs/atom = 1.3999515
Neighbor list builds = 174
Dangerous builds = 0
  using 1 OpenMP thread(s) per MPI task
Lattice spacing in x,y,z = 3 3 3
Created orthogonal box = (-7650 -100 -100) to (7650 100 100)
  4 by 1 by 1 MPI processor grid
Created 5100 atoms
  using lattice units in orthogonal box = (-7650 -100 -100) to (7650 100 100)
  create_atoms CPU = 0.001 seconds
Lattice spacing in x,y,z = 3 3 3
Created 3401 atoms
  using lattice units in orthogonal box = (-7650 -100 -100) to (7650 100 100)
  create_atoms CPU = 0.002 seconds
Setting atom values ...
  5100 settings made for diameter
Setting atom values ...
  5100 settings made for mass
Setting atom values ...
  3401 settings made for diameter
Setting atom values ...
  3401 settings made for mass
5100 atoms in group substrate
3401 atoms in group slider1
8501 atoms in group substrate_slider
  1 rigid bodies with 3401 atoms
Generated 0 of 1 mixed pair_coeff terms from geometric mixing rule
Neighbor list info ...
  update every 1 steps, delay 0 steps, check yes
  max neighbors/atom: 2000, page size: 100000
  master list distance cutoff = 3.1
  ghost atom cutoff = 3.1
  binsize = 1.55, bins = 9871 130 130
  1 neighbor lists, perpetual/occasional/extra = 1 0 0
  (1) pair granular, perpetual
      attributes: half, newton on, size, history
      pair build: half/size/bin/newton
      stencil: half/bin/3d
      bin: standard
Setting up Verlet run ...
  Unit style    : micro
  Current step  : 0
  Time step     : 1e-05
Per MPI rank memory allocation (min/avg/max) = 184.9 | 184.9 | 184.9 Mbytes
   Step           Lx             Ly             Lz           Press           Pxx            Pyy            Pzz           KinEng         PotEng          Temp          c_1[1]         c_1[2]         c_1[3]    
         0   15300          200            200            0              0              0              0              0              0              0              5.6349284e-13  0              6            
    100000   15300          200            200            0.004616976   -1.319924e-36   0              0.013850928    2055227.7      0              5.8376229e+10  5.6349284e-13  0              3.3109577    
    200000   15300          200            200            0.001855472   -1.3199241e-36  0              0.0055664159   610185.76      0              1.733158e+10   5.6349284e-13  0              3.0427265    
    300000   15300          200            200            0.00058349529  1.6052427e-44  0              0.0017504859   98608.934      0              2.8008662e+09  5.6349284e-13  0              3.0265271    
    400000   15300          200            200            0.0038520864   7.098974e-44   0              0.011556259    43656.762      0              1.2400169e+09  5.6349284e-13  0              2.9994842    
    500000   15300          200            200            9.7642434e-05  1.0559393e-35  0              0.0002929273   3869.2665      0              1.0990178e+08  5.6349284e-13  0              3.0012359    
    600000   15300          200            200            0.0087969611   3.2325964e-43  0              0.026390883    1299.5023      0              36910774       5.6349284e-13  0              2.9991424    
    700000   15300          200            200            0.0042784354   5.2796969e-36  0              0.012835306    157.05166      0              4460860.4      5.6349284e-13  0              2.9994703    
    800000   15300          200            200            0.0052085822   3.7944683e-44  0              0.015625747    21.970966      0              624058.43      5.6349284e-13  0              2.9993973    
    900000   15300          200            200            0.0052999945   2.1921977e-45  0              0.015899984    1.5929853      0              45246.799      5.6349284e-13  0              2.9993907    
   1000000   15300          200            200            0.0054314849   4.1247629e-38  0              0.016294455    0.031871514    0              905.27138      5.6349284e-13  0              2.9993808    
   1100000   15300          200            200            0.0055111871  -4.1247629e-38  0              0.016533561    0.0025614674   0              72.755348      5.6349284e-13  0              2.9993748    
   1200000   15300          200            200            0.0055441253   2.2503204e-49  0              0.016632376    0.0028838549   0              81.912371      5.6349284e-13  0              2.9993723    
   1300000   15300          200            200            0.005554351    2.5779768e-39  0              0.016663053    0.00071029136  0              20.174958      5.6349284e-13  0              2.9993715    
   1400000   15300          200            200            0.0055564922   9.6674131e-40  0              0.016669477    9.2741306e-05  0              2.6342034      5.6349284e-13  0              2.9993713    
   1500000   15300          200            200            0.0055565226   3.222471e-40   0              0.016669568    6.6000951e-06  0              0.18746763     5.6349284e-13  0              2.9993713    
   1600000   15300          200            200            0.0055562721   6.444942e-40   0              0.016668816    1.358436e-07   0              0.0038584715   5.6349284e-13  0              2.9993713    
   1700000   15300          200            200            0.0055561144   6.091596e-51   0              0.016668343    9.2899723e-09  0              0.0002638703   5.6349284e-13  0              2.9993714    
   1800000   15300          200            200            0.0055560489   5.6313045e-51  0              0.016668147    1.1145288e-08  0              0.00031656829  5.6349284e-13  0              2.9993714    
   1900000   15300          200            200            0.0055560285   2.452322e-51   0              0.016668085    2.7854186e-09  0              7.9116409e-05  5.6349284e-13  0              2.9993714    
   2000000   15300          200            200            0.0055560242  -2.5779768e-39  0              0.016668072    3.6740319e-10  0              1.0435638e-05  5.6349284e-13  0              2.9993714    
   2100000   15300          200            200            0.0055560241   1.2889884e-39  0              0.016668072    2.6514845e-11  0              7.5312174e-07  5.6349284e-13  0              2.9993714    
   2200000   15300          200            200            0.0055560246  -1.5467861e-38  0              0.016668074    5.7055909e-13  0              1.6206033e-08  5.6349284e-13  0              2.9993714    
   2300000   15300          200            200            0.0055560249   4.1247629e-38  0              0.016668075    3.2949308e-14  0              9.358848e-10   5.6349284e-13  0              2.9993714    
   2400000   15300          200            200            0.005556025    2.5282273e-59  0              0.016668075    4.3008224e-14  0              1.221596e-09   5.6349284e-13  0              2.9993714    
   2500000   15300          200            200            0.005556025   -1.2889884e-39  0              0.016668075    1.0949832e-14  0              3.1101658e-10  5.6349284e-13  0              2.9993714    
   2600000   15300          200            200            0.0055560251  -1.2889884e-39  0              0.016668075    1.4259832e-15  0              4.0503309e-11  5.6349284e-13  0              2.9993714    
   2700000   15300          200            200            0.0055560251  -2.5779768e-39  0              0.016668075    1.8836411e-16  0              5.3502522e-12  5.6349284e-13  0              2.9993714    
   2800000   15300          200            200            0.0055560251   7.8875202e-63  0              0.016668075    3.0255708e-17  0              8.593764e-13   5.6349284e-13  0              2.9993714    
   2900000   15300          200            200            0.0055560251   1.2889884e-39  0              0.016668075    2.4131884e-17  0              6.8543664e-13  5.6349284e-13  0              2.9993714    
   3000000   15300          200            200            0.0055560251   8.1440753e-62  0              0.016668075    1.3907108e-19  0              3.9501439e-15  5.6349284e-13  0              2.9993714    
Loop time of 1011.58 on 4 procs for 3000000 steps with 8501 atoms

Performance: 2562319.077 ns/day, 0.000 hours/ns, 2965.647 timesteps/s
100.0% CPU use with 4 MPI tasks x 1 OpenMP threads

MPI task timing breakdown:
Section |  min time  |  avg time  |  max time  |%varavg| %total
---------------------------------------------------------------
Pair    | 215.15     | 331.45     | 446.79     | 600.5 | 32.77
Neigh   | 8.8567     | 8.9204     | 8.9869     |   1.7 |  0.88
Comm    | 41.7       | 154.71     | 275.07     | 860.2 | 15.29
Output  | 0.49038    | 0.49093    | 0.49152    |   0.1 |  0.05
Modify  | 344.31     | 405.61     | 461.17     | 274.9 | 40.10
Other   |            | 110.4      |            |       | 10.91

Nlocal:        2125.25 ave        2551 max        1700 min
Histogram: 2 0 0 0 0 0 0 0 0 2
Nghost:           5.25 ave           7 max           4 min
Histogram: 1 0 0 2 0 0 0 0 0 1
Neighs:        2975.25 ave        3826 max        2125 min
Histogram: 2 0 0 0 0 0 0 0 0 2

Total # of neighbors = 11901
Ave neighs/atom = 1.3999529
Neighbor list builds = 174
Dangerous builds = 0
  using 1 OpenMP thread(s) per MPI task
Lattice spacing in x,y,z = 3 3 3
Created orthogonal box = (-7875 -100 -100) to (7875 100 100)
  4 by 1 by 1 MPI processor grid
Created 5250 atoms
  using lattice units in orthogonal box = (-7875 -100 -100) to (7875 100 100)
  create_atoms CPU = 0.001 seconds
Lattice spacing in x,y,z = 3 3 3
Created 3501 atoms
  using lattice units in orthogonal box = (-7875 -100 -100) to (7875 100 100)
  create_atoms CPU = 0.001 seconds
Setting atom values ...
  5250 settings made for diameter
Setting atom values ...
  5250 settings made for mass
Setting atom values ...
  3501 settings made for diameter
Setting atom values ...
  3501 settings made for mass
5250 atoms in group substrate
3501 atoms in group slider1
8751 atoms in group substrate_slider
  1 rigid bodies with 3501 atoms
Generated 0 of 1 mixed pair_coeff terms from geometric mixing rule
ERROR: Fix rigid: Bad principal moments (src/RIGID/fix_rigid.cpp:2138)
Last command: run 3000000
