LAMMPS (23 Jun 2022 - Update 1)
  using 1 OpenMP thread(s) per MPI task
variable num index 0 1 2 3 4 5 6 7 8 9 10 11 12 13 14 15 16 17 18 19 20 21 22 23 24 25 26 27 28 29 30 31 32 33 34 35 36 37 38 39

label startloop

include granular.in
### Simulation of contact between two chain

##################### Simulation setup ####################

units micro                              # units
dimension	3                            # dimension
boundary	p p p                        # boundary condition p: periodic
atom_style	sphere                       # atom style
#processors * * 1

####################### Parameter ##################################

variable ind equal ${num}
variable ind equal 0

#variable lat0 equal 1                    #
variable lat1 equal 3*(2^(1/2))          # Lattice distance of bottom chain
variable lat2 equal 3                    # Lattice distance of top chain
variable d1 equal 3                      # Diamter of particle at bottom chain
variable d2 equal 3                      # Diamter of particle at top chain
#variable d3 equal 1                      # Diamter of supporting particle

variable n2e1 equal 1000*v_lat2              # Half length of top chain. 1500 is number of particles
variable n1e1 equal 1.5*v_n2e1*(v_lat1/v_lat2)              # Half length of bottom chain, which is 1.5 time larger than top chain
variable n1e2 equal -v_n1e1
variable n2e2 equal -v_n2e1
#variable lenspr equal -(v_n2e1+50)           # length of the spring connecting top chain and supporting particle
#variable lenspr1 equal -v_lenspr-0.1         # Position of supporting particle upper bound
#variable lenspr2 equal -v_lenspr+0.1         # Position of supporting particle lower bound

variable den equal 2.2 #grams/cm^3      # micrometer^3=10^-12 cm^3 Density of materials

variable V1 equal (1/6)*PI*(v_d1^3)     # Volume of particle 1
variable V2 equal (1/6)*PI*(v_d2^3)     # Volume of particle 2
#variable V3 equal (1/6)*PI*(v_d3^3)     # Volume of particle 3

variable mass1 equal v_den*v_V1  # Mass of particle 1 (picograms)
variable mass2 equal v_den*v_V2  # Mass of particle 2
#variable mass3 equal v_den*v_V3  # Mass of particle 3

# E GPa to picogram/(micrometer-microsecond^2)= 10^3 Pa= 10^-6 GPa
# Force unit(picogram-micrometer/microsecond^2)=10^-9 N= 1nN
# Spring stiffness (force/distance) 10^-3 N/m

#variable K0 equal (1500/50)*(10^5)             # Spring stiffness conneting top chain and sup particle
variable E equal 100*(10^6)                    # Young's Modulus using for Hertz/material model
variable PR equal 0.3                          # Poisson's ratio using for Hertz/material model
variable Fn equal -50-(v_ind*50)                       # Force apply to each particles in top chain
variable dt equal 0.00001                      # Time step units microsecond
variable lgv equal 0.5                         #damping for langevin thermostat for slider


################### Creating the model #################################
lattice sc ${lat1}                                                               # Bottom chain type1
lattice sc 4.24264068711929                                                               
Lattice spacing in x,y,z = 4.2426407 4.2426407 4.2426407

region box block ${n1e2} ${n1e1} -50 50 -50 50 units box
region box block -6363.96103067894 ${n1e1} -50 50 -50 50 units box
region box block -6363.96103067894 6363.96103067894 -50 50 -50 50 units box
region substrate block ${n1e2} ${n1e1} -0.1 0.1 0 0.1 units box
region substrate block -6363.96103067894 ${n1e1} -0.1 0.1 0 0.1 units box
region substrate block -6363.96103067894 6363.96103067894 -0.1 0.1 0 0.1 units box

create_box 2 box
Created orthogonal box = (-6363.961 -50 -50) to (6363.961 50 50)
  4 by 1 by 1 MPI processor grid
create_atoms 1 region substrate
Created 3000 atoms
  using lattice units in orthogonal box = (-6363.961 -50 -50) to (6363.961 50 50)
  create_atoms CPU = 0.001 seconds

lattice sc ${lat2}                                                             # Top chain type2
lattice sc 3                                                             
Lattice spacing in x,y,z = 3 3 3

region slider1 block ${n2e2} ${n2e1} -0.1 0.1 5.9 6.1 units box
region slider1 block -3000 ${n2e1} -0.1 0.1 5.9 6.1 units box
region slider1 block -3000 3000 -0.1 0.1 5.9 6.1 units box

create_atoms 2 region slider1
Created 2001 atoms
  using lattice units in orthogonal box = (-6363.961 -50 -50) to (6363.961 50 50)
  create_atoms CPU = 0.003 seconds

#lattice sc ${lat0}                                                             # Supporting particle type3

#region support block ${lenspr1} ${lenspr2} -0.1 0.1 7.9 8.1 units box

#create_atoms 3 region support

set type 1 diameter ${d1}                    # Set mass and diameter for each particles type
set type 1 diameter 3                    
Setting atom values ...
  3000 settings made for diameter
set type 1 mass ${mass1}
set type 1 mass 31.101767270539
Setting atom values ...
  3000 settings made for mass
set type 2 diameter ${d2}
set type 2 diameter 3
Setting atom values ...
  2001 settings made for diameter
set type 2 mass ${mass2}
set type 2 mass 31.101767270539
Setting atom values ...
  2001 settings made for mass
#set type 3 diameter ${d3}
#set type 3 mass ${mass3}

group substrate region substrate           # Define gorup
3000 atoms in group substrate
group slider1 region slider1
2001 atoms in group slider1
#group support region support
group substrate_slider union substrate slider1
5001 atoms in group substrate_slider

########################## Potential ###################################
pair_style granular
pair_coeff 1 1 hertz/material 0.00000001 0.001 ${PR} tangential mindlin NULL 0.1 0.01 damping viscoelastic              ########### set E between each particle in same type is small to neglect their interaction
pair_coeff 1 1 hertz/material 0.00000001 0.001 0.3 tangential mindlin NULL 0.1 0.01 damping viscoelastic              
pair_coeff 2 2 hertz/material 0.00000001 0.001 ${PR} tangential mindlin NULL 0.1 0.01 damping viscoelastic
pair_coeff 2 2 hertz/material 0.00000001 0.001 0.3 tangential mindlin NULL 0.1 0.01 damping viscoelastic
#pair_coeff 3 3 hertz/material ${E} 0.001 ${PR} tangential mindlin NULL 0.1 0.01 damping viscoelastic
pair_coeff 1 2 hertz/material ${E} 0.001 ${PR} tangential mindlin NULL 0.1 0.01 damping viscoelastic
pair_coeff 1 2 hertz/material 100000000 0.001 ${PR} tangential mindlin NULL 0.1 0.01 damping viscoelastic
pair_coeff 1 2 hertz/material 100000000 0.001 0.3 tangential mindlin NULL 0.1 0.01 damping viscoelastic
#pair_coeff 1 3 hertz/material 0.00000001 0.001 ${PR} tangential mindlin NULL 0.1 0.01 damping viscoelastic
#pair_coeff 2 3 hertz/material 0.00000001 0.001 ${PR} tangential mindlin NULL 0.1 0.01 damping viscoelastic
comm_modify     vel yes
neigh_modify    delay 0 every 1 check yes

### Compute properties ###

compute 1 slider1 com                      # Compute the center of mass of top chain
#compute 2 support com                      # Compute the center of mass of supporting particle

variable p0 equal "step"

variable slider_z equal "c_1[3]"          # output the position of top chain in z-direction

#variable distance equal "c_2[1]-c_1[1]"   # Distance between COM of top chain and supporting particle

thermo 100000
thermo_style custom step lx ly lz press pxx pyy pzz ke pe temp c_1[1] c_1[2] c_1[3] #c_2[1] c_2[2] c_2[3] v_distance

############### Fix ##################


############## Equilibrium the system with apply force ########################

fix force_slider1 slider1 setforce NULL 0 NULL                                # Fix top chain not to move in y-direction

fix f_sub substrate freeze                                                    # Freeze the bottom chain

fix rigid_top slider1 rigid/nve group 1 slider1 langevin 0 0 ${lgv} 6987532   # NVE+langevin
fix rigid_top slider1 rigid/nve group 1 slider1 langevin 0 0 0.5 6987532   
  1 rigid bodies with 2001 atoms

fix add slider1 addforce 0 0 ${Fn} every 1                                    # Add force to top layer
fix add slider1 addforce 0 0 -50 every 1                                    

timestep ${dt}
timestep 1e-05

# fix  nve_1 slider1 nve

dump 		D1 all custom 100000 Equi_${num}_*.dump id type diameter mass xu yu zu
dump 		D1 all custom 100000 Equi_0_*.dump id type diameter mass xu yu zu

run 3000000
Generated 0 of 1 mixed pair_coeff terms from geometric mixing rule
Neighbor list info ...
  update every 1 steps, delay 0 steps, check yes
  max neighbors/atom: 2000, page size: 100000
  master list distance cutoff = 3.1
  ghost atom cutoff = 3.1
  binsize = 1.55, bins = 8212 65 65
  1 neighbor lists, perpetual/occasional/extra = 1 0 0
  (1) pair granular, perpetual
      attributes: half, newton on, size, history
      pair build: half/size/bin/newton
      stencil: half/bin/3d
      bin: standard
Per MPI rank memory allocation (min/avg/max) = 51.26 | 51.27 | 51.29 Mbytes
   Step           Lx             Ly             Lz           Press           Pxx            Pyy            Pzz           KinEng         PotEng          Temp          c_1[1]         c_1[2]         c_1[3]    
         0   12727.922      100            100            0              0              0              0              0              0              0              1.1971759e-13  0              6            
    100000   12727.922      100            100            0.0013347219   0              0              0.0040041656   15031.727      0              7.258283e+08   1.1971759e-13  0              5.5437025    
    200000   12727.922      100            100            0.0013327946   0              0              0.0039983838   19375.65       0              9.3558078e+08  1.1971759e-13  0              4.7869199    
    300000   12727.922      100            100            0.0011475278   0              0              0.0034425835   20005.825      0              9.6600968e+08  1.1971759e-13  0              3.9894717    
    400000   12727.922      100            100            0.00093989831  0              0              0.0028196949   20091.883      0              9.7016511e+08  1.1971759e-13  0              3.1865202    
    500000   12727.922      100            100            0.00046676979  4.7599694e-36  0              0.0014003094   6089.6198      0              2.9404595e+08  1.1971759e-13  0              3.0157284    
    600000   12727.922      100            100           -0.00018627354  5.0773092e-35  0             -0.00055882063  1203.721       0              58123379       1.1971759e-13  0              3.0034359    
    700000   12727.922      100            100           -8.8077535e-05 -3.1733124e-36  0             -0.0002642326   260.14131      0              12561293       1.1971759e-13  0              3.0002703    
    800000   12727.922      100            100            0.0021352559   0.0001315943   0              0.0062741735   13.124591      0              633739.53      1.1971759e-13  0              2.9982539    
    900000   12727.922      100            100            0.00043803691  1.5759912e-05  0              0.0012983508   2.6687449      0              128864.14      1.1971759e-13  0              2.9991885    
   1000000   12727.922      100            100            0.00093611667  3.6550188e-05  0              0.0027717998   0.41366677     0              19974.488      1.1971759e-13  0              2.9988291    
   1100000   12727.922      100            100            0.00081125114 -1.07667e-05    0              0.0024445201   0.13065863     0              6309.0377      1.1971759e-13  0              2.9989032    
   1200000   12727.922      100            100            0.00076221584 -8.7511407e-06  0              0.0022953986   0.0033174356   0              160.18709      1.1971759e-13  0              2.9989358    
   1300000   12727.922      100            100            0.00078039568 -7.6641683e-06  0              0.0023488512   0.0026860828   0              129.70133      1.1971759e-13  0              2.9989232    
   1400000   12727.922      100            100            0.00078612965 -7.8099385e-06  0              0.0023661989   2.6320846e-05  0              1.2709395      1.1971759e-13  0              2.9989194    
   1500000   12727.922      100            100            0.00078343833 -7.7289986e-06  0              0.002358044    5.2836824e-05  0              2.5513011      1.1971759e-13  0              2.9989213    
   1600000   12727.922      100            100            0.0007828034  -7.7134753e-06  0              0.0023561237   1.0315323e-07  0              0.0049809003   1.1971759e-13  0              2.9989217    
   1700000   12727.922      100            100            0.0007831996  -7.7239317e-06  0              0.0023573227   9.9682524e-07  0              0.048133123    1.1971759e-13  0              2.9989214    
   1800000   12727.922      100            100            0.00078326516 -7.7255074e-06  0              0.002357521    5.8343774e-11  0              2.817212e-06   1.1971759e-13  0              2.9989214    
   1900000   12727.922      100            100            0.00078320829 -7.7239894e-06  0              0.0023573488   1.8089405e-08  0              0.00087347264  1.1971759e-13  0              2.9989214    
   2000000   12727.922      100            100            0.00078320234 -7.7238545e-06  0              0.0023573309   6.2509859e-11  0              3.0183774e-06  1.1971759e-13  0              2.9989214    
   2100000   12727.922      100            100            0.00078321032 -7.724066e-06   0              0.002357355    3.1565202e-10  0              1.5241706e-05  1.1971759e-13  0              2.9989214    
   2200000   12727.922      100            100            0.00078321072 -7.7240735e-06  0              0.0023573562   3.9055635e-12  0              1.8858568e-07  1.1971759e-13  0              2.9989214    
   2300000   12727.922      100            100            0.00078320962 -7.7240445e-06  0              0.0023573529   5.2862315e-12  0              2.552532e-07   1.1971759e-13  0              2.9989214    
   2400000   12727.922      100            100            0.00078320962 -7.7240449e-06  0              0.0023573529   1.4812516e-13  0              7.1524339e-09  1.1971759e-13  0              2.9989214    
   2500000   12727.922      100            100            0.00078320977 -7.7240488e-06  0              0.0023573534   8.4640509e-14  0              4.0869873e-09  1.1971759e-13  0              2.9989214    
   2600000   12727.922      100            100            0.00078320976 -7.7240487e-06  0              0.0023573533   4.3073622e-15  0              2.0798711e-10  1.1971759e-13  0              2.9989214    
   2700000   12727.922      100            100            0.00078320974 -7.7240481e-06  0              0.0023573533   1.2962785e-15  0              6.2592652e-11  1.1971759e-13  0              2.9989214    
   2800000   12727.922      100            100            0.00078320975 -7.7240478e-06  0              0.0023573533   1.3955294e-16  0              6.7385121e-12  1.1971759e-13  0              2.9989214    
   2900000   12727.922      100            100            0.00078320975 -7.724048e-06   0              0.0023573533   3.3608044e-17  0              1.6228122e-12  1.1971759e-13  0              2.9989214    
   3000000   12727.922      100            100            0.00078320975 -7.7240474e-06  0              0.0023573533   4.343929e-18   0              2.0975278e-13  1.1971759e-13  0              2.9989214    
Loop time of 540.976 on 4 procs for 3000000 steps with 5001 atoms

Performance: 4791340.566 ns/day, 0.000 hours/ns, 5545.533 timesteps/s
100.0% CPU use with 4 MPI tasks x 1 OpenMP threads

MPI task timing breakdown:
Section |  min time  |  avg time  |  max time  |%varavg| %total
---------------------------------------------------------------
Pair    | 23.047     | 73.967     | 124.67     | 585.7 | 13.67
Neigh   | 0.74242    | 0.75786    | 0.77345    |   1.3 |  0.14
Comm    | 11.725     | 17.305     | 22.64      |  96.8 |  3.20
Output  | 0.34808    | 0.34875    | 0.34944    |   0.1 |  0.06
Modify  | 321.84     | 341.11     | 359.84     | 100.0 | 63.05
Other   |            | 107.5      |            |       | 19.87

Nlocal:        1250.25 ave        1752 max         749 min
Histogram: 2 0 0 0 0 0 0 0 0 2
Nghost:           1.75 ave           3 max           1 min
Histogram: 2 0 0 0 0 1 0 0 0 1
Neighs:         684.25 ave        1369 max           0 min
Histogram: 2 0 0 0 0 0 0 0 0 2

Total # of neighbors = 2737
Ave neighs/atom = 0.54729054
Neighbor list builds = 64
Dangerous builds = 0

undump D1

############ Add spring between top chain to supp particle and then equilibrium  ###########

#fix sp1 support spring couple slider1 ${K0} ${lenspr} NULL NULL 0                                 # Add spring

#dump 		D2 all custom 100000 add_${num}*.dump id type diameter mass xu yu zu

#fix add1 all print 10 "${p0} ${distance} ${slider_z}" file add_distance_${num}.txt screen no      # out put step, distance(spring length), z-position of top chain

#run 1000000

#undump D2

#unfix add1

########## Pulling the supporting particle with constant velocity #############

#fix m1 support move linear 0.1 0 0 units box                                                      # apply constant velocity to supporting particles along x-direction V=0.1m/s

#fix move1 all print 100 "${p0} ${distance} ${slider_z}" file move_distance_${num}.txt screen no

#dump 		1 all custom 50000 move_${num}_*.dump id type diameter mass xu yu zu

#run 10000000

clear
  using 1 OpenMP thread(s) per MPI task

next num

jump SELF startloop

include granular.in
### Simulation of contact between two chain

##################### Simulation setup ####################

units micro                              # units
dimension	3                            # dimension
boundary	p p p                        # boundary condition p: periodic
atom_style	sphere                       # atom style
#processors * * 1

####################### Parameter ##################################

variable ind equal ${num}
variable ind equal 1

#variable lat0 equal 1                    #
variable lat1 equal 3*(2^(1/2))          # Lattice distance of bottom chain
variable lat2 equal 3                    # Lattice distance of top chain
variable d1 equal 3                      # Diamter of particle at bottom chain
variable d2 equal 3                      # Diamter of particle at top chain
#variable d3 equal 1                      # Diamter of supporting particle

variable n2e1 equal 1000*v_lat2              # Half length of top chain. 1500 is number of particles
variable n1e1 equal 1.5*v_n2e1*(v_lat1/v_lat2)              # Half length of bottom chain, which is 1.5 time larger than top chain
variable n1e2 equal -v_n1e1
variable n2e2 equal -v_n2e1
#variable lenspr equal -(v_n2e1+50)           # length of the spring connecting top chain and supporting particle
#variable lenspr1 equal -v_lenspr-0.1         # Position of supporting particle upper bound
#variable lenspr2 equal -v_lenspr+0.1         # Position of supporting particle lower bound

variable den equal 2.2 #grams/cm^3      # micrometer^3=10^-12 cm^3 Density of materials

variable V1 equal (1/6)*PI*(v_d1^3)     # Volume of particle 1
variable V2 equal (1/6)*PI*(v_d2^3)     # Volume of particle 2
#variable V3 equal (1/6)*PI*(v_d3^3)     # Volume of particle 3

variable mass1 equal v_den*v_V1  # Mass of particle 1 (picograms)
variable mass2 equal v_den*v_V2  # Mass of particle 2
#variable mass3 equal v_den*v_V3  # Mass of particle 3

# E GPa to picogram/(micrometer-microsecond^2)= 10^3 Pa= 10^-6 GPa
# Force unit(picogram-micrometer/microsecond^2)=10^-9 N= 1nN
# Spring stiffness (force/distance) 10^-3 N/m

#variable K0 equal (1500/50)*(10^5)             # Spring stiffness conneting top chain and sup particle
variable E equal 100*(10^6)                    # Young's Modulus using for Hertz/material model
variable PR equal 0.3                          # Poisson's ratio using for Hertz/material model
variable Fn equal -50-(v_ind*50)                       # Force apply to each particles in top chain
variable dt equal 0.00001                      # Time step units microsecond
variable lgv equal 0.5                         #damping for langevin thermostat for slider


################### Creating the model #################################
lattice sc ${lat1}                                                               # Bottom chain type1
lattice sc 4.24264068711929                                                               
Lattice spacing in x,y,z = 4.2426407 4.2426407 4.2426407

region box block ${n1e2} ${n1e1} -50 50 -50 50 units box
region box block -6363.96103067894 ${n1e1} -50 50 -50 50 units box
region box block -6363.96103067894 6363.96103067894 -50 50 -50 50 units box
region substrate block ${n1e2} ${n1e1} -0.1 0.1 0 0.1 units box
region substrate block -6363.96103067894 ${n1e1} -0.1 0.1 0 0.1 units box
region substrate block -6363.96103067894 6363.96103067894 -0.1 0.1 0 0.1 units box

create_box 2 box
Created orthogonal box = (-6363.961 -50 -50) to (6363.961 50 50)
  4 by 1 by 1 MPI processor grid
create_atoms 1 region substrate
Created 3000 atoms
  using lattice units in orthogonal box = (-6363.961 -50 -50) to (6363.961 50 50)
  create_atoms CPU = 0.001 seconds

lattice sc ${lat2}                                                             # Top chain type2
lattice sc 3                                                             
Lattice spacing in x,y,z = 3 3 3

region slider1 block ${n2e2} ${n2e1} -0.1 0.1 5.9 6.1 units box
region slider1 block -3000 ${n2e1} -0.1 0.1 5.9 6.1 units box
region slider1 block -3000 3000 -0.1 0.1 5.9 6.1 units box

create_atoms 2 region slider1
Created 2001 atoms
  using lattice units in orthogonal box = (-6363.961 -50 -50) to (6363.961 50 50)
  create_atoms CPU = 0.001 seconds

#lattice sc ${lat0}                                                             # Supporting particle type3

#region support block ${lenspr1} ${lenspr2} -0.1 0.1 7.9 8.1 units box

#create_atoms 3 region support

set type 1 diameter ${d1}                    # Set mass and diameter for each particles type
set type 1 diameter 3                    
Setting atom values ...
  3000 settings made for diameter
set type 1 mass ${mass1}
set type 1 mass 31.101767270539
Setting atom values ...
  3000 settings made for mass
set type 2 diameter ${d2}
set type 2 diameter 3
Setting atom values ...
  2001 settings made for diameter
set type 2 mass ${mass2}
set type 2 mass 31.101767270539
Setting atom values ...
  2001 settings made for mass
#set type 3 diameter ${d3}
#set type 3 mass ${mass3}

group substrate region substrate           # Define gorup
3000 atoms in group substrate
group slider1 region slider1
2001 atoms in group slider1
#group support region support
group substrate_slider union substrate slider1
5001 atoms in group substrate_slider

########################## Potential ###################################
pair_style granular
pair_coeff 1 1 hertz/material 0.00000001 0.001 ${PR} tangential mindlin NULL 0.1 0.01 damping viscoelastic              ########### set E between each particle in same type is small to neglect their interaction
pair_coeff 1 1 hertz/material 0.00000001 0.001 0.3 tangential mindlin NULL 0.1 0.01 damping viscoelastic              
pair_coeff 2 2 hertz/material 0.00000001 0.001 ${PR} tangential mindlin NULL 0.1 0.01 damping viscoelastic
pair_coeff 2 2 hertz/material 0.00000001 0.001 0.3 tangential mindlin NULL 0.1 0.01 damping viscoelastic
#pair_coeff 3 3 hertz/material ${E} 0.001 ${PR} tangential mindlin NULL 0.1 0.01 damping viscoelastic
pair_coeff 1 2 hertz/material ${E} 0.001 ${PR} tangential mindlin NULL 0.1 0.01 damping viscoelastic
pair_coeff 1 2 hertz/material 100000000 0.001 ${PR} tangential mindlin NULL 0.1 0.01 damping viscoelastic
pair_coeff 1 2 hertz/material 100000000 0.001 0.3 tangential mindlin NULL 0.1 0.01 damping viscoelastic
#pair_coeff 1 3 hertz/material 0.00000001 0.001 ${PR} tangential mindlin NULL 0.1 0.01 damping viscoelastic
#pair_coeff 2 3 hertz/material 0.00000001 0.001 ${PR} tangential mindlin NULL 0.1 0.01 damping viscoelastic
comm_modify     vel yes
neigh_modify    delay 0 every 1 check yes

### Compute properties ###

compute 1 slider1 com                      # Compute the center of mass of top chain
#compute 2 support com                      # Compute the center of mass of supporting particle

variable p0 equal "step"

variable slider_z equal "c_1[3]"          # output the position of top chain in z-direction

#variable distance equal "c_2[1]-c_1[1]"   # Distance between COM of top chain and supporting particle

thermo 100000
thermo_style custom step lx ly lz press pxx pyy pzz ke pe temp c_1[1] c_1[2] c_1[3] #c_2[1] c_2[2] c_2[3] v_distance

############### Fix ##################


############## Equilibrium the system with apply force ########################

fix force_slider1 slider1 setforce NULL 0 NULL                                # Fix top chain not to move in y-direction

fix f_sub substrate freeze                                                    # Freeze the bottom chain

fix rigid_top slider1 rigid/nve group 1 slider1 langevin 0 0 ${lgv} 6987532   # NVE+langevin
fix rigid_top slider1 rigid/nve group 1 slider1 langevin 0 0 0.5 6987532   
  1 rigid bodies with 2001 atoms

fix add slider1 addforce 0 0 ${Fn} every 1                                    # Add force to top layer
fix add slider1 addforce 0 0 -100 every 1                                    

timestep ${dt}
timestep 1e-05

# fix  nve_1 slider1 nve

dump 		D1 all custom 100000 Equi_${num}_*.dump id type diameter mass xu yu zu
dump 		D1 all custom 100000 Equi_1_*.dump id type diameter mass xu yu zu

run 3000000
Generated 0 of 1 mixed pair_coeff terms from geometric mixing rule
Neighbor list info ...
  update every 1 steps, delay 0 steps, check yes
  max neighbors/atom: 2000, page size: 100000
  master list distance cutoff = 3.1
  ghost atom cutoff = 3.1
  binsize = 1.55, bins = 8212 65 65
  1 neighbor lists, perpetual/occasional/extra = 1 0 0
  (1) pair granular, perpetual
      attributes: half, newton on, size, history
      pair build: half/size/bin/newton
      stencil: half/bin/3d
      bin: standard
Per MPI rank memory allocation (min/avg/max) = 51.26 | 51.27 | 51.29 Mbytes
   Step           Lx             Ly             Lz           Press           Pxx            Pyy            Pzz           KinEng         PotEng          Temp          c_1[1]         c_1[2]         c_1[3]    
         0   12727.922      100            100            0              0              0              0              0              0              0              1.1971759e-13  0              6            
    100000   12727.922      100            100            0.002620154    0              0              0.0078604619   60126.908      0              2.9033132e+09  1.1971759e-13  0              5.0874051    
    200000   12727.922      100            100            0.0022444989   0              0              0.0067334968   77502.599      0              3.7423231e+09  1.1971759e-13  0              3.5738397    
    300000   12727.922      100            100            0.00077276043 -1.9039875e-35  0              0.0023182813   14526.778      0              7.0144611e+08  1.1971759e-13  0              3.1280413    
    400000   12727.922      100            100            0.00039119076  2.1667222e-41  0              0.0011735723   4350.4777      0              2.10069e+08    1.1971759e-13  0              3.0227456    
    500000   12727.922      100            100            0.00012628356 -2.5386474e-35  0              0.00037885067  495.87645      0              23944099       1.1971759e-13  0              3.0064514    
    600000   12727.922      100            100           -6.8854106e-06  5.0773021e-35  0             -2.0656232e-05  1.5312599      0              73939.06       1.1971759e-13  0              3.0007788    
    700000   12727.922      100            100            0.0027107483  -2.7746028e-05  0              0.0081599909   18.926098      0              913873.54      1.1971759e-13  0              2.9979907    
    800000   12727.922      100            100            0.0013148086   0.00027512611  0              0.0036692998   3.2906197      0              158892.25      1.1971759e-13  0              2.9986512    
    900000   12727.922      100            100            0.0016307883   0.00022519939  0              0.0046671656   0.96277309     0              46488.867      1.1971759e-13  0              2.9984886    
   1000000   12727.922      100            100            0.0016996961   0.00023441716  0              0.0048646711   0.052862923    0              2552.5614      1.1971759e-13  0              2.9984538    
   1100000   12727.922      100            100            0.0016236856   0.00022880162  0              0.0046422553   0.00015925814  0              7.6900055      1.1971759e-13  0              2.99849      
   1200000   12727.922      100            100            0.0016536517   0.00022953695  0              0.004731418    0.0013998851   0              67.595439      1.1971759e-13  0              2.9984757    
   1300000   12727.922      100            100            0.0016480387   0.00022954907  0              0.0047145669   0.00032158491  0              15.528184      1.1971759e-13  0              2.9984783    
   1400000   12727.922      100            100            0.0016469715   0.00022954916  0              0.0047113653   1.9147647e-05  0              0.92457134     1.1971759e-13  0              2.9984789    
   1500000   12727.922      100            100            0.0016482913   0.00022954909  0              0.0047153247   1.4641862e-08  0              0.00070700313  1.1971759e-13  0              2.9984782    
   1600000   12727.922      100            100            0.0016477419   0.00022954927  0              0.0047136764   4.2823749e-07  0              0.020678056    1.1971759e-13  0              2.9984785    
   1700000   12727.922      100            100            0.0016478524   0.00022954926  0              0.0047140081   1.0732453e-07  0              0.0051823176   1.1971759e-13  0              2.9984784    
   1800000   12727.922      100            100            0.0016478685   0.00022954925  0              0.0047140563   7.0276175e-09  0              0.0003393385   1.1971759e-13  0              2.9984784    
   1900000   12727.922      100            100            0.0016478451   0.00022954926  0              0.0047139862   2.8733417e-14  0              1.3874339e-09  1.1971759e-13  0              2.9984784    
   2000000   12727.922      100            100            0.0016478553   0.00022954925  0              0.0047140165   1.3011077e-10  0              6.2825836e-06  1.1971759e-13  0              2.9984784    
   2100000   12727.922      100            100            0.0016478531   0.00022954925  0              0.00471401     3.5667431e-11  0              1.7222526e-06  1.1971759e-13  0              2.9984784    
   2200000   12727.922      100            100            0.0016478529   0.00022954925  0              0.0047140093   2.5574382e-12  0              1.2348954e-07  1.1971759e-13  0              2.9984784    
   2300000   12727.922      100            100            0.0016478533   0.00022954925  0              0.0047140106   1.1811226e-15  0              5.7032183e-11  1.1971759e-13  0              2.9984784    
   2400000   12727.922      100            100            0.0016478531   0.00022954925  0              0.00471401     3.944939e-14   0              1.9048699e-09  1.1971759e-13  0              2.9984784    
   2500000   12727.922      100            100            0.0016478531   0.00022954925  0              0.0047140101   1.1814302e-14  0              5.7047037e-10  1.1971759e-13  0              2.9984784    
   2600000   12727.922      100            100            0.0016478531   0.00022954925  0              0.0047140101   8.5462017e-16  0              4.126655e-11   1.1971759e-13  0              2.9984784    
   2700000   12727.922      100            100            0.0016478531   0.00022954925  0              0.0047140101   4.7564255e-19  0              2.2967076e-14  1.1971759e-13  0              2.9984784    
   2800000   12727.922      100            100            0.0016478531   0.00022954925  0              0.0047140101   2.2689956e-17  0              1.0956168e-12  1.1971759e-13  0              2.9984784    
   2900000   12727.922      100            100            0.0016478531   0.00022954925  0              0.0047140101   7.4846948e-18  0              3.6140913e-13  1.1971759e-13  0              2.9984784    
   3000000   12727.922      100            100            0.0016478531   0.00022954925  0              0.0047140101   1.529718e-18   0              7.3864607e-14  1.1971759e-13  0              2.9984784    
Loop time of 534.481 on 4 procs for 3000000 steps with 5001 atoms

Performance: 4849565.240 ns/day, 0.000 hours/ns, 5612.923 timesteps/s
100.0% CPU use with 4 MPI tasks x 1 OpenMP threads

MPI task timing breakdown:
Section |  min time  |  avg time  |  max time  |%varavg| %total
---------------------------------------------------------------
Pair    | 22.93      | 75.543     | 128.91     | 599.4 | 14.13
Neigh   | 0.81652    | 0.82941    | 0.84196    |   1.1 |  0.16
Comm    | 11.765     | 17.454     | 21.297     |  94.0 |  3.27
Output  | 0.34338    | 0.34402    | 0.34468    |   0.1 |  0.06
Modify  | 319.15     | 334.58     | 350.09     |  80.7 | 62.60
Other   |            | 105.7      |            |       | 19.78

Nlocal:        1250.25 ave        1752 max         749 min
Histogram: 2 0 0 0 0 0 0 0 0 2
Nghost:           1.75 ave           3 max           1 min
Histogram: 2 0 0 0 0 1 0 0 0 1
Neighs:         684.75 ave        1370 max           0 min
Histogram: 2 0 0 0 0 0 0 0 0 2

Total # of neighbors = 2739
Ave neighs/atom = 0.54769046
Neighbor list builds = 70
Dangerous builds = 0

undump D1

############ Add spring between top chain to supp particle and then equilibrium  ###########

#fix sp1 support spring couple slider1 ${K0} ${lenspr} NULL NULL 0                                 # Add spring

#dump 		D2 all custom 100000 add_${num}*.dump id type diameter mass xu yu zu

#fix add1 all print 10 "${p0} ${distance} ${slider_z}" file add_distance_${num}.txt screen no      # out put step, distance(spring length), z-position of top chain

#run 1000000

#undump D2

#unfix add1

########## Pulling the supporting particle with constant velocity #############

#fix m1 support move linear 0.1 0 0 units box                                                      # apply constant velocity to supporting particles along x-direction V=0.1m/s

#fix move1 all print 100 "${p0} ${distance} ${slider_z}" file move_distance_${num}.txt screen no

#dump 		1 all custom 50000 move_${num}_*.dump id type diameter mass xu yu zu

#run 10000000

clear
  using 1 OpenMP thread(s) per MPI task

next num

jump SELF startloop

include granular.in
### Simulation of contact between two chain

##################### Simulation setup ####################

units micro                              # units
dimension	3                            # dimension
boundary	p p p                        # boundary condition p: periodic
atom_style	sphere                       # atom style
#processors * * 1

####################### Parameter ##################################

variable ind equal ${num}
variable ind equal 2

#variable lat0 equal 1                    #
variable lat1 equal 3*(2^(1/2))          # Lattice distance of bottom chain
variable lat2 equal 3                    # Lattice distance of top chain
variable d1 equal 3                      # Diamter of particle at bottom chain
variable d2 equal 3                      # Diamter of particle at top chain
#variable d3 equal 1                      # Diamter of supporting particle

variable n2e1 equal 1000*v_lat2              # Half length of top chain. 1500 is number of particles
variable n1e1 equal 1.5*v_n2e1*(v_lat1/v_lat2)              # Half length of bottom chain, which is 1.5 time larger than top chain
variable n1e2 equal -v_n1e1
variable n2e2 equal -v_n2e1
#variable lenspr equal -(v_n2e1+50)           # length of the spring connecting top chain and supporting particle
#variable lenspr1 equal -v_lenspr-0.1         # Position of supporting particle upper bound
#variable lenspr2 equal -v_lenspr+0.1         # Position of supporting particle lower bound

variable den equal 2.2 #grams/cm^3      # micrometer^3=10^-12 cm^3 Density of materials

variable V1 equal (1/6)*PI*(v_d1^3)     # Volume of particle 1
variable V2 equal (1/6)*PI*(v_d2^3)     # Volume of particle 2
#variable V3 equal (1/6)*PI*(v_d3^3)     # Volume of particle 3

variable mass1 equal v_den*v_V1  # Mass of particle 1 (picograms)
variable mass2 equal v_den*v_V2  # Mass of particle 2
#variable mass3 equal v_den*v_V3  # Mass of particle 3

# E GPa to picogram/(micrometer-microsecond^2)= 10^3 Pa= 10^-6 GPa
# Force unit(picogram-micrometer/microsecond^2)=10^-9 N= 1nN
# Spring stiffness (force/distance) 10^-3 N/m

#variable K0 equal (1500/50)*(10^5)             # Spring stiffness conneting top chain and sup particle
variable E equal 100*(10^6)                    # Young's Modulus using for Hertz/material model
variable PR equal 0.3                          # Poisson's ratio using for Hertz/material model
variable Fn equal -50-(v_ind*50)                       # Force apply to each particles in top chain
variable dt equal 0.00001                      # Time step units microsecond
variable lgv equal 0.5                         #damping for langevin thermostat for slider


################### Creating the model #################################
lattice sc ${lat1}                                                               # Bottom chain type1
lattice sc 4.24264068711929                                                               
Lattice spacing in x,y,z = 4.2426407 4.2426407 4.2426407

region box block ${n1e2} ${n1e1} -50 50 -50 50 units box
region box block -6363.96103067894 ${n1e1} -50 50 -50 50 units box
region box block -6363.96103067894 6363.96103067894 -50 50 -50 50 units box
region substrate block ${n1e2} ${n1e1} -0.1 0.1 0 0.1 units box
region substrate block -6363.96103067894 ${n1e1} -0.1 0.1 0 0.1 units box
region substrate block -6363.96103067894 6363.96103067894 -0.1 0.1 0 0.1 units box

create_box 2 box
Created orthogonal box = (-6363.961 -50 -50) to (6363.961 50 50)
  4 by 1 by 1 MPI processor grid
create_atoms 1 region substrate
Created 3000 atoms
  using lattice units in orthogonal box = (-6363.961 -50 -50) to (6363.961 50 50)
  create_atoms CPU = 0.001 seconds

lattice sc ${lat2}                                                             # Top chain type2
lattice sc 3                                                             
Lattice spacing in x,y,z = 3 3 3

region slider1 block ${n2e2} ${n2e1} -0.1 0.1 5.9 6.1 units box
region slider1 block -3000 ${n2e1} -0.1 0.1 5.9 6.1 units box
region slider1 block -3000 3000 -0.1 0.1 5.9 6.1 units box

create_atoms 2 region slider1
Created 2001 atoms
  using lattice units in orthogonal box = (-6363.961 -50 -50) to (6363.961 50 50)
  create_atoms CPU = 0.001 seconds

#lattice sc ${lat0}                                                             # Supporting particle type3

#region support block ${lenspr1} ${lenspr2} -0.1 0.1 7.9 8.1 units box

#create_atoms 3 region support

set type 1 diameter ${d1}                    # Set mass and diameter for each particles type
set type 1 diameter 3                    
Setting atom values ...
  3000 settings made for diameter
set type 1 mass ${mass1}
set type 1 mass 31.101767270539
Setting atom values ...
  3000 settings made for mass
set type 2 diameter ${d2}
set type 2 diameter 3
Setting atom values ...
  2001 settings made for diameter
set type 2 mass ${mass2}
set type 2 mass 31.101767270539
Setting atom values ...
  2001 settings made for mass
#set type 3 diameter ${d3}
#set type 3 mass ${mass3}

group substrate region substrate           # Define gorup
3000 atoms in group substrate
group slider1 region slider1
2001 atoms in group slider1
#group support region support
group substrate_slider union substrate slider1
5001 atoms in group substrate_slider

########################## Potential ###################################
pair_style granular
pair_coeff 1 1 hertz/material 0.00000001 0.001 ${PR} tangential mindlin NULL 0.1 0.01 damping viscoelastic              ########### set E between each particle in same type is small to neglect their interaction
pair_coeff 1 1 hertz/material 0.00000001 0.001 0.3 tangential mindlin NULL 0.1 0.01 damping viscoelastic              
pair_coeff 2 2 hertz/material 0.00000001 0.001 ${PR} tangential mindlin NULL 0.1 0.01 damping viscoelastic
pair_coeff 2 2 hertz/material 0.00000001 0.001 0.3 tangential mindlin NULL 0.1 0.01 damping viscoelastic
#pair_coeff 3 3 hertz/material ${E} 0.001 ${PR} tangential mindlin NULL 0.1 0.01 damping viscoelastic
pair_coeff 1 2 hertz/material ${E} 0.001 ${PR} tangential mindlin NULL 0.1 0.01 damping viscoelastic
pair_coeff 1 2 hertz/material 100000000 0.001 ${PR} tangential mindlin NULL 0.1 0.01 damping viscoelastic
pair_coeff 1 2 hertz/material 100000000 0.001 0.3 tangential mindlin NULL 0.1 0.01 damping viscoelastic
#pair_coeff 1 3 hertz/material 0.00000001 0.001 ${PR} tangential mindlin NULL 0.1 0.01 damping viscoelastic
#pair_coeff 2 3 hertz/material 0.00000001 0.001 ${PR} tangential mindlin NULL 0.1 0.01 damping viscoelastic
comm_modify     vel yes
neigh_modify    delay 0 every 1 check yes

### Compute properties ###

compute 1 slider1 com                      # Compute the center of mass of top chain
#compute 2 support com                      # Compute the center of mass of supporting particle

variable p0 equal "step"

variable slider_z equal "c_1[3]"          # output the position of top chain in z-direction

#variable distance equal "c_2[1]-c_1[1]"   # Distance between COM of top chain and supporting particle

thermo 100000
thermo_style custom step lx ly lz press pxx pyy pzz ke pe temp c_1[1] c_1[2] c_1[3] #c_2[1] c_2[2] c_2[3] v_distance

############### Fix ##################


############## Equilibrium the system with apply force ########################

fix force_slider1 slider1 setforce NULL 0 NULL                                # Fix top chain not to move in y-direction

fix f_sub substrate freeze                                                    # Freeze the bottom chain

fix rigid_top slider1 rigid/nve group 1 slider1 langevin 0 0 ${lgv} 6987532   # NVE+langevin
fix rigid_top slider1 rigid/nve group 1 slider1 langevin 0 0 0.5 6987532   
  1 rigid bodies with 2001 atoms

fix add slider1 addforce 0 0 ${Fn} every 1                                    # Add force to top layer
fix add slider1 addforce 0 0 -150 every 1                                    

timestep ${dt}
timestep 1e-05

# fix  nve_1 slider1 nve

dump 		D1 all custom 100000 Equi_${num}_*.dump id type diameter mass xu yu zu
dump 		D1 all custom 100000 Equi_2_*.dump id type diameter mass xu yu zu

run 3000000
Generated 0 of 1 mixed pair_coeff terms from geometric mixing rule
Neighbor list info ...
  update every 1 steps, delay 0 steps, check yes
  max neighbors/atom: 2000, page size: 100000
  master list distance cutoff = 3.1
  ghost atom cutoff = 3.1
  binsize = 1.55, bins = 8212 65 65
  1 neighbor lists, perpetual/occasional/extra = 1 0 0
  (1) pair granular, perpetual
      attributes: half, newton on, size, history
      pair build: half/size/bin/newton
      stencil: half/bin/3d
      bin: standard
Per MPI rank memory allocation (min/avg/max) = 51.26 | 51.27 | 51.29 Mbytes
   Step           Lx             Ly             Lz           Press           Pxx            Pyy            Pzz           KinEng         PotEng          Temp          c_1[1]         c_1[2]         c_1[3]    
         0   12727.922      100            100            0              0              0              0              0              0              0              1.1971759e-13  0              6            
    100000   12727.922      100            100            0.0038562963   0              0              0.011568889    135285.54      0              6.5324547e+09  1.1971759e-13  0              4.6311076    
    200000   12727.922      100            100           -0.00043598845 -1.269325e-35   0             -0.0013079654   5778.6735      0              2.7903146e+08  1.1971759e-13  0              3.3187243    
    300000   12727.922      100            100            0.0010591191   1.0154608e-34  0              0.0031773572   27123.433      0              1.3096935e+09  1.1971759e-13  0              3.013367     
    400000   12727.922      100            100           -0.00037098795  7.3230761e-42  0             -0.0011129639   5133.4371      0              2.478753e+08   1.1971759e-13  0              3.0047017    
    500000   12727.922      100            100            0.010988597    0.00084162179  0              0.032124168    552.94007      0              26699497       1.1971759e-13  0              2.9960535    
    600000   12727.922      100            100            0.00051192668  7.8056308e-05  0              0.0014577237   122.66564      0              5923084.8      1.1971759e-13  0              2.9990985    
    700000   12727.922      100            100            0.0014595293   0.00034842665  0              0.0040301612   3.4390351      0              166058.7       1.1971759e-13  0              2.9985978    
    800000   12727.922      100            100            0.0028694222   0.00020924886  0              0.0083990179   0.022435395    0              1083.3249      1.1971759e-13  0              2.9979708    
    900000   12727.922      100            100            0.0023405716   0.00040092977  0              0.0066207852   0.058157077    0              2808.1971      1.1971759e-13  0              2.9981971    
   1000000   12727.922      100            100            0.002531032    0.00037346494  0              0.007219631    0.023917128    0              1154.8725      1.1971759e-13  0              2.9981184    
   1100000   12727.922      100            100            0.0024682254   0.00037911436  0              0.0070255619   0.0060253853   0              290.94429      1.1971759e-13  0              2.9981434    
   1200000   12727.922      100            100            0.002486487    0.00037765087  0              0.0070818101   0.001187164    0              57.323901      1.1971759e-13  0              2.9981362    
   1300000   12727.922      100            100            0.0024819923   0.00037799254  0              0.0070679845   0.00019597026  0              9.4627024      1.1971759e-13  0              2.9981379    
   1400000   12727.922      100            100            0.0024827231   0.00037794187  0              0.0070702275   2.8121121e-05  0              1.3578683      1.1971759e-13  0              2.9981377    
   1500000   12727.922      100            100            0.0024828106   0.00037793145  0              0.0070705004   3.5357573e-06  0              0.17072907     1.1971759e-13  0              2.9981376    
   1600000   12727.922      100            100            0.0024826499   0.00037794568  0              0.0070700041   3.856626e-07   0              0.018622267    1.1971759e-13  0              2.9981377    
   1700000   12727.922      100            100            0.0024827523   0.00037793697  0              0.0070703201   3.5232397e-08  0              0.0017012463   1.1971759e-13  0              2.9981376    
   1800000   12727.922      100            100            0.0024827012   0.00037794124  0              0.0070701624   2.4624581e-09  0              0.00011890329  1.1971759e-13  0              2.9981377    
   1900000   12727.922      100            100            0.0024827237   0.00037793938  0              0.0070702318   9.8912629e-11  0              4.7761369e-06  1.1971759e-13  0              2.9981376    
   2000000   12727.922      100            100            0.0024827146   0.00037794013  0              0.0070702038   1.3956836e-13  0              6.7392565e-09  1.1971759e-13  0              2.9981377    
   2100000   12727.922      100            100            0.0024827181   0.00037793985  0              0.0070702143   1.1589101e-12  0              5.5959619e-08  1.1971759e-13  0              2.9981376    
   2200000   12727.922      100            100            0.0024827169   0.00037793994  0              0.0070702106   6.6547325e-13  0              3.2133322e-08  1.1971759e-13  0              2.9981376    
   2300000   12727.922      100            100            0.0024827172   0.00037793991  0              0.0070702118   1.8883172e-13  0              9.1180079e-09  1.1971759e-13  0              2.9981376    
   2400000   12727.922      100            100            0.0024827171   0.00037793992  0              0.0070702115   3.974281e-14   0              1.919038e-09   1.1971759e-13  0              2.9981376    
   2500000   12727.922      100            100            0.0024827172   0.00037793992  0              0.0070702116   6.8302658e-15  0              3.2980909e-10  1.1971759e-13  0              2.9981376    
   2600000   12727.922      100            100            0.0024827172   0.00037793992  0              0.0070702115   1.0171386e-15  0              4.9113984e-11  1.1971759e-13  0              2.9981376    
   2700000   12727.922      100            100            0.0024827172   0.00037793992  0              0.0070702116   1.3993891e-16  0              6.757149e-12   1.1971759e-13  0              2.9981376    
   2800000   12727.922      100            100            0.0024827172   0.00037793992  0              0.0070702115   9.8557686e-18  0              4.7589979e-13  1.1971759e-13  0              2.9981376    
   2900000   12727.922      100            100            0.0024827172   0.00037793992  0              0.0070702115   3.6152306e-18  0              1.7456655e-13  1.1971759e-13  0              2.9981376    
   3000000   12727.922      100            100            0.0024827172   0.00037793992  0              0.0070702115   3.2675532e-18  0              1.5777845e-13  1.1971759e-13  0              2.9981376    
Loop time of 541.716 on 4 procs for 3000000 steps with 5001 atoms

Performance: 4784795.678 ns/day, 0.000 hours/ns, 5537.958 timesteps/s
100.0% CPU use with 4 MPI tasks x 1 OpenMP threads

MPI task timing breakdown:
Section |  min time  |  avg time  |  max time  |%varavg| %total
---------------------------------------------------------------
Pair    | 22.697     | 76.901     | 135.07     | 615.0 | 14.20
Neigh   | 0.9034     | 0.91571    | 0.92758    |   1.1 |  0.17
Comm    | 12.03      | 19.567     | 28.947     | 150.2 |  3.61
Output  | 0.34336    | 0.34402    | 0.34472    |   0.1 |  0.06
Modify  | 328.71     | 338.93     | 349.13     |  52.5 | 62.57
Other   |            | 105.1      |            |       | 19.39

Nlocal:        1250.25 ave        1751 max         749 min
Histogram: 2 0 0 0 0 0 0 0 0 2
Nghost:           1.75 ave           2 max           1 min
Histogram: 1 0 0 0 0 0 0 0 0 3
Neighs:         684.75 ave        1370 max           0 min
Histogram: 2 0 0 0 0 0 0 0 0 2

Total # of neighbors = 2739
Ave neighs/atom = 0.54769046
Neighbor list builds = 78
Dangerous builds = 0

undump D1

############ Add spring between top chain to supp particle and then equilibrium  ###########

#fix sp1 support spring couple slider1 ${K0} ${lenspr} NULL NULL 0                                 # Add spring

#dump 		D2 all custom 100000 add_${num}*.dump id type diameter mass xu yu zu

#fix add1 all print 10 "${p0} ${distance} ${slider_z}" file add_distance_${num}.txt screen no      # out put step, distance(spring length), z-position of top chain

#run 1000000

#undump D2

#unfix add1

########## Pulling the supporting particle with constant velocity #############

#fix m1 support move linear 0.1 0 0 units box                                                      # apply constant velocity to supporting particles along x-direction V=0.1m/s

#fix move1 all print 100 "${p0} ${distance} ${slider_z}" file move_distance_${num}.txt screen no

#dump 		1 all custom 50000 move_${num}_*.dump id type diameter mass xu yu zu

#run 10000000

clear
  using 1 OpenMP thread(s) per MPI task

next num

jump SELF startloop

include granular.in
### Simulation of contact between two chain

##################### Simulation setup ####################

units micro                              # units
dimension	3                            # dimension
boundary	p p p                        # boundary condition p: periodic
atom_style	sphere                       # atom style
#processors * * 1

####################### Parameter ##################################

variable ind equal ${num}
variable ind equal 3

#variable lat0 equal 1                    #
variable lat1 equal 3*(2^(1/2))          # Lattice distance of bottom chain
variable lat2 equal 3                    # Lattice distance of top chain
variable d1 equal 3                      # Diamter of particle at bottom chain
variable d2 equal 3                      # Diamter of particle at top chain
#variable d3 equal 1                      # Diamter of supporting particle

variable n2e1 equal 1000*v_lat2              # Half length of top chain. 1500 is number of particles
variable n1e1 equal 1.5*v_n2e1*(v_lat1/v_lat2)              # Half length of bottom chain, which is 1.5 time larger than top chain
variable n1e2 equal -v_n1e1
variable n2e2 equal -v_n2e1
#variable lenspr equal -(v_n2e1+50)           # length of the spring connecting top chain and supporting particle
#variable lenspr1 equal -v_lenspr-0.1         # Position of supporting particle upper bound
#variable lenspr2 equal -v_lenspr+0.1         # Position of supporting particle lower bound

variable den equal 2.2 #grams/cm^3      # micrometer^3=10^-12 cm^3 Density of materials

variable V1 equal (1/6)*PI*(v_d1^3)     # Volume of particle 1
variable V2 equal (1/6)*PI*(v_d2^3)     # Volume of particle 2
#variable V3 equal (1/6)*PI*(v_d3^3)     # Volume of particle 3

variable mass1 equal v_den*v_V1  # Mass of particle 1 (picograms)
variable mass2 equal v_den*v_V2  # Mass of particle 2
#variable mass3 equal v_den*v_V3  # Mass of particle 3

# E GPa to picogram/(micrometer-microsecond^2)= 10^3 Pa= 10^-6 GPa
# Force unit(picogram-micrometer/microsecond^2)=10^-9 N= 1nN
# Spring stiffness (force/distance) 10^-3 N/m

#variable K0 equal (1500/50)*(10^5)             # Spring stiffness conneting top chain and sup particle
variable E equal 100*(10^6)                    # Young's Modulus using for Hertz/material model
variable PR equal 0.3                          # Poisson's ratio using for Hertz/material model
variable Fn equal -50-(v_ind*50)                       # Force apply to each particles in top chain
variable dt equal 0.00001                      # Time step units microsecond
variable lgv equal 0.5                         #damping for langevin thermostat for slider


################### Creating the model #################################
lattice sc ${lat1}                                                               # Bottom chain type1
lattice sc 4.24264068711929                                                               
Lattice spacing in x,y,z = 4.2426407 4.2426407 4.2426407

region box block ${n1e2} ${n1e1} -50 50 -50 50 units box
region box block -6363.96103067894 ${n1e1} -50 50 -50 50 units box
region box block -6363.96103067894 6363.96103067894 -50 50 -50 50 units box
region substrate block ${n1e2} ${n1e1} -0.1 0.1 0 0.1 units box
region substrate block -6363.96103067894 ${n1e1} -0.1 0.1 0 0.1 units box
region substrate block -6363.96103067894 6363.96103067894 -0.1 0.1 0 0.1 units box

create_box 2 box
Created orthogonal box = (-6363.961 -50 -50) to (6363.961 50 50)
  4 by 1 by 1 MPI processor grid
create_atoms 1 region substrate
Created 3000 atoms
  using lattice units in orthogonal box = (-6363.961 -50 -50) to (6363.961 50 50)
  create_atoms CPU = 0.001 seconds

lattice sc ${lat2}                                                             # Top chain type2
lattice sc 3                                                             
Lattice spacing in x,y,z = 3 3 3

region slider1 block ${n2e2} ${n2e1} -0.1 0.1 5.9 6.1 units box
region slider1 block -3000 ${n2e1} -0.1 0.1 5.9 6.1 units box
region slider1 block -3000 3000 -0.1 0.1 5.9 6.1 units box

create_atoms 2 region slider1
Created 2001 atoms
  using lattice units in orthogonal box = (-6363.961 -50 -50) to (6363.961 50 50)
  create_atoms CPU = 0.001 seconds

#lattice sc ${lat0}                                                             # Supporting particle type3

#region support block ${lenspr1} ${lenspr2} -0.1 0.1 7.9 8.1 units box

#create_atoms 3 region support

set type 1 diameter ${d1}                    # Set mass and diameter for each particles type
set type 1 diameter 3                    
Setting atom values ...
  3000 settings made for diameter
set type 1 mass ${mass1}
set type 1 mass 31.101767270539
Setting atom values ...
  3000 settings made for mass
set type 2 diameter ${d2}
set type 2 diameter 3
Setting atom values ...
  2001 settings made for diameter
set type 2 mass ${mass2}
set type 2 mass 31.101767270539
Setting atom values ...
  2001 settings made for mass
#set type 3 diameter ${d3}
#set type 3 mass ${mass3}

group substrate region substrate           # Define gorup
3000 atoms in group substrate
group slider1 region slider1
2001 atoms in group slider1
#group support region support
group substrate_slider union substrate slider1
5001 atoms in group substrate_slider

########################## Potential ###################################
pair_style granular
pair_coeff 1 1 hertz/material 0.00000001 0.001 ${PR} tangential mindlin NULL 0.1 0.01 damping viscoelastic              ########### set E between each particle in same type is small to neglect their interaction
pair_coeff 1 1 hertz/material 0.00000001 0.001 0.3 tangential mindlin NULL 0.1 0.01 damping viscoelastic              
pair_coeff 2 2 hertz/material 0.00000001 0.001 ${PR} tangential mindlin NULL 0.1 0.01 damping viscoelastic
pair_coeff 2 2 hertz/material 0.00000001 0.001 0.3 tangential mindlin NULL 0.1 0.01 damping viscoelastic
#pair_coeff 3 3 hertz/material ${E} 0.001 ${PR} tangential mindlin NULL 0.1 0.01 damping viscoelastic
pair_coeff 1 2 hertz/material ${E} 0.001 ${PR} tangential mindlin NULL 0.1 0.01 damping viscoelastic
pair_coeff 1 2 hertz/material 100000000 0.001 ${PR} tangential mindlin NULL 0.1 0.01 damping viscoelastic
pair_coeff 1 2 hertz/material 100000000 0.001 0.3 tangential mindlin NULL 0.1 0.01 damping viscoelastic
#pair_coeff 1 3 hertz/material 0.00000001 0.001 ${PR} tangential mindlin NULL 0.1 0.01 damping viscoelastic
#pair_coeff 2 3 hertz/material 0.00000001 0.001 ${PR} tangential mindlin NULL 0.1 0.01 damping viscoelastic
comm_modify     vel yes
neigh_modify    delay 0 every 1 check yes

### Compute properties ###

compute 1 slider1 com                      # Compute the center of mass of top chain
#compute 2 support com                      # Compute the center of mass of supporting particle

variable p0 equal "step"

variable slider_z equal "c_1[3]"          # output the position of top chain in z-direction

#variable distance equal "c_2[1]-c_1[1]"   # Distance between COM of top chain and supporting particle

thermo 100000
thermo_style custom step lx ly lz press pxx pyy pzz ke pe temp c_1[1] c_1[2] c_1[3] #c_2[1] c_2[2] c_2[3] v_distance

############### Fix ##################


############## Equilibrium the system with apply force ########################

fix force_slider1 slider1 setforce NULL 0 NULL                                # Fix top chain not to move in y-direction

fix f_sub substrate freeze                                                    # Freeze the bottom chain

fix rigid_top slider1 rigid/nve group 1 slider1 langevin 0 0 ${lgv} 6987532   # NVE+langevin
fix rigid_top slider1 rigid/nve group 1 slider1 langevin 0 0 0.5 6987532   
  1 rigid bodies with 2001 atoms

fix add slider1 addforce 0 0 ${Fn} every 1                                    # Add force to top layer
fix add slider1 addforce 0 0 -200 every 1                                    

timestep ${dt}
timestep 1e-05

# fix  nve_1 slider1 nve

dump 		D1 all custom 100000 Equi_${num}_*.dump id type diameter mass xu yu zu
dump 		D1 all custom 100000 Equi_3_*.dump id type diameter mass xu yu zu

run 3000000
Generated 0 of 1 mixed pair_coeff terms from geometric mixing rule
Neighbor list info ...
  update every 1 steps, delay 0 steps, check yes
  max neighbors/atom: 2000, page size: 100000
  master list distance cutoff = 3.1
  ghost atom cutoff = 3.1
  binsize = 1.55, bins = 8212 65 65
  1 neighbor lists, perpetual/occasional/extra = 1 0 0
  (1) pair granular, perpetual
      attributes: half, newton on, size, history
      pair build: half/size/bin/newton
      stencil: half/bin/3d
      bin: standard
Per MPI rank memory allocation (min/avg/max) = 51.26 | 51.27 | 51.29 Mbytes
   Step           Lx             Ly             Lz           Press           Pxx            Pyy            Pzz           KinEng         PotEng          Temp          c_1[1]         c_1[2]         c_1[3]    
         0   12727.922      100            100            0              0              0              0              0              0              0              1.1971759e-13  0              6            
    100000   12727.922      100            100            0.0050431489   0              0              0.015129447    240507.63      0              1.1613253e+10  1.1971759e-13  0              4.1748102    
    200000   12727.922      100            100            0.0016134309   3.8079761e-35  0              0.0048402928   50374.402      0              2.4323996e+09  1.1971759e-13  0              3.2540431    
    300000   12727.922      100            100            0.00093056522  4.9696145e-44  0              0.0027916957   21362.121      0              1.0315004e+09  1.1971759e-13  0              3.0313145    
    400000   12727.922      100            100            0.00086169875 -3.0376609e-05  0              0.0026154729   7311.0161      0              3.530228e+08   1.1971759e-13  0              2.9992673    
    500000   12727.922      100            100            0.0044493733   0.00048383755  0              0.012864282    1460.8361      0              70538545       1.1971759e-13  0              2.9974292    
    600000   12727.922      100            100            0.0066370055   0.00055054619  0              0.01936047     42.375774      0              2046174.5      1.1971759e-13  0              2.9969099    
    700000   12727.922      100            100            0.0031225736  -0.00040521429  0              0.009772935    30.803192      0              1487375.9      1.1971759e-13  0              2.9978007    
    800000   12727.922      100            100            0.0027366921   5.7838666e-05  0              0.0081522377   0.073754863    0              3561.3584      1.1971759e-13  0              2.998001     
    900000   12727.922      100            100            0.0032006746  -8.2012271e-05  0              0.0096840359   0.41410228     0              19995.517      1.1971759e-13  0              2.9978221    
   1000000   12727.922      100            100            0.0031502326  -7.0404254e-05  0              0.009521102    0.053801203    0              2597.8676      1.1971759e-13  0              2.9978388    
   1100000   12727.922      100            100            0.0030979492  -6.7500104e-05  0              0.0093613476   0.00019712839  0              9.5186247      1.1971759e-13  0              2.9978574    
   1200000   12727.922      100            100            0.0031211866  -6.9977045e-05  0              0.0094335367   0.0012657201   0              61.117095      1.1971759e-13  0              2.9978493    
   1300000   12727.922      100            100            0.0031208445  -6.9872583e-05  0              0.0094324061   8.7344406e-05  0              4.2175488      1.1971759e-13  0              2.9978493    
   1400000   12727.922      100            100            0.003117853   -6.9459291e-05  0              0.0094230183   3.3780118e-06  0              0.1631121      1.1971759e-13  0              2.9978504    
   1500000   12727.922      100            100            0.0031188516  -6.9590201e-05  0              0.0094261449   3.3949485e-06  0              0.16392991     1.1971759e-13  0              2.99785      
   1600000   12727.922      100            100            0.003118939   -6.960368e-05   0              0.0094264207   1.1271457e-07  0              0.0054425832   1.1971759e-13  0              2.99785      
   1700000   12727.922      100            100            0.0031187767  -6.9581601e-05  0              0.0094259116   2.0211074e-08  0              0.00097592044  1.1971759e-13  0              2.9978501    
   1800000   12727.922      100            100            0.0031188163  -6.9586773e-05  0              0.0094260357   8.1564055e-09  0              0.00039384363  1.1971759e-13  0              2.99785      
   1900000   12727.922      100            100            0.0031188257  -6.958811e-05   0              0.0094260651   8.8982632e-11  0              4.2966528e-06  1.1971759e-13  0              2.99785      
   2000000   12727.922      100            100            0.0031188173  -6.9586988e-05  0              0.009426039    8.451265e-11   0              4.0808134e-06  1.1971759e-13  0              2.99785      
   2100000   12727.922      100            100            0.0031188187  -6.9587163e-05  0              0.0094260433   1.7507866e-11  0              8.4539221e-07  1.1971759e-13  0              2.99785      
   2200000   12727.922      100            100            0.0031188194  -6.9587259e-05  0              0.0094260455   7.2463809e-15  0              3.499018e-10   1.1971759e-13  0              2.99785      
   2300000   12727.922      100            100            0.003118819   -6.9587205e-05  0              0.0094260442   2.8885547e-13  0              1.3947797e-08  1.1971759e-13  0              2.99785      
   2400000   12727.922      100            100            0.003118819   -6.9587209e-05  0              0.0094260443   3.2845591e-14  0              1.5859961e-09  1.1971759e-13  0              2.99785      
   2500000   12727.922      100            100            0.0031188191  -6.9587215e-05  0              0.0094260445   2.2402372e-16  0              1.0817304e-11  1.1971759e-13  0              2.99785      
   2600000   12727.922      100            100            0.0031188191  -6.9587213e-05  0              0.0094260444   8.4802078e-16  0              4.0947888e-11  1.1971759e-13  0              2.99785      
   2700000   12727.922      100            100            0.0031188191  -6.9587213e-05  0              0.0094260444   7.1924245e-17  0              3.4729644e-12  1.1971759e-13  0              2.99785      
   2800000   12727.922      100            100            0.0031188191  -6.9587213e-05  0              0.0094260444   2.8764502e-18  0              1.3889348e-13  1.1971759e-13  0              2.99785      
   2900000   12727.922      100            100            0.0031188191  -6.9587213e-05  0              0.0094260444   1.666506e-19   0              8.046961e-15   1.1971759e-13  0              2.99785      
   3000000   12727.922      100            100            0.0031188191  -6.9587212e-05  0              0.0094260444   2.1314691e-21  0              1.0292101e-16  1.1971759e-13  0              2.99785      
Loop time of 530.423 on 4 procs for 3000000 steps with 5001 atoms

Performance: 4886670.082 ns/day, 0.000 hours/ns, 5655.868 timesteps/s
100.0% CPU use with 4 MPI tasks x 1 OpenMP threads

MPI task timing breakdown:
Section |  min time  |  avg time  |  max time  |%varavg| %total
---------------------------------------------------------------
Pair    | 22.482     | 75.407     | 129.35     | 606.6 | 14.22
Neigh   | 0.99587    | 1.012      | 1.0277     |   1.2 |  0.19
Comm    | 12.324     | 17.699     | 21.641     |  93.1 |  3.34
Output  | 0.34367    | 0.34432    | 0.34499    |   0.1 |  0.06
Modify  | 317.25     | 331.17     | 344.29     |  72.0 | 62.43
Other   |            | 104.8      |            |       | 19.76

Nlocal:        1250.25 ave        1752 max         749 min
Histogram: 2 0 0 0 0 0 0 0 0 2
Nghost:           1.75 ave           3 max           1 min
Histogram: 2 0 0 0 0 1 0 0 0 1
Neighs:         685.25 ave        1371 max           0 min
Histogram: 2 0 0 0 0 0 0 0 0 2

Total # of neighbors = 2741
Ave neighs/atom = 0.54809038
Neighbor list builds = 86
Dangerous builds = 0

undump D1

############ Add spring between top chain to supp particle and then equilibrium  ###########

#fix sp1 support spring couple slider1 ${K0} ${lenspr} NULL NULL 0                                 # Add spring

#dump 		D2 all custom 100000 add_${num}*.dump id type diameter mass xu yu zu

#fix add1 all print 10 "${p0} ${distance} ${slider_z}" file add_distance_${num}.txt screen no      # out put step, distance(spring length), z-position of top chain

#run 1000000

#undump D2

#unfix add1

########## Pulling the supporting particle with constant velocity #############

#fix m1 support move linear 0.1 0 0 units box                                                      # apply constant velocity to supporting particles along x-direction V=0.1m/s

#fix move1 all print 100 "${p0} ${distance} ${slider_z}" file move_distance_${num}.txt screen no

#dump 		1 all custom 50000 move_${num}_*.dump id type diameter mass xu yu zu

#run 10000000

clear
  using 1 OpenMP thread(s) per MPI task

next num

jump SELF startloop

include granular.in
### Simulation of contact between two chain

##################### Simulation setup ####################

units micro                              # units
dimension	3                            # dimension
boundary	p p p                        # boundary condition p: periodic
atom_style	sphere                       # atom style
#processors * * 1

####################### Parameter ##################################

variable ind equal ${num}
variable ind equal 4

#variable lat0 equal 1                    #
variable lat1 equal 3*(2^(1/2))          # Lattice distance of bottom chain
variable lat2 equal 3                    # Lattice distance of top chain
variable d1 equal 3                      # Diamter of particle at bottom chain
variable d2 equal 3                      # Diamter of particle at top chain
#variable d3 equal 1                      # Diamter of supporting particle

variable n2e1 equal 1000*v_lat2              # Half length of top chain. 1500 is number of particles
variable n1e1 equal 1.5*v_n2e1*(v_lat1/v_lat2)              # Half length of bottom chain, which is 1.5 time larger than top chain
variable n1e2 equal -v_n1e1
variable n2e2 equal -v_n2e1
#variable lenspr equal -(v_n2e1+50)           # length of the spring connecting top chain and supporting particle
#variable lenspr1 equal -v_lenspr-0.1         # Position of supporting particle upper bound
#variable lenspr2 equal -v_lenspr+0.1         # Position of supporting particle lower bound

variable den equal 2.2 #grams/cm^3      # micrometer^3=10^-12 cm^3 Density of materials

variable V1 equal (1/6)*PI*(v_d1^3)     # Volume of particle 1
variable V2 equal (1/6)*PI*(v_d2^3)     # Volume of particle 2
#variable V3 equal (1/6)*PI*(v_d3^3)     # Volume of particle 3

variable mass1 equal v_den*v_V1  # Mass of particle 1 (picograms)
variable mass2 equal v_den*v_V2  # Mass of particle 2
#variable mass3 equal v_den*v_V3  # Mass of particle 3

# E GPa to picogram/(micrometer-microsecond^2)= 10^3 Pa= 10^-6 GPa
# Force unit(picogram-micrometer/microsecond^2)=10^-9 N= 1nN
# Spring stiffness (force/distance) 10^-3 N/m

#variable K0 equal (1500/50)*(10^5)             # Spring stiffness conneting top chain and sup particle
variable E equal 100*(10^6)                    # Young's Modulus using for Hertz/material model
variable PR equal 0.3                          # Poisson's ratio using for Hertz/material model
variable Fn equal -50-(v_ind*50)                       # Force apply to each particles in top chain
variable dt equal 0.00001                      # Time step units microsecond
variable lgv equal 0.5                         #damping for langevin thermostat for slider


################### Creating the model #################################
lattice sc ${lat1}                                                               # Bottom chain type1
lattice sc 4.24264068711929                                                               
Lattice spacing in x,y,z = 4.2426407 4.2426407 4.2426407

region box block ${n1e2} ${n1e1} -50 50 -50 50 units box
region box block -6363.96103067894 ${n1e1} -50 50 -50 50 units box
region box block -6363.96103067894 6363.96103067894 -50 50 -50 50 units box
region substrate block ${n1e2} ${n1e1} -0.1 0.1 0 0.1 units box
region substrate block -6363.96103067894 ${n1e1} -0.1 0.1 0 0.1 units box
region substrate block -6363.96103067894 6363.96103067894 -0.1 0.1 0 0.1 units box

create_box 2 box
Created orthogonal box = (-6363.961 -50 -50) to (6363.961 50 50)
  4 by 1 by 1 MPI processor grid
create_atoms 1 region substrate
Created 3000 atoms
  using lattice units in orthogonal box = (-6363.961 -50 -50) to (6363.961 50 50)
  create_atoms CPU = 0.001 seconds

lattice sc ${lat2}                                                             # Top chain type2
lattice sc 3                                                             
Lattice spacing in x,y,z = 3 3 3

region slider1 block ${n2e2} ${n2e1} -0.1 0.1 5.9 6.1 units box
region slider1 block -3000 ${n2e1} -0.1 0.1 5.9 6.1 units box
region slider1 block -3000 3000 -0.1 0.1 5.9 6.1 units box

create_atoms 2 region slider1
Created 2001 atoms
  using lattice units in orthogonal box = (-6363.961 -50 -50) to (6363.961 50 50)
  create_atoms CPU = 0.001 seconds

#lattice sc ${lat0}                                                             # Supporting particle type3

#region support block ${lenspr1} ${lenspr2} -0.1 0.1 7.9 8.1 units box

#create_atoms 3 region support

set type 1 diameter ${d1}                    # Set mass and diameter for each particles type
set type 1 diameter 3                    
Setting atom values ...
  3000 settings made for diameter
set type 1 mass ${mass1}
set type 1 mass 31.101767270539
Setting atom values ...
  3000 settings made for mass
set type 2 diameter ${d2}
set type 2 diameter 3
Setting atom values ...
  2001 settings made for diameter
set type 2 mass ${mass2}
set type 2 mass 31.101767270539
Setting atom values ...
  2001 settings made for mass
#set type 3 diameter ${d3}
#set type 3 mass ${mass3}

group substrate region substrate           # Define gorup
3000 atoms in group substrate
group slider1 region slider1
2001 atoms in group slider1
#group support region support
group substrate_slider union substrate slider1
5001 atoms in group substrate_slider

########################## Potential ###################################
pair_style granular
pair_coeff 1 1 hertz/material 0.00000001 0.001 ${PR} tangential mindlin NULL 0.1 0.01 damping viscoelastic              ########### set E between each particle in same type is small to neglect their interaction
pair_coeff 1 1 hertz/material 0.00000001 0.001 0.3 tangential mindlin NULL 0.1 0.01 damping viscoelastic              
pair_coeff 2 2 hertz/material 0.00000001 0.001 ${PR} tangential mindlin NULL 0.1 0.01 damping viscoelastic
pair_coeff 2 2 hertz/material 0.00000001 0.001 0.3 tangential mindlin NULL 0.1 0.01 damping viscoelastic
#pair_coeff 3 3 hertz/material ${E} 0.001 ${PR} tangential mindlin NULL 0.1 0.01 damping viscoelastic
pair_coeff 1 2 hertz/material ${E} 0.001 ${PR} tangential mindlin NULL 0.1 0.01 damping viscoelastic
pair_coeff 1 2 hertz/material 100000000 0.001 ${PR} tangential mindlin NULL 0.1 0.01 damping viscoelastic
pair_coeff 1 2 hertz/material 100000000 0.001 0.3 tangential mindlin NULL 0.1 0.01 damping viscoelastic
#pair_coeff 1 3 hertz/material 0.00000001 0.001 ${PR} tangential mindlin NULL 0.1 0.01 damping viscoelastic
#pair_coeff 2 3 hertz/material 0.00000001 0.001 ${PR} tangential mindlin NULL 0.1 0.01 damping viscoelastic
comm_modify     vel yes
neigh_modify    delay 0 every 1 check yes

### Compute properties ###

compute 1 slider1 com                      # Compute the center of mass of top chain
#compute 2 support com                      # Compute the center of mass of supporting particle

variable p0 equal "step"

variable slider_z equal "c_1[3]"          # output the position of top chain in z-direction

#variable distance equal "c_2[1]-c_1[1]"   # Distance between COM of top chain and supporting particle

thermo 100000
thermo_style custom step lx ly lz press pxx pyy pzz ke pe temp c_1[1] c_1[2] c_1[3] #c_2[1] c_2[2] c_2[3] v_distance

############### Fix ##################


############## Equilibrium the system with apply force ########################

fix force_slider1 slider1 setforce NULL 0 NULL                                # Fix top chain not to move in y-direction

fix f_sub substrate freeze                                                    # Freeze the bottom chain

fix rigid_top slider1 rigid/nve group 1 slider1 langevin 0 0 ${lgv} 6987532   # NVE+langevin
fix rigid_top slider1 rigid/nve group 1 slider1 langevin 0 0 0.5 6987532   
  1 rigid bodies with 2001 atoms

fix add slider1 addforce 0 0 ${Fn} every 1                                    # Add force to top layer
fix add slider1 addforce 0 0 -250 every 1                                    

timestep ${dt}
timestep 1e-05

# fix  nve_1 slider1 nve

dump 		D1 all custom 100000 Equi_${num}_*.dump id type diameter mass xu yu zu
dump 		D1 all custom 100000 Equi_4_*.dump id type diameter mass xu yu zu

run 3000000
Generated 0 of 1 mixed pair_coeff terms from geometric mixing rule
Neighbor list info ...
  update every 1 steps, delay 0 steps, check yes
  max neighbors/atom: 2000, page size: 100000
  master list distance cutoff = 3.1
  ghost atom cutoff = 3.1
  binsize = 1.55, bins = 8212 65 65
  1 neighbor lists, perpetual/occasional/extra = 1 0 0
  (1) pair granular, perpetual
      attributes: half, newton on, size, history
      pair build: half/size/bin/newton
      stencil: half/bin/3d
      bin: standard
Per MPI rank memory allocation (min/avg/max) = 51.26 | 51.27 | 51.29 Mbytes
   Step           Lx             Ly             Lz           Press           Pxx            Pyy            Pzz           KinEng         PotEng          Temp          c_1[1]         c_1[2]         c_1[3]    
         0   12727.922      100            100            0              0              0              0              0              0              0              1.1971759e-13  0              6            
    100000   12727.922      100            100            0.0061807118   0              0              0.018542135    375793.17      0              1.8145707e+10  1.1971759e-13  0              3.7185127    
    200000   12727.922      100            100           -0.0012425071   1.0154639e-34  0             -0.0037275214   92687.466      0              4.475546e+09   1.1971759e-13  0              3.0712859    
[...]
   3000000   12727.922      100            100            0.031312182    0.0021723819   0              0.091764165    4.8306795e-18  0              2.3325623e-13  1.1971759e-13  0              2.9932909    
Loop time of 540.76 on 4 procs for 3000000 steps with 5001 atoms

Performance: 4793253.836 ns/day, 0.000 hours/ns, 5547.747 timesteps/s
100.0% CPU use with 4 MPI tasks x 1 OpenMP threads

MPI task timing breakdown:
Section |  min time  |  avg time  |  max time  |%varavg| %total
---------------------------------------------------------------
Pair    | 22.527     | 77.909     | 133.05     | 624.6 | 14.41
Neigh   | 2.5688     | 2.6114     | 2.6537     |   2.0 |  0.48
Comm    | 13.688     | 19.426     | 24.885     |  96.4 |  3.59
Output  | 0.34332    | 0.34393    | 0.34455    |   0.1 |  0.06
Modify  | 324.15     | 335.65     | 346.98     |  56.1 | 62.07
Other   |            | 104.8      |            |       | 19.38

Nlocal:        1250.25 ave        1752 max         749 min
Histogram: 2 0 0 0 0 0 0 0 0 2
Nghost:           1.75 ave           3 max           1 min
Histogram: 2 0 0 0 0 1 0 0 0 1
Neighs:         687.25 ave        1375 max           0 min
Histogram: 2 0 0 0 0 0 0 0 0 2

Total # of neighbors = 2749
Ave neighs/atom = 0.54969006
Neighbor list builds = 224
Dangerous builds = 0

undump D1

############ Add spring between top chain to supp particle and then equilibrium  ###########

#fix sp1 support spring couple slider1 ${K0} ${lenspr} NULL NULL 0                                 # Add spring

#dump 		D2 all custom 100000 add_${num}*.dump id type diameter mass xu yu zu

#fix add1 all print 10 "${p0} ${distance} ${slider_z}" file add_distance_${num}.txt screen no      # out put step, distance(spring length), z-position of top chain

#run 1000000

#undump D2

#unfix add1

########## Pulling the supporting particle with constant velocity #############

#fix m1 support move linear 0.1 0 0 units box                                                      # apply constant velocity to supporting particles along x-direction V=0.1m/s

#fix move1 all print 100 "${p0} ${distance} ${slider_z}" file move_distance_${num}.txt screen no

#dump 		1 all custom 50000 move_${num}_*.dump id type diameter mass xu yu zu

#run 10000000

clear
  using 1 OpenMP thread(s) per MPI task

next num

jump SELF startloop

include granular.in
### Simulation of contact between two chain

##################### Simulation setup ####################

units micro                              # units
dimension	3                            # dimension
boundary	p p p                        # boundary condition p: periodic
atom_style	sphere                       # atom style
#processors * * 1

####################### Parameter ##################################

variable ind equal ${num}
variable ind equal 39

#variable lat0 equal 1                    #
variable lat1 equal 3*(2^(1/2))          # Lattice distance of bottom chain
variable lat2 equal 3                    # Lattice distance of top chain
variable d1 equal 3                      # Diamter of particle at bottom chain
variable d2 equal 3                      # Diamter of particle at top chain
#variable d3 equal 1                      # Diamter of supporting particle

variable n2e1 equal 1000*v_lat2              # Half length of top chain. 1500 is number of particles
variable n1e1 equal 1.5*v_n2e1*(v_lat1/v_lat2)              # Half length of bottom chain, which is 1.5 time larger than top chain
variable n1e2 equal -v_n1e1
variable n2e2 equal -v_n2e1
#variable lenspr equal -(v_n2e1+50)           # length of the spring connecting top chain and supporting particle
#variable lenspr1 equal -v_lenspr-0.1         # Position of supporting particle upper bound
#variable lenspr2 equal -v_lenspr+0.1         # Position of supporting particle lower bound

variable den equal 2.2 #grams/cm^3      # micrometer^3=10^-12 cm^3 Density of materials

variable V1 equal (1/6)*PI*(v_d1^3)     # Volume of particle 1
variable V2 equal (1/6)*PI*(v_d2^3)     # Volume of particle 2
#variable V3 equal (1/6)*PI*(v_d3^3)     # Volume of particle 3

variable mass1 equal v_den*v_V1  # Mass of particle 1 (picograms)
variable mass2 equal v_den*v_V2  # Mass of particle 2
#variable mass3 equal v_den*v_V3  # Mass of particle 3

# E GPa to picogram/(micrometer-microsecond^2)= 10^3 Pa= 10^-6 GPa
# Force unit(picogram-micrometer/microsecond^2)=10^-9 N= 1nN
# Spring stiffness (force/distance) 10^-3 N/m

#variable K0 equal (1500/50)*(10^5)             # Spring stiffness conneting top chain and sup particle
variable E equal 100*(10^6)                    # Young's Modulus using for Hertz/material model
variable PR equal 0.3                          # Poisson's ratio using for Hertz/material model
variable Fn equal -50-(v_ind*50)                       # Force apply to each particles in top chain
variable dt equal 0.00001                      # Time step units microsecond
variable lgv equal 0.5                         #damping for langevin thermostat for slider


################### Creating the model #################################
lattice sc ${lat1}                                                               # Bottom chain type1
lattice sc 4.24264068711929                                                               
Lattice spacing in x,y,z = 4.2426407 4.2426407 4.2426407

region box block ${n1e2} ${n1e1} -50 50 -50 50 units box
region box block -6363.96103067894 ${n1e1} -50 50 -50 50 units box
region box block -6363.96103067894 6363.96103067894 -50 50 -50 50 units box
region substrate block ${n1e2} ${n1e1} -0.1 0.1 0 0.1 units box
region substrate block -6363.96103067894 ${n1e1} -0.1 0.1 0 0.1 units box
region substrate block -6363.96103067894 6363.96103067894 -0.1 0.1 0 0.1 units box

create_box 2 box
Created orthogonal box = (-6363.961 -50 -50) to (6363.961 50 50)
  4 by 1 by 1 MPI processor grid
create_atoms 1 region substrate
Created 3000 atoms
  using lattice units in orthogonal box = (-6363.961 -50 -50) to (6363.961 50 50)
  create_atoms CPU = 0.001 seconds

lattice sc ${lat2}                                                             # Top chain type2
lattice sc 3                                                             
Lattice spacing in x,y,z = 3 3 3

region slider1 block ${n2e2} ${n2e1} -0.1 0.1 5.9 6.1 units box
region slider1 block -3000 ${n2e1} -0.1 0.1 5.9 6.1 units box
region slider1 block -3000 3000 -0.1 0.1 5.9 6.1 units box

create_atoms 2 region slider1
Created 2001 atoms
  using lattice units in orthogonal box = (-6363.961 -50 -50) to (6363.961 50 50)
  create_atoms CPU = 0.001 seconds

#lattice sc ${lat0}                                                             # Supporting particle type3

#region support block ${lenspr1} ${lenspr2} -0.1 0.1 7.9 8.1 units box

#create_atoms 3 region support

set type 1 diameter ${d1}                    # Set mass and diameter for each particles type
set type 1 diameter 3                    
Setting atom values ...
  3000 settings made for diameter
set type 1 mass ${mass1}
set type 1 mass 31.101767270539
Setting atom values ...
  3000 settings made for mass
set type 2 diameter ${d2}
set type 2 diameter 3
Setting atom values ...
  2001 settings made for diameter
set type 2 mass ${mass2}
set type 2 mass 31.101767270539
Setting atom values ...
  2001 settings made for mass
#set type 3 diameter ${d3}
#set type 3 mass ${mass3}

group substrate region substrate           # Define gorup
3000 atoms in group substrate
group slider1 region slider1
2001 atoms in group slider1
#group support region support
group substrate_slider union substrate slider1
5001 atoms in group substrate_slider

########################## Potential ###################################
pair_style granular
pair_coeff 1 1 hertz/material 0.00000001 0.001 ${PR} tangential mindlin NULL 0.1 0.01 damping viscoelastic              ########### set E between each particle in same type is small to neglect their interaction
pair_coeff 1 1 hertz/material 0.00000001 0.001 0.3 tangential mindlin NULL 0.1 0.01 damping viscoelastic              
pair_coeff 2 2 hertz/material 0.00000001 0.001 ${PR} tangential mindlin NULL 0.1 0.01 damping viscoelastic
pair_coeff 2 2 hertz/material 0.00000001 0.001 0.3 tangential mindlin NULL 0.1 0.01 damping viscoelastic
#pair_coeff 3 3 hertz/material ${E} 0.001 ${PR} tangential mindlin NULL 0.1 0.01 damping viscoelastic
pair_coeff 1 2 hertz/material ${E} 0.001 ${PR} tangential mindlin NULL 0.1 0.01 damping viscoelastic
pair_coeff 1 2 hertz/material 100000000 0.001 ${PR} tangential mindlin NULL 0.1 0.01 damping viscoelastic
pair_coeff 1 2 hertz/material 100000000 0.001 0.3 tangential mindlin NULL 0.1 0.01 damping viscoelastic
#pair_coeff 1 3 hertz/material 0.00000001 0.001 ${PR} tangential mindlin NULL 0.1 0.01 damping viscoelastic
#pair_coeff 2 3 hertz/material 0.00000001 0.001 ${PR} tangential mindlin NULL 0.1 0.01 damping viscoelastic
comm_modify     vel yes
neigh_modify    delay 0 every 1 check yes

### Compute properties ###

compute 1 slider1 com                      # Compute the center of mass of top chain
#compute 2 support com                      # Compute the center of mass of supporting particle

variable p0 equal "step"

variable slider_z equal "c_1[3]"          # output the position of top chain in z-direction

#variable distance equal "c_2[1]-c_1[1]"   # Distance between COM of top chain and supporting particle

thermo 100000
thermo_style custom step lx ly lz press pxx pyy pzz ke pe temp c_1[1] c_1[2] c_1[3] #c_2[1] c_2[2] c_2[3] v_distance

############### Fix ##################


############## Equilibrium the system with apply force ########################

fix force_slider1 slider1 setforce NULL 0 NULL                                # Fix top chain not to move in y-direction

fix f_sub substrate freeze                                                    # Freeze the bottom chain

fix rigid_top slider1 rigid/nve group 1 slider1 langevin 0 0 ${lgv} 6987532   # NVE+langevin
fix rigid_top slider1 rigid/nve group 1 slider1 langevin 0 0 0.5 6987532   
  1 rigid bodies with 2001 atoms

fix add slider1 addforce 0 0 ${Fn} every 1                                    # Add force to top layer
fix add slider1 addforce 0 0 -2000 every 1                                    

timestep ${dt}
timestep 1e-05

# fix  nve_1 slider1 nve

dump 		D1 all custom 100000 Equi_${num}_*.dump id type diameter mass xu yu zu
dump 		D1 all custom 100000 Equi_39_*.dump id type diameter mass xu yu zu

run 3000000
Generated 0 of 1 mixed pair_coeff terms from geometric mixing rule
Neighbor list info ...
  update every 1 steps, delay 0 steps, check yes
  max neighbors/atom: 2000, page size: 100000
  master list distance cutoff = 3.1
  ghost atom cutoff = 3.1
  binsize = 1.55, bins = 8212 65 65
  1 neighbor lists, perpetual/occasional/extra = 1 0 0
  (1) pair granular, perpetual
      attributes: half, newton on, size, history
      pair build: half/size/bin/newton
      stencil: half/bin/3d
      bin: standard
Per MPI rank memory allocation (min/avg/max) = 51.26 | 51.27 | 51.29 Mbytes
   Step           Lx             Ly             Lz           Press           Pxx            Pyy            Pzz           KinEng         PotEng          Temp          c_1[1]         c_1[2]         c_1[3]    
         0   12727.922      100            100            0              0              0              0              0              0              0              1.1971759e-13  0              6            
    100000   12727.922      100            100            0.005987517    1.3608945e-39  0              0.017962551    354911.03      0              1.7137383e+10  1.1971759e-13  0              3.7508352    
    200000   12727.922      100            100            0.007709009    4.0618424e-34  0              0.023127027    624152.39      0              3.0138085e+10  1.1971759e-13  0              3.0414932    
    300000   12727.922      100            100            0.15891929    -0.0074223925   0              0.48418027     117923.93      0              5.6941244e+09  1.1971759e-13  0              2.9846661    
    400000   12727.922      100            100            0.081382752   -0.010864712    0              0.25501297     19980.393      0              9.6478166e+08  1.1971759e-13  0              2.9887552    
    500000   12727.922      100            100            0.019485407    0.0054213394   0              0.053034881    3373.6976      0              1.6290378e+08  1.1971759e-13  0              2.9948547    
    600000   12727.922      100            100            0.040466692   -0.0016553948   0              0.12305547     54.784816      0              2645362.7      1.1971759e-13  0              2.9922261    
    700000   12727.922      100            100            0.03484561     0.00075369274  0              0.10378314     16.059545      0              775457.95      1.1971759e-13  0              2.9928673    
    800000   12727.922      100            100            0.032620499    0.0017303617   0              0.096131135    8.3039995      0              400970.42      1.1971759e-13  0              2.9931348    
    900000   12727.922      100            100            0.03190772     0.0016160098   0              0.094107152    1.514662       0              73137.607      1.1971759e-13  0              2.9932065    
   1000000   12727.922      100            100            0.031825965    0.0016369582   0              0.093840935    0.14389397     0              6948.125       1.1971759e-13  0              2.9932156    
   1100000   12727.922      100            100            0.031855675    0.0016218555   0              0.093945168    0.0049703769   0              240.00171      1.1971759e-13  0              2.9932116    
   1200000   12727.922      100            100            0.031887916    0.0016177101   0              0.094046038    4.8640579e-05  0              2.3486795      1.1971759e-13  0              2.9932079    
   1300000   12727.922      100            100            0.031903681    0.0016164261   0              0.094094618    0.00018922355  0              9.1369282      1.1971759e-13  0              2.9932062    
   1400000   12727.922      100            100            0.031909031    0.0016158214   0              0.09411127     5.7893135e-05  0              2.7954523      1.1971759e-13  0              2.9932056    
   1500000   12727.922      100            100            0.031910257    0.0016156642   0              0.094115108    8.316849e-06   0              0.40159087     1.1971759e-13  0              2.9932054    
   1600000   12727.922      100            100            0.031910307    0.0016156593   0              0.094115262    5.9663825e-07  0              0.028809526    1.1971759e-13  0              2.9932054    
   1700000   12727.922      100            100            0.031910174    0.0016156773   0              0.094114843    8.7649555e-09  0              0.00042322833  1.1971759e-13  0              2.9932054    
   1800000   12727.922      100            100            0.031910084    0.0016156892   0              0.094114563    2.0495303e-09  0              9.8964483e-05  1.1971759e-13  0              2.9932054    
   1900000   12727.922      100            100            0.031910046    0.0016156941   0              0.094114445    1.6526745e-09  0              7.9801735e-05  1.1971759e-13  0              2.9932055    
   2000000   12727.922      100            100            0.031910035    0.0016156956   0              0.094114409    3.6814309e-10  0              1.7776312e-05  1.1971759e-13  0              2.9932055    
   2100000   12727.922      100            100            0.031910033    0.0016156958   0              0.094114403    4.1913943e-11  0              2.0238743e-06  1.1971759e-13  0              2.9932055    
   2200000   12727.922      100            100            0.031910033    0.0016156958   0              0.094114403    2.1068222e-12  0              1.017309e-07   1.1971759e-13  0              2.9932055    
   2300000   12727.922      100            100            0.031910034    0.0016156958   0              0.094114405    1.1389307e-15  0              5.4994888e-11  1.1971759e-13  0              2.9932055    
   2400000   12727.922      100            100            0.031910034    0.0016156957   0              0.094114406    2.9728141e-14  0              1.4354655e-09  1.1971759e-13  0              2.9932055    
   2500000   12727.922      100            100            0.031910034    0.0016156957   0              0.094114406    1.2564693e-14  0              6.0670404e-10  1.1971759e-13  0              2.9932055    
   2600000   12727.922      100            100            0.031910034    0.0016156957   0              0.094114406    2.1542579e-15  0              1.040214e-10   1.1971759e-13  0              2.9932055    
   2700000   12727.922      100            100            0.031910034    0.0016156957   0              0.094114406    1.2515011e-16  0              6.0430509e-12  1.1971759e-13  0              2.9932055    
   2800000   12727.922      100            100            0.031910034    0.0016156957   0              0.094114406    1.2538565e-17  0              6.0544242e-13  1.1971759e-13  0              2.9932055    
   2900000   12727.922      100            100            0.031910034    0.0016156957   0              0.094114406    1.7056438e-20  0              8.2359436e-16  1.1971759e-13  0              2.9932055    
   3000000   12727.922      100            100            0.031910034    0.0016156957   0              0.094114406    4.7364857e-18  0              2.2870795e-13  1.1971759e-13  0              2.9932055    
Loop time of 539.385 on 4 procs for 3000000 steps with 5001 atoms

Performance: 4805473.677 ns/day, 0.000 hours/ns, 5561.891 timesteps/s
100.0% CPU use with 4 MPI tasks x 1 OpenMP threads

MPI task timing breakdown:
Section |  min time  |  avg time  |  max time  |%varavg| %total
---------------------------------------------------------------
Pair    | 22.217     | 77.651     | 132.85     | 626.3 | 14.40
Neigh   | 2.6234     | 2.6623     | 2.7007     |   1.9 |  0.49
Comm    | 13.624     | 19.372     | 24.741     |  96.8 |  3.59
Output  | 0.34349    | 0.34411    | 0.34474    |   0.1 |  0.06
Modify  | 321.54     | 333.69     | 346.47     |  61.0 | 61.87
Other   |            | 105.7      |            |       | 19.59

Nlocal:        1250.25 ave        1752 max         749 min
Histogram: 2 0 0 0 0 0 0 0 0 2
Nghost:           1.75 ave           3 max           1 min
Histogram: 2 0 0 0 0 1 0 0 0 1
Neighs:         686.75 ave        1374 max           0 min
Histogram: 2 0 0 0 0 0 0 0 0 2

Total # of neighbors = 2747
Ave neighs/atom = 0.54929014
Neighbor list builds = 228
Dangerous builds = 0

undump D1

############ Add spring between top chain to supp particle and then equilibrium  ###########

#fix sp1 support spring couple slider1 ${K0} ${lenspr} NULL NULL 0                                 # Add spring

#dump 		D2 all custom 100000 add_${num}*.dump id type diameter mass xu yu zu

#fix add1 all print 10 "${p0} ${distance} ${slider_z}" file add_distance_${num}.txt screen no      # out put step, distance(spring length), z-position of top chain

#run 1000000

#undump D2

#unfix add1

########## Pulling the supporting particle with constant velocity #############

#fix m1 support move linear 0.1 0 0 units box                                                      # apply constant velocity to supporting particles along x-direction V=0.1m/s

#fix move1 all print 100 "${p0} ${distance} ${slider_z}" file move_distance_${num}.txt screen no

#dump 		1 all custom 50000 move_${num}_*.dump id type diameter mass xu yu zu

#run 10000000

clear
  using 1 OpenMP thread(s) per MPI task

next num

jump SELF startloop
Total wall time: 5:58:22
