ITEM: TIMESTEP
2800000
ITEM: NUMBER OF ATOMS
5001
ITEM: BOX BOUNDS pp pp pp
-6.3639610306789400e+03 6.3639610306789400e+03
-1.0000000000000000e+02 1.0000000000000000e+02
-1.0000000000000000e+02 1.0000000000000000e+02
ITEM: ATOMS id type diameter mass xu yu zu
1 1 3.97 72.0764 -6363.96103067893546 0 0
2 1 3.97 72.0764 -6359.71838999181546 0 0
3 1 3.97 72.0764 -6355.47574930469636 0 0
4 1 3.97 72.0764 -6351.23310861757727 0 0
5 1 3.97 72.0764 -6346.99046793045818 0 0
6 1 3.97 72.0764 -6342.74782724333909 0 0
7 1 3.97 72.0764 -6338.50518655621909 0 0
8 1 3.97 72.0764 -6334.26254586909999 0 0
9 1 3.97 72.0764 -6330.0199051819809 0 0
10 1 3.97 72.0764 -6325.77726449486181 0 0
11 1 3.97 72.0764 -6321.53462380774181 0 0
12 1 3.97 72.0764 -6317.29198312062272 0 0
13 1 3.97 72.0764 -6313.04934243350363 0 0
14 1 3.97 72.0764 -6308.80670174638453 0 0
15 1 3.97 72.0764 -6304.56406105926544 0 0
16 1 3.97 72.0764 -6300.32142037214544 0 0
17 1 3.97 72.0764 -6296.07877968502635 0 0
18 1 3.97 72.0764 -6291.83613899790726 0 0
19 1 3.97 72.0764 -6287.59349831078816 0 0
20 1 3.97 72.0764 -6283.35085762366907 0 0
21 1 3.97 72.0764 -6279.10821693654907 0 0
22 1 3.97 72.0764 -6274.86557624942998 0 0
23 1 3.97 72.0764 -6270.62293556231089 0 0
24 1 3.97 72.0764 -6266.38029487519179 0 0
25 1 3.97 72.0764 -6262.13765418807179 0 0
26 1 3.97 72.0764 -6257.8950135009527 0 0
27 1 3.97 72.0764 -6253.65237281383361 0 0
28 1 3.97 72.0764 -6249.40973212671452 0 0
29 1 3.97 72.0764 -6245.16709143959542 0 0
30 1 3.97 72.0764 -6240.92445075247542 0 0
31 1 3.97 72.0764 -6236.68181006535633 0 0
32 1 3.97 72.0764 -6232.43916937823724 0 0
33 1 3.97 72.0764 -6228.19652869111815 0 0
34 1 3.97 72.0764 -6223.95388800399814 0 0
35 1 3.97 72.0764 -6219.71124731687905 0 0
36 1 3.97 72.0764 -6215.46860662975996 0 0
37 1 3.97 72.0764 -6211.22596594264087 0 0
38 1 3.97 72.0764 -6206.98332525552178 0 0
39 1 3.97 72.0764 -6202.74068456840178 0 0
40 1 3.97 72.0764 -6198.49804388128268 0 0
41 1 3.97 72.0764 -6194.25540319416359 0 0
42 1 3.97 72.0764 -6190.0127625070445 0 0
43 1 3.97 72.0764 -6185.77012181992541 0 0
44 1 3.97 72.0764 -6181.52748113280541 0 0
45 1 3.97 72.0764 -6177.28484044568631 0 0
46 1 3.97 72.0764 -6173.04219975856722 0 0
47 1 3.97 72.0764 -6168.79955907144813 0 0
48 1 3.97 72.0764 -6164.55691838432813 0 0
49 1 3.97 72.0764 -6160.31427769720904 0 0
50 1 3.97 72.0764 -6156.07163701008994 0 0
51 1 3.97 72.0764 -6151.82899632297085 0 0
52 1 3.97 72.0764 -6147.58635563585176 0 0
53 1 3.97 72.0764 -6143.34371494873176 0 0
54 1 3.97 72.0764 -6139.10107426161267 0 0
55 1 3.97 72.0764 -6134.85843357449357 0 0
56 1 3.97 72.0764 -6130.61579288737448 0 0
57 1 3.97 72.0764 -6126.37315220025448 0 0
58 1 3.97 72.0764 -6122.13051151313539 0 0
59 1 3.97 72.0764 -6117.8878708260163 0 0
60 1 3.97 72.0764 -6113.6452301388972 0 0
61 1 3.97 72.0764 -6109.40258945177811 0 0
62 1 3.97 72.0764 -6105.15994876465811 0 0
63 1 3.97 72.0764 -6100.91730807753902 0 0
64 1 3.97 72.0764 -6096.67466739041993 0 0
65 1 3.97 72.0764 -6092.43202670330083 0 0
66 1 3.97 72.0764 -6088.18938601618174 0 0
67 1 3.97 72.0764 -6083.94674532906174 0 0
68 1 3.97 72.0764 -6079.70410464194265 0 0
69 1 3.97 72.0764 -6075.46146395482356 0 0
70 1 3.97 72.0764 -6071.21882326770447 0 0
71 1 3.97 72.0764 -6066.97618258058446 0 0
72 1 3.97 72.0764 -6062.73354189346537 0 0
73 1 3.97 72.0764 -6058.49090120634628 0 0
74 1 3.97 72.0764 -6054.24826051922719 0 0
75 1 3.97 72.0764 -6050.0056198321081 0 0
76 1 3.97 72.0764 -6045.76297914498809 0 0
77 1 3.97 72.0764 -6041.520338457869 0 0
78 1 3.97 72.0764 -6037.27769777074991 0 0
79 1 3.97 72.0764 -6033.03505708363082 0 0
80 1 3.97 72.0764 -6028.79241639651082 0 0
81 1 3.97 72.0764 -6024.54977570939172 0 0
82 1 3.97 72.0764 -6020.30713502227263 0 0
83 1 3.97 72.0764 -6016.06449433515354 0 0
84 1 3.97 72.0764 -6011.82185364803445 0 0
85 1 3.97 72.0764 -6007.57921296091445 0 0
86 1 3.97 72.0764 -6003.33657227379535 0 0
87 1 3.97 72.0764 -5999.09393158667626 0 0
88 1 3.97 72.0764 -5994.85129089955717 0 0
89 1 3.97 72.0764 -5990.60865021243717 0 0
90 1 3.97 72.0764 -5986.36600952531808 0 0
91 1 3.97 72.0764 -5982.12336883819899 0 0
92 1 3.97 72.0764 -5977.88072815107989 0 0
93 1 3.97 72.0764 -5973.6380874639608 0 0
94 1 3.97 72.0764 -5969.3954467768408 0 0
95 1 3.97 72.0764 -5965.15280608972171 0 0
96 1 3.97 72.0764 -5960.91016540260262 0 0
97 1 3.97 72.0764 -5956.66752471548352 0 0
98 1 3.97 72.0764 -5952.42488402836443 0 0
99 1 3.97 72.0764 -5948.18224334124443 0 0
100 1 3.97 72.0764 -5943.93960265412534 0 0
101 1 3.97 72.0764 -5939.69696196700625 0 0
102 1 3.97 72.0764 -5935.45432127988715 0 0
103 1 3.97 72.0764 -5931.21168059276715 0 0
104 1 3.97 72.0764 -5926.96903990564806 0 0
105 1 3.97 72.0764 -5922.72639921852897 0 0
106 1 3.97 72.0764 -5918.48375853140988 0 0
107 1 3.97 72.0764 -5914.24111784429078 0 0
108 1 3.97 72.0764 -5909.99847715717078 0 0
109 1 3.97 72.0764 -5905.75583647005169 0 0
110 1 3.97 72.0764 -5901.5131957829326 0 0
111 1 3.97 72.0764 -5897.27055509581351 0 0
112 1 3.97 72.0764 -5893.0279144086935 0 0
113 1 3.97 72.0764 -5888.78527372157441 0 0
114 1 3.97 72.0764 -5884.54263303445532 0 0
115 1 3.97 72.0764 -5880.29999234733623 0 0
116 1 3.97 72.0764 -5876.05735166021714 0 0
117 1 3.97 72.0764 -5871.81471097309714 0 0
118 1 3.97 72.0764 -5867.57207028597804 0 0
119 1 3.97 72.0764 -5863.32942959885895 0 0
120 1 3.97 72.0764 -5859.08678891173986 0 0
121 1 3.97 72.0764 -5854.84414822462077 0 0
122 1 3.97 72.0764 -5850.60150753750077 0 0
123 1 3.97 72.0764 -5846.35886685038167 0 0
124 1 3.97 72.0764 -5842.11622616326258 0 0
125 1 3.97 72.0764 -5837.87358547614349 0 0
126 1 3.97 72.0764 -5833.63094478902349 0 0
127 1 3.97 72.0764 -5829.3883041019044 0 0
128 1 3.97 72.0764 -5825.1456634147853 0 0
129 1 3.97 72.0764 -5820.90302272766621 0 0
130 1 3.97 72.0764 -5816.66038204054712 0 0
131 1 3.97 72.0764 -5812.41774135342712 0 0
132 1 3.97 72.0764 -5808.17510066630803 0 0
133 1 3.97 72.0764 -5803.93245997918893 0 0
134 1 3.97 72.0764 -5799.68981929206984 0 0
135 1 3.97 72.0764 -5795.44717860494984 0 0
136 1 3.97 72.0764 -5791.20453791783075 0 0
137 1 3.97 72.0764 -5786.96189723071166 0 0
138 1 3.97 72.0764 -5782.71925654359256 0 0
139 1 3.97 72.0764 -5778.47661585647347 0 0
140 1 3.97 72.0764 -5774.23397516935347 0 0
141 1 3.97 72.0764 -5769.99133448223438 0 0
142 1 3.97 72.0764 -5765.74869379511529 0 0
143 1 3.97 72.0764 -5761.50605310799619 0 0
144 1 3.97 72.0764 -5757.2634124208771 0 0
145 1 3.97 72.0764 -5753.0207717337571 0 0
146 1 3.97 72.0764 -5748.77813104663801 0 0
147 1 3.97 72.0764 -5744.53549035951892 0 0
148 1 3.97 72.0764 -5740.29284967239983 0 0
149 1 3.97 72.0764 -5736.05020898527982 0 0
150 1 3.97 72.0764 -5731.80756829816073 0 0
151 1 3.97 72.0764 -5727.56492761104164 0 0
152 1 3.97 72.0764 -5723.32228692392255 0 0
153 1 3.97 72.0764 -5719.07964623680346 0 0
154 1 3.97 72.0764 -5714.83700554968345 0 0
155 1 3.97 72.0764 -5710.59436486256436 0 0
156 1 3.97 72.0764 -5706.35172417544527 0 0
157 1 3.97 72.0764 -5702.10908348832618 0 0
158 1 3.97 72.0764 -5697.86644280120618 0 0
159 1 3.97 72.0764 -5693.62380211408708 0 0
160 1 3.97 72.0764 -5689.38116142696799 0 0
161 1 3.97 72.0764 -5685.1385207398489 0 0
162 1 3.97 72.0764 -5680.89588005272981 0 0
163 1 3.97 72.0764 -5676.65323936560981 0 0
164 1 3.97 72.0764 -5672.41059867849071 0 0
165 1 3.97 72.0764 -5668.16795799137162 0 0
166 1 3.97 72.0764 -5663.92531730425253 0 0
167 1 3.97 72.0764 -5659.68267661713344 0 0
168 1 3.97 72.0764 -5655.44003593001344 0 0
169 1 3.97 72.0764 -5651.19739524289434 0 0
170 1 3.97 72.0764 -5646.95475455577525 0 0
171 1 3.97 72.0764 -5642.71211386865616 0 0
172 1 3.97 72.0764 -5638.46947318153616 0 0
173 1 3.97 72.0764 -5634.22683249441707 0 0
174 1 3.97 72.0764 -5629.98419180729798 0 0
175 1 3.97 72.0764 -5625.74155112017888 0 0
176 1 3.97 72.0764 -5621.49891043305979 0 0
177 1 3.97 72.0764 -5617.25626974593979 0 0
178 1 3.97 72.0764 -5613.0136290588207 0 0
179 1 3.97 72.0764 -5608.77098837170161 0 0
180 1 3.97 72.0764 -5604.52834768458251 0 0
181 1 3.97 72.0764 -5600.28570699746251 0 0
182 1 3.97 72.0764 -5596.04306631034342 0 0
183 1 3.97 72.0764 -5591.80042562322433 0 0
184 1 3.97 72.0764 -5587.55778493610524 0 0
185 1 3.97 72.0764 -5583.31514424898614 0 0
186 1 3.97 72.0764 -5579.07250356186614 0 0
187 1 3.97 72.0764 -5574.82986287474705 0 0
188 1 3.97 72.0764 -5570.58722218762796 0 0
189 1 3.97 72.0764 -5566.34458150050887 0 0
190 1 3.97 72.0764 -5562.10194081338977 0 0
191 1 3.97 72.0764 -5557.85930012626977 0 0
192 1 3.97 72.0764 -5553.61665943915068 0 0
193 1 3.97 72.0764 -5549.37401875203159 0 0
194 1 3.97 72.0764 -5545.1313780649125 0 0
195 1 3.97 72.0764 -5540.88873737779249 0 0
196 1 3.97 72.0764 -5536.6460966906734 0 0
197 1 3.97 72.0764 -5532.40345600355431 0 0
198 1 3.97 72.0764 -5528.16081531643522 0 0
199 1 3.97 72.0764 -5523.91817462931613 0 0
200 1 3.97 72.0764 -5519.67553394219613 0 0
201 1 3.97 72.0764 -5515.43289325507703 0 0
202 1 3.97 72.0764 -5511.19025256795794 0 0
203 1 3.97 72.0764 -5506.94761188083885 0 0
204 1 3.97 72.0764 -5502.70497119371885 0 0
205 1 3.97 72.0764 -5498.46233050659976 0 0
206 1 3.97 72.0764 -5494.21968981948066 0 0
207 1 3.97 72.0764 -5489.97704913236157 0 0
208 1 3.97 72.0764 -5485.73440844524248 0 0
209 1 3.97 72.0764 -5481.49176775812248 0 0
210 1 3.97 72.0764 -5477.24912707100339 0 0
211 1 3.97 72.0764 -5473.00648638388429 0 0
212 1 3.97 72.0764 -5468.7638456967652 0 0
213 1 3.97 72.0764 -5464.5212050096452 0 0
214 1 3.97 72.0764 -5460.27856432252611 0 0
215 1 3.97 72.0764 -5456.03592363540702 0 0
216 1 3.97 72.0764 -5451.79328294828792 0 0
217 1 3.97 72.0764 -5447.55064226116883 0 0
218 1 3.97 72.0764 -5443.30800157404883 0 0
219 1 3.97 72.0764 -5439.06536088692974 0 0
220 1 3.97 72.0764 -5434.82272019981065 0 0
221 1 3.97 72.0764 -5430.58007951269155 0 0
222 1 3.97 72.0764 -5426.33743882557246 0 0
223 1 3.97 72.0764 -5422.09479813845246 0 0
224 1 3.97 72.0764 -5417.85215745133337 0 0
225 1 3.97 72.0764 -5413.60951676421428 0 0
226 1 3.97 72.0764 -5409.36687607709518 0 0
227 1 3.97 72.0764 -5405.12423538997518 0 0
228 1 3.97 72.0764 -5400.88159470285609 0 0
229 1 3.97 72.0764 -5396.638954015737 0 0
230 1 3.97 72.0764 -5392.39631332861791 0 0
231 1 3.97 72.0764 -5388.15367264149882 0 0
232 1 3.97 72.0764 -5383.91103195437881 0 0
233 1 3.97 72.0764 -5379.66839126725972 0 0
234 1 3.97 72.0764 -5375.42575058014063 0 0
235 1 3.97 72.0764 -5371.18310989302154 0 0
236 1 3.97 72.0764 -5366.94046920590154 0 0
237 1 3.97 72.0764 -5362.69782851878244 0 0
238 1 3.97 72.0764 -5358.45518783166335 0 0
239 1 3.97 72.0764 -5354.21254714454426 0 0
240 1 3.97 72.0764 -5349.96990645742517 0 0
241 1 3.97 72.0764 -5345.72726577030517 0 0
242 1 3.97 72.0764 -5341.48462508318607 0 0
243 1 3.97 72.0764 -5337.24198439606698 0 0
244 1 3.97 72.0764 -5332.99934370894789 0 0
245 1 3.97 72.0764 -5328.7567030218288 0 0
246 1 3.97 72.0764 -5324.5140623347088 0 0
247 1 3.97 72.0764 -5320.2714216475897 0 0
248 1 3.97 72.0764 -5316.02878096047061 0 0
249 1 3.97 72.0764 -5311.78614027335152 0 0
250 1 3.97 72.0764 -5307.54349958623152 0 0
251 1 3.97 72.0764 -5303.30085889911243 0 0
252 1 3.97 72.0764 -5299.05821821199333 0 0
253 1 3.97 72.0764 -5294.81557752487424 0 0
254 1 3.97 72.0764 -5290.57293683775515 0 0
255 1 3.97 72.0764 -5286.33029615063515 0 0
256 1 3.97 72.0764 -5282.08765546351606 0 0
257 1 3.97 72.0764 -5277.84501477639697 0 0
258 1 3.97 72.0764 -5273.60237408927787 0 0
259 1 3.97 72.0764 -5269.35973340215787 0 0
260 1 3.97 72.0764 -5265.11709271503878 0 0
261 1 3.97 72.0764 -5260.87445202791969 0 0
262 1 3.97 72.0764 -5256.6318113408006 0 0
263 1 3.97 72.0764 -5252.3891706536815 0 0
264 1 3.97 72.0764 -5248.1465299665615 0 0
265 1 3.97 72.0764 -5243.90388927944241 0 0
266 1 3.97 72.0764 -5239.66124859232332 0 0
267 1 3.97 72.0764 -5235.41860790520423 0 0
268 1 3.97 72.0764 -5231.17596721808513 0 0
269 1 3.97 72.0764 -5226.93332653096513 0 0
270 1 3.97 72.0764 -5222.69068584384604 0 0
271 1 3.97 72.0764 -5218.44804515672695 0 0
272 1 3.97 72.0764 -5214.20540446960786 0 0
273 1 3.97 72.0764 -5209.96276378248785 0 0
274 1 3.97 72.0764 -5205.72012309536876 0 0
275 1 3.97 72.0764 -5201.47748240824967 0 0
276 1 3.97 72.0764 -5197.23484172113058 0 0
277 1 3.97 72.0764 -5192.99220103401149 0 0
278 1 3.97 72.0764 -5188.74956034689149 0 0
279 1 3.97 72.0764 -5184.50691965977239 0 0
280 1 3.97 72.0764 -5180.2642789726533 0 0
281 1 3.97 72.0764 -5176.02163828553421 0 0
282 1 3.97 72.0764 -5171.77899759841421 0 0
283 1 3.97 72.0764 -5167.53635691129512 0 0
284 1 3.97 72.0764 -5163.29371622417602 0 0
285 1 3.97 72.0764 -5159.05107553705693 0 0
286 1 3.97 72.0764 -5154.80843484993784 0 0
287 1 3.97 72.0764 -5150.56579416281784 0 0
288 1 3.97 72.0764 -5146.32315347569875 0 0
289 1 3.97 72.0764 -5142.08051278857965 0 0
290 1 3.97 72.0764 -5137.83787210146056 0 0
291 1 3.97 72.0764 -5133.59523141434147 0 0
292 1 3.97 72.0764 -5129.35259072722147 0 0
293 1 3.97 72.0764 -5125.10995004010238 0 0
294 1 3.97 72.0764 -5120.86730935298328 0 0
295 1 3.97 72.0764 -5116.62466866586419 0 0
296 1 3.97 72.0764 -5112.38202797874419 0 0
297 1 3.97 72.0764 -5108.1393872916251 0 0
298 1 3.97 72.0764 -5103.89674660450601 0 0
299 1 3.97 72.0764 -5099.65410591738691 0 0
300 1 3.97 72.0764 -5095.41146523026782 0 0
301 1 3.97 72.0764 -5091.16882454314782 0 0
302 1 3.97 72.0764 -5086.92618385602873 0 0
303 1 3.97 72.0764 -5082.68354316890964 0 0
304 1 3.97 72.0764 -5078.44090248179054 0 0
305 1 3.97 72.0764 -5074.19826179467054 0 0
306 1 3.97 72.0764 -5069.95562110755145 0 0
307 1 3.97 72.0764 -5065.71298042043236 0 0
308 1 3.97 72.0764 -5061.47033973331327 0 0
309 1 3.97 72.0764 -5057.22769904619418 0 0
310 1 3.97 72.0764 -5052.98505835907417 0 0
311 1 3.97 72.0764 -5048.74241767195508 0 0
312 1 3.97 72.0764 -5044.49977698483599 0 0
313 1 3.97 72.0764 -5040.2571362977169 0 0
314 1 3.97 72.0764 -5036.0144956105969 0 0
315 1 3.97 72.0764 -5031.7718549234778 0 0
316 1 3.97 72.0764 -5027.52921423635871 0 0
317 1 3.97 72.0764 -5023.28657354923962 0 0
318 1 3.97 72.0764 -5019.04393286212053 0 0
319 1 3.97 72.0764 -5014.80129217500053 0 0
320 1 3.97 72.0764 -5010.55865148788143 0 0
321 1 3.97 72.0764 -5006.31601080076234 0 0
322 1 3.97 72.0764 -5002.07337011364325 0 0
323 1 3.97 72.0764 -4997.83072942652416 0 0
324 1 3.97 72.0764 -4993.58808873940416 0 0
325 1 3.97 72.0764 -4989.34544805228506 0 0
326 1 3.97 72.0764 -4985.10280736516597 0 0
327 1 3.97 72.0764 -4980.86016667804688 0 0
328 1 3.97 72.0764 -4976.61752599092688 0 0
329 1 3.97 72.0764 -4972.37488530380779 0 0
330 1 3.97 72.0764 -4968.13224461668869 0 0
331 1 3.97 72.0764 -4963.8896039295696 0 0
332 1 3.97 72.0764 -4959.64696324245051 0 0
333 1 3.97 72.0764 -4955.40432255533051 0 0
334 1 3.97 72.0764 -4951.16168186821142 0 0
335 1 3.97 72.0764 -4946.91904118109233 0 0
336 1 3.97 72.0764 -4942.67640049397323 0 0
337 1 3.97 72.0764 -4938.43375980685323 0 0
338 1 3.97 72.0764 -4934.19111911973414 0 0
339 1 3.97 72.0764 -4929.94847843261505 0 0
340 1 3.97 72.0764 -4925.70583774549596 0 0
341 1 3.97 72.0764 -4921.46319705837686 0 0
342 1 3.97 72.0764 -4917.22055637125686 0 0
343 1 3.97 72.0764 -4912.97791568413777 0 0
344 1 3.97 72.0764 -4908.73527499701868 0 0
345 1 3.97 72.0764 -4904.49263430989959 0 0
346 1 3.97 72.0764 -4900.24999362278049 0 0
347 1 3.97 72.0764 -4896.00735293566049 0 0
348 1 3.97 72.0764 -4891.7647122485414 0 0
349 1 3.97 72.0764 -4887.52207156142231 0 0
350 1 3.97 72.0764 -4883.27943087430322 0 0
351 1 3.97 72.0764 -4879.03679018718321 0 0
352 1 3.97 72.0764 -4874.79414950006412 0 0
353 1 3.97 72.0764 -4870.55150881294503 0 0
354 1 3.97 72.0764 -4866.30886812582594 0 0
355 1 3.97 72.0764 -4862.06622743870685 0 0
356 1 3.97 72.0764 -4857.82358675158684 0 0
357 1 3.97 72.0764 -4853.58094606446775 0 0
358 1 3.97 72.0764 -4849.33830537734866 0 0
359 1 3.97 72.0764 -4845.09566469022957 0 0
360 1 3.97 72.0764 -4840.85302400310957 0 0
361 1 3.97 72.0764 -4836.61038331599048 0 0
362 1 3.97 72.0764 -4832.36774262887138 0 0
363 1 3.97 72.0764 -4828.12510194175229 0 0
364 1 3.97 72.0764 -4823.8824612546332 0 0
365 1 3.97 72.0764 -4819.6398205675132 0 0
366 1 3.97 72.0764 -4815.39717988039411 0 0
367 1 3.97 72.0764 -4811.15453919327501 0 0
368 1 3.97 72.0764 -4806.91189850615592 0 0
369 1 3.97 72.0764 -4802.66925781903683 0 0
370 1 3.97 72.0764 -4798.42661713191683 0 0
371 1 3.97 72.0764 -4794.18397644479774 0 0
372 1 3.97 72.0764 -4789.94133575767864 0 0
373 1 3.97 72.0764 -4785.69869507055955 0 0
374 1 3.97 72.0764 -4781.45605438343955 0 0
375 1 3.97 72.0764 -4777.21341369632046 0 0
376 1 3.97 72.0764 -4772.97077300920137 0 0
377 1 3.97 72.0764 -4768.72813232208227 0 0
378 1 3.97 72.0764 -4764.48549163496318 0 0
379 1 3.97 72.0764 -4760.24285094784318 0 0
380 1 3.97 72.0764 -4756.00021026072409 0 0
381 1 3.97 72.0764 -4751.757569573605 0 0
382 1 3.97 72.0764 -4747.5149288864859 0 0
383 1 3.97 72.0764 -4743.2722881993659 0 0
384 1 3.97 72.0764 -4739.02964751224681 0 0
385 1 3.97 72.0764 -4734.78700682512772 0 0
386 1 3.97 72.0764 -4730.54436613800863 0 0
387 1 3.97 72.0764 -4726.30172545088953 0 0
388 1 3.97 72.0764 -4722.05908476376953 0 0
389 1 3.97 72.0764 -4717.81644407665044 0 0
390 1 3.97 72.0764 -4713.57380338953135 0 0
391 1 3.97 72.0764 -4709.33116270241226 0 0
392 1 3.97 72.0764 -4705.08852201529317 0 0
393 1 3.97 72.0764 -4700.84588132817316 0 0
394 1 3.97 72.0764 -4696.60324064105407 0 0
395 1 3.97 72.0764 -4692.36059995393498 0 0
396 1 3.97 72.0764 -4688.11795926681589 0 0
397 1 3.97 72.0764 -4683.87531857969589 0 0
398 1 3.97 72.0764 -4679.63267789257679 0 0
399 1 3.97 72.0764 -4675.3900372054577 0 0
400 1 3.97 72.0764 -4671.14739651833861 0 0
401 1 3.97 72.0764 -4666.90475583121952 0 0
402 1 3.97 72.0764 -4662.66211514409952 0 0
403 1 3.97 72.0764 -4658.41947445698042 0 0
404 1 3.97 72.0764 -4654.17683376986133 0 0
405 1 3.97 72.0764 -4649.93419308274224 0 0
406 1 3.97 72.0764 -4645.69155239562224 0 0
407 1 3.97 72.0764 -4641.44891170850315 0 0
408 1 3.97 72.0764 -4637.20627102138405 0 0
409 1 3.97 72.0764 -4632.96363033426496 0 0
410 1 3.97 72.0764 -4628.72098964714587 0 0
411 1 3.97 72.0764 -4624.47834896002587 0 0
412 1 3.97 72.0764 -4620.23570827290678 0 0
413 1 3.97 72.0764 -4615.99306758578768 0 0
414 1 3.97 72.0764 -4611.75042689866859 0 0
415 1 3.97 72.0764 -4607.5077862115495 0 0
416 1 3.97 72.0764 -4603.2651455244295 0 0
417 1 3.97 72.0764 -4599.02250483731041 0 0
418 1 3.97 72.0764 -4594.77986415019132 0 0
419 1 3.97 72.0764 -4590.53722346307222 0 0
420 1 3.97 72.0764 -4586.29458277595222 0 0
421 1 3.97 72.0764 -4582.05194208883313 0 0
422 1 3.97 72.0764 -4577.80930140171404 0 0
423 1 3.97 72.0764 -4573.56666071459495 0 0
424 1 3.97 72.0764 -4569.32402002747585 0 0
425 1 3.97 72.0764 -4565.08137934035585 0 0
426 1 3.97 72.0764 -4560.83873865323676 0 0
427 1 3.97 72.0764 -4556.59609796611767 0 0
428 1 3.97 72.0764 -4552.35345727899858 0 0
429 1 3.97 72.0764 -4548.11081659187857 0 0
430 1 3.97 72.0764 -4543.86817590475948 0 0
431 1 3.97 72.0764 -4539.62553521764039 0 0
432 1 3.97 72.0764 -4535.3828945305213 0 0
433 1 3.97 72.0764 -4531.14025384340221 0 0
434 1 3.97 72.0764 -4526.8976131562822 0 0
435 1 3.97 72.0764 -4522.65497246916311 0 0
436 1 3.97 72.0764 -4518.41233178204402 0 0
437 1 3.97 72.0764 -4514.16969109492493 0 0
438 1 3.97 72.0764 -4509.92705040780493 0 0
439 1 3.97 72.0764 -4505.68440972068584 0 0
440 1 3.97 72.0764 -4501.44176903356674 0 0
441 1 3.97 72.0764 -4497.19912834644765 0 0
442 1 3.97 72.0764 -4492.95648765932856 0 0
443 1 3.97 72.0764 -4488.71384697220856 0 0
444 1 3.97 72.0764 -4484.47120628508947 0 0
445 1 3.97 72.0764 -4480.22856559797037 0 0
446 1 3.97 72.0764 -4475.98592491085128 0 0
447 1 3.97 72.0764 -4471.74328422373219 0 0
448 1 3.97 72.0764 -4467.50064353661219 0 0
449 1 3.97 72.0764 -4463.2580028494931 0 0
450 1 3.97 72.0764 -4459.015362162374 0 0
451 1 3.97 72.0764 -4454.77272147525491 0 0
452 1 3.97 72.0764 -4450.53008078813491 0 0
453 1 3.97 72.0764 -4446.28744010101582 0 0
454 1 3.97 72.0764 -4442.04479941389673 0 0
455 1 3.97 72.0764 -4437.80215872677763 0 0
456 1 3.97 72.0764 -4433.55951803965854 0 0
457 1 3.97 72.0764 -4429.31687735253854 0 0
458 1 3.97 72.0764 -4425.07423666541945 0 0
459 1 3.97 72.0764 -4420.83159597830036 0 0
460 1 3.97 72.0764 -4416.58895529118126 0 0
461 1 3.97 72.0764 -4412.34631460406126 0 0
462 1 3.97 72.0764 -4408.10367391694217 0 0
463 1 3.97 72.0764 -4403.86103322982308 0 0
464 1 3.97 72.0764 -4399.61839254270399 0 0
465 1 3.97 72.0764 -4395.37575185558489 0 0
466 1 3.97 72.0764 -4391.13311116846489 0 0
467 1 3.97 72.0764 -4386.8904704813458 0 0
468 1 3.97 72.0764 -4382.64782979422671 0 0
469 1 3.97 72.0764 -4378.40518910710762 0 0
470 1 3.97 72.0764 -4374.16254841998852 0 0
471 1 3.97 72.0764 -4369.91990773286852 0 0
472 1 3.97 72.0764 -4365.67726704574943 0 0
473 1 3.97 72.0764 -4361.43462635863034 0 0
474 1 3.97 72.0764 -4357.19198567151125 0 0
475 1 3.97 72.0764 -4352.94934498439125 0 0
476 1 3.97 72.0764 -4348.70670429727215 0 0
477 1 3.97 72.0764 -4344.46406361015306 0 0
478 1 3.97 72.0764 -4340.22142292303397 0 0
479 1 3.97 72.0764 -4335.97878223591488 0 0
480 1 3.97 72.0764 -4331.73614154879488 0 0
481 1 3.97 72.0764 -4327.49350086167578 0 0
482 1 3.97 72.0764 -4323.25086017455669 0 0
483 1 3.97 72.0764 -4319.0082194874376 0 0
484 1 3.97 72.0764 -4314.7655788003176 0 0
485 1 3.97 72.0764 -4310.52293811319851 0 0
486 1 3.97 72.0764 -4306.28029742607941 0 0
487 1 3.97 72.0764 -4302.03765673896032 0 0
488 1 3.97 72.0764 -4297.79501605184123 0 0
489 1 3.97 72.0764 -4293.55237536472123 0 0
490 1 3.97 72.0764 -4289.30973467760214 0 0
491 1 3.97 72.0764 -4285.06709399048304 0 0
492 1 3.97 72.0764 -4280.82445330336395 0 0
493 1 3.97 72.0764 -4276.58181261624486 0 0
494 1 3.97 72.0764 -4272.33917192912486 0 0
495 1 3.97 72.0764 -4268.09653124200577 0 0
496 1 3.97 72.0764 -4263.85389055488668 0 0
497 1 3.97 72.0764 -4259.61124986776758 0 0
498 1 3.97 72.0764 -4255.36860918064758 0 0
499 1 3.97 72.0764 -4251.12596849352849 0 0
500 1 3.97 72.0764 -4246.8833278064094 0 0
501 1 3.97 72.0764 -4242.64068711929031 0 0
502 1 3.97 72.0764 -4238.39804643217121 0 0
503 1 3.97 72.0764 -4234.15540574505121 0 0
504 1 3.97 72.0764 -4229.91276505793212 0 0
505 1 3.97 72.0764 -4225.67012437081303 0 0
506 1 3.97 72.0764 -4221.42748368369394 0 0
507 1 3.97 72.0764 -4217.18484299657393 0 0
508 1 3.97 72.0764 -4212.94220230945484 0 0
509 1 3.97 72.0764 -4208.69956162233575 0 0
510 1 3.97 72.0764 -4204.45692093521666 0 0
511 1 3.97 72.0764 -4200.21428024809757 0 0
512 1 3.97 72.0764 -4195.97163956097756 0 0
513 1 3.97 72.0764 -4191.72899887385847 0 0
514 1 3.97 72.0764 -4187.48635818673938 0 0
515 1 3.97 72.0764 -4183.24371749962029 0 0
516 1 3.97 72.0764 -4179.0010768125012 0 0
517 1 3.97 72.0764 -4174.75843612538119 0 0
518 1 3.97 72.0764 -4170.5157954382621 0 0
519 1 3.97 72.0764 -4166.27315475114301 0 0
520 1 3.97 72.0764 -4162.03051406402392 0 0
521 1 3.97 72.0764 -4157.78787337690392 0 0
522 1 3.97 72.0764 -4153.54523268978483 0 0
523 1 3.97 72.0764 -4149.30259200266573 0 0
524 1 3.97 72.0764 -4145.05995131554664 0 0
525 1 3.97 72.0764 -4140.81731062842755 0 0
526 1 3.97 72.0764 -4136.57466994130755 0 0
527 1 3.97 72.0764 -4132.33202925418846 0 0
528 1 3.97 72.0764 -4128.08938856706936 0 0
529 1 3.97 72.0764 -4123.84674787995027 0 0
530 1 3.97 72.0764 -4119.60410719283027 0 0
531 1 3.97 72.0764 -4115.36146650571118 0 0
532 1 3.97 72.0764 -4111.11882581859209 0 0
533 1 3.97 72.0764 -4106.87618513147299 0 0
534 1 3.97 72.0764 -4102.6335444443539 0 0
535 1 3.97 72.0764 -4098.3909037572339 0 0
536 1 3.97 72.0764 -4094.14826307011481 0 0
537 1 3.97 72.0764 -4089.90562238299572 0 0
538 1 3.97 72.0764 -4085.66298169587617 0 0
539 1 3.97 72.0764 -4081.42034100875708 0 0
540 1 3.97 72.0764 -4077.17770032163799 0 0
541 1 3.97 72.0764 -4072.93505963451844 0 0
542 1 3.97 72.0764 -4068.69241894739935 0 0
543 1 3.97 72.0764 -4064.4497782602798 0 0
544 1 3.97 72.0764 -4060.20713757316071 0 0
545 1 3.97 72.0764 -4055.96449688604116 0 0
546 1 3.97 72.0764 -4051.72185619892207 0 0
547 1 3.97 72.0764 -4047.47921551180298 0 0
548 1 3.97 72.0764 -4043.23657482468343 0 0
549 1 3.97 72.0764 -4038.99393413756434 0 0
550 1 3.97 72.0764 -4034.75129345044479 0 0
551 1 3.97 72.0764 -4030.5086527633257 0 0
552 1 3.97 72.0764 -4026.26601207620615 0 0
553 1 3.97 72.0764 -4022.02337138908706 0 0
554 1 3.97 72.0764 -4017.78073070196751 0 0
555 1 3.97 72.0764 -4013.53809001484842 0 0
556 1 3.97 72.0764 -4009.29544932772933 0 0
557 1 3.97 72.0764 -4005.05280864060978 0 0
558 1 3.97 72.0764 -4000.81016795349069 0 0
559 1 3.97 72.0764 -3996.56752726637114 0 0
560 1 3.97 72.0764 -3992.32488657925205 0 0
561 1 3.97 72.0764 -3988.08224589213251 0 0
562 1 3.97 72.0764 -3983.83960520501341 0 0
563 1 3.97 72.0764 -3979.59696451789432 0 0
564 1 3.97 72.0764 -3975.35432383077477 0 0
565 1 3.97 72.0764 -3971.11168314365568 0 0
566 1 3.97 72.0764 -3966.86904245653614 0 0
567 1 3.97 72.0764 -3962.62640176941704 0 0
568 1 3.97 72.0764 -3958.3837610822975 0 0
569 1 3.97 72.0764 -3954.1411203951784 0 0
570 1 3.97 72.0764 -3949.89847970805886 0 0
571 1 3.97 72.0764 -3945.65583902093977 0 0
572 1 3.97 72.0764 -3941.41319833382067 0 0
573 1 3.97 72.0764 -3937.17055764670113 0 0
574 1 3.97 72.0764 -3932.92791695958203 0 0
575 1 3.97 72.0764 -3928.68527627246249 0 0
576 1 3.97 72.0764 -3924.4426355853434 0 0
577 1 3.97 72.0764 -3920.19999489822385 0 0
578 1 3.97 72.0764 -3915.95735421110476 0 0
579 1 3.97 72.0764 -3911.71471352398567 0 0
580 1 3.97 72.0764 -3907.47207283686612 0 0
581 1 3.97 72.0764 -3903.22943214974703 0 0
582 1 3.97 72.0764 -3898.98679146262748 0 0
583 1 3.97 72.0764 -3894.74415077550839 0 0
584 1 3.97 72.0764 -3890.50151008838884 0 0
585 1 3.97 72.0764 -3886.25886940126975 0 0
586 1 3.97 72.0764 -3882.01622871415066 0 0
587 1 3.97 72.0764 -3877.77358802703111 0 0
588 1 3.97 72.0764 -3873.53094733991202 0 0
589 1 3.97 72.0764 -3869.28830665279247 0 0
590 1 3.97 72.0764 -3865.04566596567338 0 0
591 1 3.97 72.0764 -3860.80302527855383 0 0
592 1 3.97 72.0764 -3856.56038459143474 0 0
593 1 3.97 72.0764 -3852.31774390431519 0 0
594 1 3.97 72.0764 -3848.0751032171961 0 0
595 1 3.97 72.0764 -3843.83246253007701 0 0
596 1 3.97 72.0764 -3839.58982184295746 0 0
597 1 3.97 72.0764 -3835.34718115583837 0 0
598 1 3.97 72.0764 -3831.10454046871882 0 0
599 1 3.97 72.0764 -3826.86189978159973 0 0
600 1 3.97 72.0764 -3822.61925909448019 0 0
601 1 3.97 72.0764 -3818.37661840736109 0 0
602 1 3.97 72.0764 -3814.133977720242 0 0
603 1 3.97 72.0764 -3809.89133703312245 0 0
604 1 3.97 72.0764 -3805.64869634600336 0 0
605 1 3.97 72.0764 -3801.40605565888382 0 0
606 1 3.97 72.0764 -3797.16341497176472 0 0
607 1 3.97 72.0764 -3792.92077428464518 0 0
608 1 3.97 72.0764 -3788.67813359752608 0 0
609 1 3.97 72.0764 -3784.43549291040699 0 0
610 1 3.97 72.0764 -3780.19285222328745 0 0
611 1 3.97 72.0764 -3775.95021153616835 0 0
612 1 3.97 72.0764 -3771.70757084904881 0 0
613 1 3.97 72.0764 -3767.46493016192971 0 0
614 1 3.97 72.0764 -3763.22228947481017 0 0
615 1 3.97 72.0764 -3758.97964878769108 0 0
616 1 3.97 72.0764 -3754.73700810057153 0 0
617 1 3.97 72.0764 -3750.49436741345244 0 0
618 1 3.97 72.0764 -3746.25172672633335 0 0
619 1 3.97 72.0764 -3742.0090860392138 0 0
620 1 3.97 72.0764 -3737.76644535209471 0 0
621 1 3.97 72.0764 -3733.52380466497516 0 0
622 1 3.97 72.0764 -3729.28116397785607 0 0
623 1 3.97 72.0764 -3725.03852329073652 0 0
624 1 3.97 72.0764 -3720.79588260361743 0 0
625 1 3.97 72.0764 -3716.55324191649834 0 0
626 1 3.97 72.0764 -3712.31060122937879 0 0
627 1 3.97 72.0764 -3708.0679605422597 0 0
628 1 3.97 72.0764 -3703.82531985514015 0 0
629 1 3.97 72.0764 -3699.58267916802106 0 0
630 1 3.97 72.0764 -3695.34003848090151 0 0
631 1 3.97 72.0764 -3691.09739779378242 0 0
632 1 3.97 72.0764 -3686.85475710666287 0 0
633 1 3.97 72.0764 -3682.61211641954378 0 0
634 1 3.97 72.0764 -3678.36947573242469 0 0
635 1 3.97 72.0764 -3674.12683504530514 0 0
636 1 3.97 72.0764 -3669.88419435818605 0 0
637 1 3.97 72.0764 -3665.6415536710665 0 0
638 1 3.97 72.0764 -3661.39891298394741 0 0
639 1 3.97 72.0764 -3657.15627229682786 0 0
640 1 3.97 72.0764 -3652.91363160970877 0 0
641 1 3.97 72.0764 -3648.67099092258968 0 0
642 1 3.97 72.0764 -3644.42835023547013 0 0
643 1 3.97 72.0764 -3640.18570954835104 0 0
644 1 3.97 72.0764 -3635.9430688612315 0 0
645 1 3.97 72.0764 -3631.7004281741124 0 0
646 1 3.97 72.0764 -3627.45778748699286 0 0
647 1 3.97 72.0764 -3623.21514679987376 0 0
648 1 3.97 72.0764 -3618.97250611275467 0 0
649 1 3.97 72.0764 -3614.72986542563513 0 0
650 1 3.97 72.0764 -3610.48722473851603 0 0
651 1 3.97 72.0764 -3606.24458405139649 0 0
652 1 3.97 72.0764 -3602.00194336427739 0 0
653 1 3.97 72.0764 -3597.75930267715785 0 0
654 1 3.97 72.0764 -3593.51666199003876 0 0
655 1 3.97 72.0764 -3589.27402130291921 0 0
656 1 3.97 72.0764 -3585.03138061580012 0 0
657 1 3.97 72.0764 -3580.78873992868103 0 0
658 1 3.97 72.0764 -3576.54609924156148 0 0
659 1 3.97 72.0764 -3572.30345855444239 0 0
660 1 3.97 72.0764 -3568.06081786732284 0 0
661 1 3.97 72.0764 -3563.81817718020375 0 0
662 1 3.97 72.0764 -3559.5755364930842 0 0
663 1 3.97 72.0764 -3555.33289580596511 0 0
664 1 3.97 72.0764 -3551.09025511884602 0 0
665 1 3.97 72.0764 -3546.84761443172647 0 0
666 1 3.97 72.0764 -3542.60497374460738 0 0
667 1 3.97 72.0764 -3538.36233305748783 0 0
668 1 3.97 72.0764 -3534.11969237036874 0 0
669 1 3.97 72.0764 -3529.87705168324919 0 0
670 1 3.97 72.0764 -3525.6344109961301 0 0
671 1 3.97 72.0764 -3521.39177030901101 0 0
672 1 3.97 72.0764 -3517.14912962189146 0 0
673 1 3.97 72.0764 -3512.90648893477237 0 0
674 1 3.97 72.0764 -3508.66384824765282 0 0
675 1 3.97 72.0764 -3504.42120756053373 0 0
676 1 3.97 72.0764 -3500.17856687341418 0 0
677 1 3.97 72.0764 -3495.93592618629509 0 0
678 1 3.97 72.0764 -3491.69328549917554 0 0
679 1 3.97 72.0764 -3487.45064481205645 0 0
680 1 3.97 72.0764 -3483.20800412493736 0 0