LAMMPS (23 Jun 2022 - Update 1)
  using 1 OpenMP thread(s) per MPI task
variable num index 0 1 2 3 4 5 6 7 8 9 10 11 12 13 14 15 16 17 18 19 20 21 22 23 24 25 26 27 28 29 30 31 32 33 34 35 36 37 38 39 40 41 42 43 44 45 46 47 48 49 50 51 52 53 54 55 56 57 58 59 60 61 62 63 64 65 66 67 68 69 70 71 72 73 74 75 76 77 78 79 80 81 82 83 84 85 86 87 88 89 90 91 92 93 94 95 96 97 98 99

label startloop

include granular.in
### Simulation of contact between two chain

##################### Simulation setup ####################

units micro                              # units
dimension	3                            # dimension
boundary	p p p                        # boundary condition p: periodic
atom_style	sphere                       # atom style
#processors * * 1

####################### Parameter ##################################

variable ind equal ${num}
variable ind equal 0

#variable lat0 equal 1                    #
variable lat1 equal 3*(2^(1/2))       # Lattice distance of bottom chain
variable lat2 equal 3                   # Lattice distance of top chain
variable d1 equal 3+(0*0.01)+(v_ind*0.01)                      # Diamter of particle at bottom chain
variable d2 equal 3                      # Diamter of particle at top chain
#variable d3 equal 1                      # Diamter of supporting particle

variable n2e1 equal 1000*v_lat2              # Half length of top chain. 1500 is number of particles
variable n1e1 equal 1.5*v_n2e1*(v_lat1/v_lat2)               # Half length of bottom chain, which is 1.5 time larger than top chain
variable n1e2 equal -v_n1e1
variable n2e2 equal -v_n2e1
#variable lenspr equal -(v_n2e1+100)           # length of the spring connecting top chain and supporting particle
#variable lenspr1 equal -v_lenspr-0.1         # Position of supporting particle upper bound
#variable lenspr2 equal -v_lenspr+0.1         # Position of supporting particle lower bound

variable den equal 2.2 #grams/cm^3      # micrometer^3=10^-12 cm^3 Density of materials
#variable den2 equal 1.5

variable V1 equal (1/6)*PI*(v_d1^3)     # Volume of particle 1
variable V2 equal (1/6)*PI*(v_d2^3)     # Volume of particle 2
#variable V3 equal (1/6)*PI*(v_d3^3)     # Volume of particle 3

variable mass1 equal v_den*v_V1  # Mass of particle 1 (picograms)
variable mass2 equal v_den*v_V2  # Mass of particle 2
#variable mass3 equal v_den*v_V3  # Mass of particle 3

# E GPa to picogram/(micrometer-microsecond^2)= 10^3 Pa= 10^-6 GPa
# Force unit(picogram-micrometer/microsecond^2)=10^-9 N= 1nN
# Spring stiffness (force/distance) 10^-3 N/m

variable K0 equal (1500/50)*(10^5)             # Spring stiffness conneting top chain and sup particle
variable E equal 100*(10^6)                    # Young's Modulus using for Hertz/material model
variable PR equal 0.3                          # Poisson's ratio using for Hertz/material model
variable Fn equal -1000 #-(v_ind*100)                       # Force apply to each particles in top chain
variable dt equal 0.00001                      # Time step units microsecond
variable lgv equal 0.5                         #damping for langevin thermostat for slider


################### Creating the model #################################
lattice sc ${lat1}                                                               # Bottom chain type1
lattice sc 4.24264068711929                                                               
Lattice spacing in x,y,z = 4.2426407 4.2426407 4.2426407

region box block ${n1e2} ${n1e1} -100 100 -100 100 units box
region box block -6363.96103067894 ${n1e1} -100 100 -100 100 units box
region box block -6363.96103067894 6363.96103067894 -100 100 -100 100 units box
region substrate block ${n1e2} ${n1e1} -0.5 0.5 0 0.5 units box
region substrate block -6363.96103067894 ${n1e1} -0.5 0.5 0 0.5 units box
region substrate block -6363.96103067894 6363.96103067894 -0.5 0.5 0 0.5 units box

create_box 2 box
Created orthogonal box = (-6363.961 -100 -100) to (6363.961 100 100)
  4 by 1 by 1 MPI processor grid
create_atoms 1 region substrate
Created 3000 atoms
  using lattice units in orthogonal box = (-6363.961 -100 -100) to (6363.961 100 100)
  create_atoms CPU = 0.003 seconds

lattice sc ${lat2}                                                             # Top chain type2
lattice sc 3                                                             
Lattice spacing in x,y,z = 3 3 3

region slider1 block ${n2e2} ${n2e1} -0.1 0.1 5.9 6.1 units box
region slider1 block -3000 ${n2e1} -0.1 0.1 5.9 6.1 units box
region slider1 block -3000 3000 -0.1 0.1 5.9 6.1 units box

create_atoms 2 region slider1
Created 2001 atoms
  using lattice units in orthogonal box = (-6363.961 -100 -100) to (6363.961 100 100)
  create_atoms CPU = 0.001 seconds

#lattice sc ${lat0}                                                             # Supporting particle type3

#region support block ${lenspr1} ${lenspr2} -0.1 0.1 7.9 8.1 units box

#create_atoms 3 region support

set type 1 diameter ${d1}                    # Set mass and diameter for each particles type
set type 1 diameter 3                    
Setting atom values ...
  3000 settings made for diameter
set type 1 mass ${mass1}
set type 1 mass 31.101767270539
Setting atom values ...
  3000 settings made for mass
set type 2 diameter ${d2}
set type 2 diameter 3
Setting atom values ...
  2001 settings made for diameter
set type 2 mass ${mass2}
set type 2 mass 31.101767270539
Setting atom values ...
  2001 settings made for mass
#set type 3 diameter ${d3}
#set type 3 mass ${mass3}

group substrate region substrate           # Define gorup
3000 atoms in group substrate
group slider1 region slider1
2001 atoms in group slider1
#group support region support
group substrate_slider union substrate slider1
5001 atoms in group substrate_slider

########################## Potential ###################################
pair_style granular
pair_coeff 1 1 hertz/material 0.00000001 0.001 ${PR} tangential mindlin NULL 0.1 0.01 damping viscoelastic              ########### set E between each particle in same type is small to neglect their interaction
pair_coeff 1 1 hertz/material 0.00000001 0.001 0.3 tangential mindlin NULL 0.1 0.01 damping viscoelastic              
pair_coeff 2 2 hertz/material 0.00000001 0.001 ${PR} tangential mindlin NULL 0.1 0.01 damping viscoelastic
pair_coeff 2 2 hertz/material 0.00000001 0.001 0.3 tangential mindlin NULL 0.1 0.01 damping viscoelastic
#pair_coeff 3 3 hertz/material ${E} 0.001 ${PR} tangential mindlin NULL 0.1 0.01 damping viscoelastic
pair_coeff 1 2 hertz/material ${E} 0.001 ${PR} tangential mindlin NULL 0.1 0.01 damping viscoelastic
pair_coeff 1 2 hertz/material 100000000 0.001 ${PR} tangential mindlin NULL 0.1 0.01 damping viscoelastic
pair_coeff 1 2 hertz/material 100000000 0.001 0.3 tangential mindlin NULL 0.1 0.01 damping viscoelastic
#pair_coeff 1 3 hertz/material 0.00000001 0.001 ${PR} tangential mindlin NULL 0.1 0.01 damping viscoelastic
#pair_coeff 2 3 hertz/material 0.00000001 0.001 ${PR} tangential mindlin NULL 0.1 0.01 damping viscoelastic
comm_modify     vel yes
neigh_modify    delay 0 every 1 check yes

### Compute properties ###

compute 1 slider1 com                      # Compute the center of mass of top chain
#compute 2 support com                      # Compute the center of mass of supporting particle

variable p0 equal "step"

variable slider_z equal "c_1[3]"          # output the position of top chain in z-direction

#variable distance equal "c_2[1]-c_1[1]"   # Distance between COM of top chain and supporting particle

thermo 100000
thermo_style custom step lx ly lz press pxx pyy pzz ke pe temp c_1[1] c_1[2] c_1[3] #c_2[1] c_2[2] c_2[3] v_distance

############### Fix ##################


############## Equilibrium the system with apply force ########################

fix force_slider1 slider1 setforce NULL 0 NULL                                # Fix top chain not to move in y-direction

fix f_sub substrate freeze                                                    # Freeze the bottom chain

fix rigid_top slider1 rigid/nve group 1 slider1 langevin 0 0 ${lgv} 6987532   # NVE+langevin
fix rigid_top slider1 rigid/nve group 1 slider1 langevin 0 0 0.5 6987532   
  1 rigid bodies with 2001 atoms

fix add slider1 addforce 0 0 ${Fn} every 1                                    # Add force to top layer
fix add slider1 addforce 0 0 -1000 every 1                                    

timestep ${dt}
timestep 1e-05

# fix  nve_1 slider1 nve

dump 		D1 all custom 100000 Equi_${num}_*.dump id type diameter mass xu yu zu
dump 		D1 all custom 100000 Equi_0_*.dump id type diameter mass xu yu zu
dump_modify D1 format 5 %.18g
dump_modify D1 format 7 %.18g

run 3000000
Generated 0 of 1 mixed pair_coeff terms from geometric mixing rule
Neighbor list info ...
  update every 1 steps, delay 0 steps, check yes
  max neighbors/atom: 2000, page size: 100000
  master list distance cutoff = 3.1
  ghost atom cutoff = 3.1
  binsize = 1.55, bins = 8212 130 130
  1 neighbor lists, perpetual/occasional/extra = 1 0 0
  (1) pair granular, perpetual
      attributes: half, newton on, size, history
      pair build: half/size/bin/newton
      stencil: half/bin/3d
      bin: standard
Per MPI rank memory allocation (min/avg/max) = 156 | 156 | 156 Mbytes
   Step           Lx             Ly             Lz           Press           Pxx            Pyy            Pzz           KinEng         PotEng          Temp          c_1[1]         c_1[2]         c_1[3]    
         0   12727.922      200            200            0              0              0              0              0              0              0              1.1971759e-13  0              6            
    100000   12727.922      200            200            0.0031888582   3.8079792e-35  0              0.0095665747   1167141.5      0              5.6357084e+10  1.1971759e-13  0              3.3271665    
    200000   12727.922      200            200            0.0011220306   5.0773177e-35  0              0.0033660917   281386.72      0              1.3587158e+10  1.1971759e-13  0              3.07527      
    300000   12727.922      200            200            6.733108e-05   1.2693254e-35  0              0.00020199324  2111.4018      0              1.0195204e+08  1.1971759e-13  0              3.0452685    
    400000   12727.922      200            200            0.00018472321  2.5756287e-07  0              0.00055391206  14110.103      0              6.8132637e+08  1.1971759e-13  0              2.999902     
    500000   12727.922      200            200            0.0015983401   0.00017793983  0              0.0046170804   1885.0597      0              91022785       1.1971759e-13  0              2.9970525    
    600000   12727.922      200            200            0.0046584564   0.00069504722  0              0.013280322    383.02405      0              18494861       1.1971759e-13  0              2.9949111    
    700000   12727.922      200            200            0.0042633721   0.00056960023  0              0.012220516    52.104481      0              2515938.9      1.1971759e-13  0              2.9950966    
    800000   12727.922      200            200            0.003964344    0.00054607393  0              0.011346958    4.2289332      0              204200.05      1.1971759e-13  0              2.9952822    
    900000   12727.922      200            200            0.0041957661   0.00060054376  0              0.011986755    0.20065338     0              9688.8335      1.1971759e-13  0              2.9951492    
   1000000   12727.922      200            200            0.0040905131   0.00058718396  0              0.011684355    0.00053927383  0              26.039603      1.1971759e-13  0              2.995211     
   1100000   12727.922      200            200            0.0041303955   0.00058848375  0              0.011802703    0.0019532767   0              94.316743      1.1971759e-13  0              2.9951869    
   1200000   12727.922      200            200            0.0041171595   0.00058822405  0              0.011763254    0.0010860456   0              52.441257      1.1971759e-13  0              2.9951949    
   1300000   12727.922      200            200            0.0041207638   0.00058830068  0              0.011773991    0.00026679892  0              12.882765      1.1971759e-13  0              2.9951927    
   1400000   12727.922      200            200            0.0041201071   0.00058828747  0              0.011772034    4.366948e-05   0              2.1086429      1.1971759e-13  0              2.9951931    
   1500000   12727.922      200            200            0.0041200668   0.00058828637  0              0.011771914    5.1567016e-06  0              0.24899866     1.1971759e-13  0              2.9951931    
   1600000   12727.922      200            200            0.0041201822   0.0005882889   0              0.011772258    4.1814138e-07  0              0.020190551    1.1971759e-13  0              2.9951931    
   1700000   12727.922      200            200            0.0041201097   0.00058828734  0              0.011772042    1.739103e-08   0              0.00083975059  1.1971759e-13  0              2.9951931    
   1800000   12727.922      200            200            0.0041201432   0.00058828805  0              0.011772142    5.0485958e-12  0              2.4377862e-07  1.1971759e-13  0              2.9951931    
   1900000   12727.922      200            200            0.0041201303   0.00058828778  0              0.011772103    2.6225189e-10  0              1.2663205e-05  1.1971759e-13  0              2.9951931    
   2000000   12727.922      200            200            0.0041201345   0.00058828787  0              0.011772116    1.2639576e-10  0              6.1031987e-06  1.1971759e-13  0              2.9951931    
   2100000   12727.922      200            200            0.0041201334   0.00058828784  0              0.011772112    2.9388185e-11  0              1.4190503e-06  1.1971759e-13  0              2.9951931    
   2200000   12727.922      200            200            0.0041201336   0.00058828785  0              0.011772113    4.6323229e-12  0              2.2367829e-07  1.1971759e-13  0              2.9951931    
   2300000   12727.922      200            200            0.0041201336   0.00058828785  0              0.011772113    5.2747959e-13  0              2.5470102e-08  1.1971759e-13  0              2.9951931    
   2400000   12727.922      200            200            0.0041201336   0.00058828785  0              0.011772113    4.0825487e-14  0              1.9713166e-09  1.1971759e-13  0              2.9951931    
   2500000   12727.922      200            200            0.0041201336   0.00058828785  0              0.011772113    1.6409519e-15  0              7.9235694e-11  1.1971759e-13  0              2.9951931    
   2600000   12727.922      200            200            0.0041201336   0.00058828785  0              0.011772113    1.5511347e-18  0              7.4898744e-14  1.1971759e-13  0              2.9951931    
   2700000   12727.922      200            200            0.0041201336   0.00058828785  0              0.011772113    1.0112008e-17  0              4.8827268e-13  1.1971759e-13  0              2.9951931    
   2800000   12727.922      200            200            0.0041201336   0.00058828785  0              0.011772113    1.3207123e-19  0              6.377247e-15   1.1971759e-13  0              2.9951931    
   2900000   12727.922      200            200            0.0041201336   0.00058828785  0              0.011772113    7.4560401e-18  0              3.6002549e-13  1.1971759e-13  0              2.9951931    
   3000000   12727.922      200            200            0.0041201336   0.00058828784  0              0.011772113    1.0145196e-18  0              4.898752e-14   1.1971759e-13  0              2.9951931    
Loop time of 559.959 on 4 procs for 3000000 steps with 5001 atoms

Performance: 4628912.413 ns/day, 0.000 hours/ns, 5357.538 timesteps/s
100.0% CPU use with 4 MPI tasks x 1 OpenMP threads

MPI task timing breakdown:
Section |  min time  |  avg time  |  max time  |%varavg| %total
---------------------------------------------------------------
Pair    | 23.168     | 80.527     | 137.38     | 632.1 | 14.38
Neigh   | 6.8499     | 6.9076     | 6.9628     |   1.6 |  1.23
Comm    | 22.776     | 28.649     | 33.905     |  76.5 |  5.12
Output  | 0.3973     | 0.39801    | 0.39873    |   0.1 |  0.07
Modify  | 327.96     | 337.97     | 347.41     |  51.1 | 60.36
Other   |            | 105.5      |            |       | 18.84

Nlocal:        1250.25 ave        1752 max         749 min
Histogram: 2 0 0 0 0 0 0 0 0 2
Nghost:           1.75 ave           3 max           1 min
Histogram: 2 0 0 0 0 1 0 0 0 1
Neighs:         685.75 ave        1372 max           0 min
Histogram: 2 0 0 0 0 0 0 0 0 2

Total # of neighbors = 2743
Ave neighs/atom = 0.5484903
Neighbor list builds = 164
Dangerous builds = 0

undump D1

############ Add spring between top chain to supp particle and then equilibrium  ###########

#fix sp1 support spring couple slider1 ${K0} ${lenspr} NULL NULL 0                                 # Add spring

#dump 		D2 all custom 100000 add_${num}*.dump id type diameter mass xu yu zu

#fix add1 all print 10 "${p0} ${distance} ${slider_z}" file add_distance_${num}.txt screen no      # out put step, distance(spring length), z-position of top chain

#run 1000000

#undump D2

#unfix add1

########## Pulling the supporting particle with constant velocity #############

#fix m1 support move linear 0.1 0 0 units box                                                      # apply constant velocity to supporting particles along x-direction V=0.1m/s

#fix move1 all print 100 "${p0} ${distance} ${slider_z}" file move_distance_${num}.txt screen no

#dump 		1 all custom 50000 move_${num}_*.dump id type diameter mass xu yu zu

#run 1000000

clear
  using 1 OpenMP thread(s) per MPI task

next num

jump SELF startloop

include granular.in
### Simulation of contact between two chain

##################### Simulation setup ####################

units micro                              # units
dimension	3                            # dimension
boundary	p p p                        # boundary condition p: periodic
atom_style	sphere                       # atom style
#processors * * 1

####################### Parameter ##################################

variable ind equal ${num}
variable ind equal 1

#variable lat0 equal 1                    #
variable lat1 equal 3*(2^(1/2))       # Lattice distance of bottom chain
variable lat2 equal 3                   # Lattice distance of top chain
variable d1 equal 3+(0*0.01)+(v_ind*0.01)                      # Diamter of particle at bottom chain
variable d2 equal 3                      # Diamter of particle at top chain
#variable d3 equal 1                      # Diamter of supporting particle

variable n2e1 equal 1000*v_lat2              # Half length of top chain. 1500 is number of particles
variable n1e1 equal 1.5*v_n2e1*(v_lat1/v_lat2)               # Half length of bottom chain, which is 1.5 time larger than top chain
variable n1e2 equal -v_n1e1
variable n2e2 equal -v_n2e1
#variable lenspr equal -(v_n2e1+100)           # length of the spring connecting top chain and supporting particle
#variable lenspr1 equal -v_lenspr-0.1         # Position of supporting particle upper bound
#variable lenspr2 equal -v_lenspr+0.1         # Position of supporting particle lower bound

variable den equal 2.2 #grams/cm^3      # micrometer^3=10^-12 cm^3 Density of materials
#variable den2 equal 1.5

variable V1 equal (1/6)*PI*(v_d1^3)     # Volume of particle 1
variable V2 equal (1/6)*PI*(v_d2^3)     # Volume of particle 2
#variable V3 equal (1/6)*PI*(v_d3^3)     # Volume of particle 3

variable mass1 equal v_den*v_V1  # Mass of particle 1 (picograms)
variable mass2 equal v_den*v_V2  # Mass of particle 2
#variable mass3 equal v_den*v_V3  # Mass of particle 3

# E GPa to picogram/(micrometer-microsecond^2)= 10^3 Pa= 10^-6 GPa
# Force unit(picogram-micrometer/microsecond^2)=10^-9 N= 1nN
# Spring stiffness (force/distance) 10^-3 N/m

variable K0 equal (1500/50)*(10^5)             # Spring stiffness conneting top chain and sup particle
variable E equal 100*(10^6)                    # Young's Modulus using for Hertz/material model
variable PR equal 0.3                          # Poisson's ratio using for Hertz/material model
variable Fn equal -1000 #-(v_ind*100)                       # Force apply to each particles in top chain
variable dt equal 0.00001                      # Time step units microsecond
variable lgv equal 0.5                         #damping for langevin thermostat for slider


################### Creating the model #################################
lattice sc ${lat1}                                                               # Bottom chain type1
lattice sc 4.24264068711929                                                               
Lattice spacing in x,y,z = 4.2426407 4.2426407 4.2426407

region box block ${n1e2} ${n1e1} -100 100 -100 100 units box
region box block -6363.96103067894 ${n1e1} -100 100 -100 100 units box
region box block -6363.96103067894 6363.96103067894 -100 100 -100 100 units box
region substrate block ${n1e2} ${n1e1} -0.5 0.5 0 0.5 units box
region substrate block -6363.96103067894 ${n1e1} -0.5 0.5 0 0.5 units box
region substrate block -6363.96103067894 6363.96103067894 -0.5 0.5 0 0.5 units box

create_box 2 box
Created orthogonal box = (-6363.961 -100 -100) to (6363.961 100 100)
  4 by 1 by 1 MPI processor grid
create_atoms 1 region substrate
Created 3000 atoms
  using lattice units in orthogonal box = (-6363.961 -100 -100) to (6363.961 100 100)
  create_atoms CPU = 0.001 seconds

lattice sc ${lat2}                                                             # Top chain type2
lattice sc 3                                                             
Lattice spacing in x,y,z = 3 3 3

region slider1 block ${n2e2} ${n2e1} -0.1 0.1 5.9 6.1 units box
region slider1 block -3000 ${n2e1} -0.1 0.1 5.9 6.1 units box
region slider1 block -3000 3000 -0.1 0.1 5.9 6.1 units box

create_atoms 2 region slider1
Created 2001 atoms
  using lattice units in orthogonal box = (-6363.961 -100 -100) to (6363.961 100 100)
  create_atoms CPU = 0.001 seconds

#lattice sc ${lat0}                                                             # Supporting particle type3

#region support block ${lenspr1} ${lenspr2} -0.1 0.1 7.9 8.1 units box

#create_atoms 3 region support

set type 1 diameter ${d1}                    # Set mass and diameter for each particles type
set type 1 diameter 3.01                    
Setting atom values ...
  3000 settings made for diameter
set type 1 mass ${mass1}
set type 1 mass 31.4138228207373
Setting atom values ...
  3000 settings made for mass
set type 2 diameter ${d2}
set type 2 diameter 3
Setting atom values ...
  2001 settings made for diameter
set type 2 mass ${mass2}
set type 2 mass 31.101767270539
Setting atom values ...
  2001 settings made for mass
#set type 3 diameter ${d3}
#set type 3 mass ${mass3}

group substrate region substrate           # Define gorup
3000 atoms in group substrate
group slider1 region slider1
2001 atoms in group slider1
#group support region support
group substrate_slider union substrate slider1
5001 atoms in group substrate_slider

########################## Potential ###################################
pair_style granular
pair_coeff 1 1 hertz/material 0.00000001 0.001 ${PR} tangential mindlin NULL 0.1 0.01 damping viscoelastic              ########### set E between each particle in same type is small to neglect their interaction
pair_coeff 1 1 hertz/material 0.00000001 0.001 0.3 tangential mindlin NULL 0.1 0.01 damping viscoelastic              
pair_coeff 2 2 hertz/material 0.00000001 0.001 ${PR} tangential mindlin NULL 0.1 0.01 damping viscoelastic
pair_coeff 2 2 hertz/material 0.00000001 0.001 0.3 tangential mindlin NULL 0.1 0.01 damping viscoelastic
#pair_coeff 3 3 hertz/material ${E} 0.001 ${PR} tangential mindlin NULL 0.1 0.01 damping viscoelastic
pair_coeff 1 2 hertz/material ${E} 0.001 ${PR} tangential mindlin NULL 0.1 0.01 damping viscoelastic
pair_coeff 1 2 hertz/material 100000000 0.001 ${PR} tangential mindlin NULL 0.1 0.01 damping viscoelastic
pair_coeff 1 2 hertz/material 100000000 0.001 0.3 tangential mindlin NULL 0.1 0.01 damping viscoelastic
#pair_coeff 1 3 hertz/material 0.00000001 0.001 ${PR} tangential mindlin NULL 0.1 0.01 damping viscoelastic
#pair_coeff 2 3 hertz/material 0.00000001 0.001 ${PR} tangential mindlin NULL 0.1 0.01 damping viscoelastic
comm_modify     vel yes
neigh_modify    delay 0 every 1 check yes

### Compute properties ###

compute 1 slider1 com                      # Compute the center of mass of top chain
#compute 2 support com                      # Compute the center of mass of supporting particle

variable p0 equal "step"

variable slider_z equal "c_1[3]"          # output the position of top chain in z-direction

#variable distance equal "c_2[1]-c_1[1]"   # Distance between COM of top chain and supporting particle

thermo 100000
thermo_style custom step lx ly lz press pxx pyy pzz ke pe temp c_1[1] c_1[2] c_1[3] #c_2[1] c_2[2] c_2[3] v_distance

############### Fix ##################


############## Equilibrium the system with apply force ########################

fix force_slider1 slider1 setforce NULL 0 NULL                                # Fix top chain not to move in y-direction

fix f_sub substrate freeze                                                    # Freeze the bottom chain

fix rigid_top slider1 rigid/nve group 1 slider1 langevin 0 0 ${lgv} 6987532   # NVE+langevin
fix rigid_top slider1 rigid/nve group 1 slider1 langevin 0 0 0.5 6987532   
  1 rigid bodies with 2001 atoms

fix add slider1 addforce 0 0 ${Fn} every 1                                    # Add force to top layer
fix add slider1 addforce 0 0 -1000 every 1                                    

timestep ${dt}
timestep 1e-05

# fix  nve_1 slider1 nve

dump 		D1 all custom 100000 Equi_${num}_*.dump id type diameter mass xu yu zu
dump 		D1 all custom 100000 Equi_1_*.dump id type diameter mass xu yu zu
dump_modify D1 format 5 %.18g
dump_modify D1 format 7 %.18g

run 3000000
Generated 0 of 1 mixed pair_coeff terms from geometric mixing rule
Neighbor list info ...
  update every 1 steps, delay 0 steps, check yes
  max neighbors/atom: 2000, page size: 100000
  master list distance cutoff = 3.11
  ghost atom cutoff = 3.11
  binsize = 1.555, bins = 8186 129 129
  1 neighbor lists, perpetual/occasional/extra = 1 0 0
  (1) pair granular, perpetual
      attributes: half, newton on, size, history
      pair build: half/size/bin/newton
      stencil: half/bin/3d
      bin: standard
Per MPI rank memory allocation (min/avg/max) = 153.4 | 153.4 | 153.4 Mbytes
   Step           Lx             Ly             Lz           Press           Pxx            Pyy            Pzz           KinEng         PotEng          Temp          c_1[1]         c_1[2]         c_1[3]    
         0   12727.922      200            200            0              0              0              0              0              0              0              1.1971759e-13  0              6            
    100000   12727.922      200            200            0.0031982024  -2.5386442e-35  0              0.0095946071   1171708        0              5.6577584e+10  1.1971759e-13  0              3.3274044    
    200000   12727.922      200            200            0.0011355651   2.030925e-34   0              0.0034066952   286334.15      0              1.3826051e+10  1.1971759e-13  0              3.0771287    
    300000   12727.922      200            200            7.7665757e-05  2.5386615e-35  0              0.00023299727  2767.273       0              1.3362171e+08  1.1971759e-13  0              3.0499323    
    400000   12727.922      200            200            0.00036002445 -1.6187892e-05  0              0.0010962612   15822.509      0              7.6401235e+08  1.1971759e-13  0              3.0039973    
    500000   12727.922      200            200            0.0020489856   0.00022830517  0              0.0059186517   2328.8028      0              1.1244955e+08  1.1971759e-13  0              3.0016585    
    600000   12727.922      200            200            0.0050011217   0.00062692335  0              0.014376442    313.06063      0              15116577       1.1971759e-13  0              2.9997116    
    700000   12727.922      200            200            0.0040922141   0.00052058458  0              0.011756058    55.643534      0              2686827.1      1.1971759e-13  0              3.0001981    
    800000   12727.922      200            200            0.0040299715   0.00054936454  0              0.01154055     6.3033104      0              304364.3       1.1971759e-13  0              3.0002506    
    900000   12727.922      200            200            0.0041813353   0.00059104133  0              0.011952965    0.54401994     0              26268.776      1.1971759e-13  0              3.0001639    
   1000000   12727.922      200            200            0.0040973121   0.00057819844  0              0.011713738    0.027880345    0              1346.2421      1.1971759e-13  0              3.0002131    
   1100000   12727.922      200            200            0.0041343766   0.00057929188  0              0.011823838    0.00026068206  0              12.587404      1.1971759e-13  0              3.0001906    
   1200000   12727.922      200            200            0.0041197439   0.00057899609  0              0.011780236    0.00012858799  0              6.2090538      1.1971759e-13  0              3.0001995    
   1300000   12727.922      200            200            0.0041248417   0.00057910785  0              0.011795417    9.9354393e-05  0              4.7974681      1.1971759e-13  0              3.0001964    
   1400000   12727.922      200            200            0.0041233018   0.00057907539  0              0.01179083     2.8422485e-05  0              1.3724201      1.1971759e-13  0              3.0001973    
   1500000   12727.922      200            200            0.0041236762   0.00057908326  0              0.011791945    5.41867e-06    0              0.26164818     1.1971759e-13  0              3.0001971    
   1600000   12727.922      200            200            0.0041236256   0.00057908226  0              0.011791794    7.8292896e-07  0              0.037804838    1.1971759e-13  0              3.0001971    
   1700000   12727.922      200            200            0.0041236101   0.00057908189  0              0.011791748    8.7541966e-08  0              0.0042270883   1.1971759e-13  0              3.0001971    
   1800000   12727.922      200            200            0.0041236275   0.00057908228  0              0.0117918      7.1636692e-09  0              0.00034590795  1.1971759e-13  0              3.0001971    
   1900000   12727.922      200            200            0.0041236176   0.00057908206  0              0.011791771    3.4109836e-10  0              1.6470419e-05  1.1971759e-13  0              3.0001971    
   2000000   12727.922      200            200            0.0041236221   0.00057908216  0              0.011791784    1.7798593e-12  0              8.5943035e-08  1.1971759e-13  0              3.0001971    
   2100000   12727.922      200            200            0.0041236204   0.00057908212  0              0.011791779    2.4446179e-12  0              1.1804185e-07  1.1971759e-13  0              3.0001971    
   2200000   12727.922      200            200            0.004123621    0.00057908213  0              0.011791781    1.573576e-12   0              7.5982351e-08  1.1971759e-13  0              3.0001971    
   2300000   12727.922      200            200            0.0041236208   0.00057908213  0              0.01179178     4.2513121e-13  0              2.0528065e-08  1.1971759e-13  0              3.0001971    
   2400000   12727.922      200            200            0.0041236208   0.00057908213  0              0.01179178     7.8525597e-14  0              3.79172e-09    1.1971759e-13  0              3.0001971    
   2500000   12727.922      200            200            0.0041236208   0.00057908213  0              0.01179178     1.1108949e-14  0              5.3641137e-10  1.1971759e-13  0              3.0001971    
   2600000   12727.922      200            200            0.0041236208   0.00057908213  0              0.01179178     1.1553889e-15  0              5.5789595e-11  1.1971759e-13  0              3.0001971    
   2700000   12727.922      200            200            0.0041236208   0.00057908213  0              0.01179178     1.1709366e-16  0              5.6540335e-12  1.1971759e-13  0              3.0001971    
   2800000   12727.922      200            200            0.0041236208   0.00057908213  0              0.01179178     2.0959312e-17  0              1.0120502e-12  1.1971759e-13  0              3.0001971    
   2900000   12727.922      200            200            0.0041236208   0.00057908213  0              0.01179178     1.1499264e-18  0              5.552583e-14   1.1971759e-13  0              3.0001971    
   3000000   12727.922      200            200            0.0041236208   0.00057908213  0              0.01179178     1.3560805e-17  0              6.5480276e-13  1.1971759e-13  0              3.0001971    
Loop time of 557.784 on 4 procs for 3000000 steps with 5001 atoms

Performance: 4646963.827 ns/day, 0.000 hours/ns, 5378.430 timesteps/s
100.0% CPU use with 4 MPI tasks x 1 OpenMP threads

MPI task timing breakdown:
Section |  min time  |  avg time  |  max time  |%varavg| %total
---------------------------------------------------------------
Pair    | 23.687     | 80.166     | 136.25     | 624.5 | 14.37
Neigh   | 6.9133     | 6.9739     | 7.0368     |   1.7 |  1.25
Comm    | 23.153     | 29.176     | 34.351     |  77.1 |  5.23
Output  | 0.39892    | 0.39961    | 0.40034    |   0.1 |  0.07
Modify  | 324.51     | 335.12     | 345.22     |  55.0 | 60.08
Other   |            | 105.9      |            |       | 18.99

Nlocal:        1250.25 ave        1752 max         749 min
Histogram: 2 0 0 0 0 0 0 0 0 2
Nghost:           1.75 ave           3 max           1 min
Histogram: 2 0 0 0 0 1 0 0 0 1
Neighs:         690.75 ave        1382 max           0 min
Histogram: 2 0 0 0 0 0 0 0 0 2

Total # of neighbors = 2763
Ave neighs/atom = 0.5524895
Neighbor list builds = 168
Dangerous builds = 0

undump D1

############ Add spring between top chain to supp particle and then equilibrium  ###########

#fix sp1 support spring couple slider1 ${K0} ${lenspr} NULL NULL 0                                 # Add spring

#dump 		D2 all custom 100000 add_${num}*.dump id type diameter mass xu yu zu

#fix add1 all print 10 "${p0} ${distance} ${slider_z}" file add_distance_${num}.txt screen no      # out put step, distance(spring length), z-position of top chain

#run 1000000

#undump D2

#unfix add1

########## Pulling the supporting particle with constant velocity #############

#fix m1 support move linear 0.1 0 0 units box                                                      # apply constant velocity to supporting particles along x-direction V=0.1m/s

#fix move1 all print 100 "${p0} ${distance} ${slider_z}" file move_distance_${num}.txt screen no

#dump 		1 all custom 50000 move_${num}_*.dump id type diameter mass xu yu zu

#run 1000000

clear
  using 1 OpenMP thread(s) per MPI task

next num

jump SELF startloop

include granular.in
### Simulation of contact between two chain

##################### Simulation setup ####################

units micro                              # units
dimension	3                            # dimension
boundary	p p p                        # boundary condition p: periodic
atom_style	sphere                       # atom style
#processors * * 1

####################### Parameter ##################################

variable ind equal ${num}
variable ind equal 2

#variable lat0 equal 1                    #
variable lat1 equal 3*(2^(1/2))       # Lattice distance of bottom chain
variable lat2 equal 3                   # Lattice distance of top chain
variable d1 equal 3+(0*0.01)+(v_ind*0.01)                      # Diamter of particle at bottom chain
variable d2 equal 3                      # Diamter of particle at top chain
#variable d3 equal 1                      # Diamter of supporting particle

variable n2e1 equal 1000*v_lat2              # Half length of top chain. 1500 is number of particles
variable n1e1 equal 1.5*v_n2e1*(v_lat1/v_lat2)               # Half length of bottom chain, which is 1.5 time larger than top chain
variable n1e2 equal -v_n1e1
variable n2e2 equal -v_n2e1
#variable lenspr equal -(v_n2e1+100)           # length of the spring connecting top chain and supporting particle
#variable lenspr1 equal -v_lenspr-0.1         # Position of supporting particle upper bound
#variable lenspr2 equal -v_lenspr+0.1         # Position of supporting particle lower bound

variable den equal 2.2 #grams/cm^3      # micrometer^3=10^-12 cm^3 Density of materials
#variable den2 equal 1.5

variable V1 equal (1/6)*PI*(v_d1^3)     # Volume of particle 1
variable V2 equal (1/6)*PI*(v_d2^3)     # Volume of particle 2
#variable V3 equal (1/6)*PI*(v_d3^3)     # Volume of particle 3

variable mass1 equal v_den*v_V1  # Mass of particle 1 (picograms)
variable mass2 equal v_den*v_V2  # Mass of particle 2
#variable mass3 equal v_den*v_V3  # Mass of particle 3

# E GPa to picogram/(micrometer-microsecond^2)= 10^3 Pa= 10^-6 GPa
# Force unit(picogram-micrometer/microsecond^2)=10^-9 N= 1nN
# Spring stiffness (force/distance) 10^-3 N/m

variable K0 equal (1500/50)*(10^5)             # Spring stiffness conneting top chain and sup particle
variable E equal 100*(10^6)                    # Young's Modulus using for Hertz/material model
variable PR equal 0.3                          # Poisson's ratio using for Hertz/material model
variable Fn equal -1000 #-(v_ind*100)                       # Force apply to each particles in top chain
variable dt equal 0.00001                      # Time step units microsecond
variable lgv equal 0.5                         #damping for langevin thermostat for slider


################### Creating the model #################################
lattice sc ${lat1}                                                               # Bottom chain type1
lattice sc 4.24264068711929                                                               
Lattice spacing in x,y,z = 4.2426407 4.2426407 4.2426407

region box block ${n1e2} ${n1e1} -100 100 -100 100 units box
region box block -6363.96103067894 ${n1e1} -100 100 -100 100 units box
region box block -6363.96103067894 6363.96103067894 -100 100 -100 100 units box
region substrate block ${n1e2} ${n1e1} -0.5 0.5 0 0.5 units box
region substrate block -6363.96103067894 ${n1e1} -0.5 0.5 0 0.5 units box
region substrate block -6363.96103067894 6363.96103067894 -0.5 0.5 0 0.5 units box

create_box 2 box
Created orthogonal box = (-6363.961 -100 -100) to (6363.961 100 100)
  4 by 1 by 1 MPI processor grid
create_atoms 1 region substrate
Created 3000 atoms
  using lattice units in orthogonal box = (-6363.961 -100 -100) to (6363.961 100 100)
  create_atoms CPU = 0.001 seconds

lattice sc ${lat2}                                                             # Top chain type2
lattice sc 3                                                             
Lattice spacing in x,y,z = 3 3 3

region slider1 block ${n2e2} ${n2e1} -0.1 0.1 5.9 6.1 units box
region slider1 block -3000 ${n2e1} -0.1 0.1 5.9 6.1 units box
region slider1 block -3000 3000 -0.1 0.1 5.9 6.1 units box

create_atoms 2 region slider1
Created 2001 atoms
  using lattice units in orthogonal box = (-6363.961 -100 -100) to (6363.961 100 100)
  create_atoms CPU = 0.001 seconds

#lattice sc ${lat0}                                                             # Supporting particle type3

#region support block ${lenspr1} ${lenspr2} -0.1 0.1 7.9 8.1 units box

#create_atoms 3 region support

set type 1 diameter ${d1}                    # Set mass and diameter for each particles type
set type 1 diameter 3.02                    
Setting atom values ...
  3000 settings made for diameter
set type 1 mass ${mass1}
set type 1 mass 31.7279587335909
Setting atom values ...
  3000 settings made for mass
set type 2 diameter ${d2}
set type 2 diameter 3
Setting atom values ...
  2001 settings made for diameter
set type 2 mass ${mass2}
set type 2 mass 31.101767270539
Setting atom values ...
  2001 settings made for mass
#set type 3 diameter ${d3}
#set type 3 mass ${mass3}

group substrate region substrate           # Define gorup
3000 atoms in group substrate
group slider1 region slider1
2001 atoms in group slider1
#group support region support
group substrate_slider union substrate slider1
5001 atoms in group substrate_slider

########################## Potential ###################################
pair_style granular
pair_coeff 1 1 hertz/material 0.00000001 0.001 ${PR} tangential mindlin NULL 0.1 0.01 damping viscoelastic              ########### set E between each particle in same type is small to neglect their interaction
pair_coeff 1 1 hertz/material 0.00000001 0.001 0.3 tangential mindlin NULL 0.1 0.01 damping viscoelastic              
pair_coeff 2 2 hertz/material 0.00000001 0.001 ${PR} tangential mindlin NULL 0.1 0.01 damping viscoelastic
pair_coeff 2 2 hertz/material 0.00000001 0.001 0.3 tangential mindlin NULL 0.1 0.01 damping viscoelastic
#pair_coeff 3 3 hertz/material ${E} 0.001 ${PR} tangential mindlin NULL 0.1 0.01 damping viscoelastic
pair_coeff 1 2 hertz/material ${E} 0.001 ${PR} tangential mindlin NULL 0.1 0.01 damping viscoelastic
pair_coeff 1 2 hertz/material 100000000 0.001 ${PR} tangential mindlin NULL 0.1 0.01 damping viscoelastic
pair_coeff 1 2 hertz/material 100000000 0.001 0.3 tangential mindlin NULL 0.1 0.01 damping viscoelastic
#pair_coeff 1 3 hertz/material 0.00000001 0.001 ${PR} tangential mindlin NULL 0.1 0.01 damping viscoelastic
#pair_coeff 2 3 hertz/material 0.00000001 0.001 ${PR} tangential mindlin NULL 0.1 0.01 damping viscoelastic
comm_modify     vel yes
neigh_modify    delay 0 every 1 check yes

### Compute properties ###

compute 1 slider1 com                      # Compute the center of mass of top chain
#compute 2 support com                      # Compute the center of mass of supporting particle

variable p0 equal "step"

variable slider_z equal "c_1[3]"          # output the position of top chain in z-direction

#variable distance equal "c_2[1]-c_1[1]"   # Distance between COM of top chain and supporting particle

thermo 100000
thermo_style custom step lx ly lz press pxx pyy pzz ke pe temp c_1[1] c_1[2] c_1[3] #c_2[1] c_2[2] c_2[3] v_distance

############### Fix ##################


############## Equilibrium the system with apply force ########################

fix force_slider1 slider1 setforce NULL 0 NULL                                # Fix top chain not to move in y-direction

fix f_sub substrate freeze                                                    # Freeze the bottom chain

fix rigid_top slider1 rigid/nve group 1 slider1 langevin 0 0 ${lgv} 6987532   # NVE+langevin
fix rigid_top slider1 rigid/nve group 1 slider1 langevin 0 0 0.5 6987532   
  1 rigid bodies with 2001 atoms

fix add slider1 addforce 0 0 ${Fn} every 1                                    # Add force to top layer
fix add slider1 addforce 0 0 -1000 every 1                                    

timestep ${dt}
timestep 1e-05

# fix  nve_1 slider1 nve

dump 		D1 all custom 100000 Equi_${num}_*.dump id type diameter mass xu yu zu
dump 		D1 all custom 100000 Equi_2_*.dump id type diameter mass xu yu zu
dump_modify D1 format 5 %.18g
dump_modify D1 format 7 %.18g

run 3000000
Generated 0 of 1 mixed pair_coeff terms from geometric mixing rule
Neighbor list info ...
  update every 1 steps, delay 0 steps, check yes
  max neighbors/atom: 2000, page size: 100000
  master list distance cutoff = 3.12
  ghost atom cutoff = 3.12
  binsize = 1.56, bins = 8159 129 129
  1 neighbor lists, perpetual/occasional/extra = 1 0 0
  (1) pair granular, perpetual
      attributes: half, newton on, size, history
      pair build: half/size/bin/newton
      stencil: half/bin/3d
      bin: standard
Per MPI rank memory allocation (min/avg/max) = 153 | 153 | 153 Mbytes
   Step           Lx             Ly             Lz           Press           Pxx            Pyy            Pzz           KinEng         PotEng          Temp          c_1[1]         c_1[2]         c_1[3]    
         0   12727.922      200            200            0              0              0              0              0              0              0              1.1971759e-13  0              6            
    100000   12727.922      200            200            0.0032075486  -1.2693212e-35  0              0.0096226458   1176281.2      0              5.6798412e+10  1.1971759e-13  0              3.3276309    
    200000   12727.922      200            200            0.001149145    1.2693271e-35  0              0.003447435    291320.34      0              1.4066817e+10  1.1971759e-13  0              3.0789572    
    300000   12727.922      200            200            8.8131878e-05  2.5386691e-35  0              0.00026439563  3510.8132      0              1.695246e+08   1.1971759e-13  0              3.0545505    
    400000   12727.922      200            200            0.00086503141  6.2730124e-06  0              0.0025888212   17468.991      0              8.4351504e+08  1.1971759e-13  0              3.0080414    
    500000   12727.922      200            200            0.0026136038   0.00031343056  0              0.007527381    2708.3534      0              1.3077669e+08  1.1971759e-13  0              3.0062266    
    600000   12727.922      200            200            0.0053201782   0.00058825683  0              0.015372278    220.97995      0              10670331       1.1971759e-13  0              3.0045378    
    700000   12727.922      200            200            0.0039387956   0.00051360493  0              0.011302782    51.282067      0              2476227.5      1.1971759e-13  0              3.0052991    
    800000   12727.922      200            200            0.0041041606   0.00055182065  0              0.011760661    7.3753271      0              356128.15      1.1971759e-13  0              3.0052137    
    900000   12727.922      200            200            0.0041596446   0.00058100664  0              0.011897927    0.86267418     0              41655.449      1.1971759e-13  0              3.0051828    
   1000000   12727.922      200            200            0.0041084361   0.00056923501  0              0.011756073    0.079932503    0              3859.6545      1.1971759e-13  0              3.0052126    
   1100000   12727.922      200            200            0.0041361413   0.00056999193  0              0.011838432    0.0053298147   0              257.35768      1.1971759e-13  0              3.0051956    
   1200000   12727.922      200            200            0.0041232558   0.00056972317  0              0.011800044    0.00016827192  0              8.1252487      1.1971759e-13  0              3.0052034    
   1300000   12727.922      200            200            0.0041285434   0.00056984057  0              0.01181579     5.4890747e-07  0              0.026504777    1.1971759e-13  0              3.0052002    
   1400000   12727.922      200            200            0.0041265819   0.0005697985   0              0.011809947    5.1065864e-06  0              0.24657878     1.1971759e-13  0              3.0052014    
   1500000   12727.922      200            200            0.0041272417   0.00056981273  0              0.011811912    2.186669e-06   0              0.10558642     1.1971759e-13  0              3.005201     
   1600000   12727.922      200            200            0.0041270444   0.00056980852  0              0.011811325    5.3175089e-07  0              0.025676348    1.1971759e-13  0              3.0052011    
   1700000   12727.922      200            200            0.0041270936   0.00056980956  0              0.011811471    9.6514552e-08  0              0.0046603423   1.1971759e-13  0              3.0052011    
   1800000   12727.922      200            200            0.0041270857   0.0005698094   0              0.011811448    1.4167418e-08  0              0.0006840939   1.1971759e-13  0              3.0052011    
   1900000   12727.922      200            200            0.0041270846   0.00056980937  0              0.011811444    1.71416e-09    0              8.2770651e-05  1.1971759e-13  0              3.0052011    
   2000000   12727.922      200            200            0.0041270865   0.00056980942  0              0.01181145     1.6715517e-10  0              8.071325e-06   1.1971759e-13  0              3.0052011    
   2100000   12727.922      200            200            0.0041270853   0.00056980939  0              0.011811447    1.2027903e-11  0              5.8078439e-07  1.1971759e-13  0              3.0052011    
   2200000   12727.922      200            200            0.0041270859   0.0005698094   0              0.011811448    4.7052235e-13  0              2.271984e-08   1.1971759e-13  0              3.0052011    
   2300000   12727.922      200            200            0.0041270856   0.0005698094   0              0.011811448    1.7427727e-16  0              8.4152255e-12  1.1971759e-13  0              3.0052011    
   2400000   12727.922      200            200            0.0041270857   0.0005698094   0              0.011811448    7.0523358e-15  0              3.4053206e-10  1.1971759e-13  0              3.0052011    
   2500000   12727.922      200            200            0.0041270857   0.0005698094   0              0.011811448    3.7190647e-15  0              1.7958032e-10  1.1971759e-13  0              3.0052011    
   2600000   12727.922      200            200            0.0041270857   0.0005698094   0              0.011811448    9.3780819e-16  0              4.5283401e-11  1.1971759e-13  0              3.0052011    
   2700000   12727.922      200            200            0.0041270857   0.0005698094   0              0.011811448    1.5189408e-16  0              7.3344213e-12  1.1971759e-13  0              3.0052011    
   2800000   12727.922      200            200            0.0041270857   0.0005698094   0              0.011811448    1.2300466e-17  0              5.9394547e-13  1.1971759e-13  0              3.0052011    
   2900000   12727.922      200            200            0.0041270857   0.0005698094   0              0.011811448    1.0534182e-17  0              5.0865794e-13  1.1971759e-13  0              3.0052011    
   3000000   12727.922      200            200            0.0041270857   0.0005698094   0              0.011811448    2.6422699e-19  0              1.2758576e-14  1.1971759e-13  0              3.0052011    
Loop time of 562.085 on 4 procs for 3000000 steps with 5001 atoms

Performance: 4611400.223 ns/day, 0.000 hours/ns, 5337.269 timesteps/s
100.0% CPU use with 4 MPI tasks x 1 OpenMP threads

MPI task timing breakdown:
Section |  min time  |  avg time  |  max time  |%varavg| %total
---------------------------------------------------------------
Pair    | 23.093     | 79.757     | 137.1      | 633.5 | 14.19
Neigh   | 6.8823     | 6.9424     | 7.0042     |   1.7 |  1.24
Comm    | 22.785     | 29.108     | 34.117     |  87.7 |  5.18
Output  | 0.39965    | 0.40033    | 0.40103    |   0.1 |  0.07
Modify  | 328.62     | 338.92     | 350.12     |  51.6 | 60.30
Other   |            | 107        |            |       | 19.03

Nlocal:        1250.25 ave        1751 max         749 min
Histogram: 2 0 0 0 0 0 0 0 0 2
Nghost:           1.75 ave           2 max           1 min
Histogram: 1 0 0 0 0 0 0 0 0 3
Neighs:         694.75 ave        1390 max           0 min
Histogram: 2 0 0 0 0 0 0 0 0 2

Total # of neighbors = 2779
Ave neighs/atom = 0.55568886
Neighbor list builds = 168
Dangerous builds = 0

undump D1

############ Add spring between top chain to supp particle and then equilibrium  ###########

#fix sp1 support spring couple slider1 ${K0} ${lenspr} NULL NULL 0                                 # Add spring

#dump 		D2 all custom 100000 add_${num}*.dump id type diameter mass xu yu zu

#fix add1 all print 10 "${p0} ${distance} ${slider_z}" file add_distance_${num}.txt screen no      # out put step, distance(spring length), z-position of top chain

#run 1000000

#undump D2

#unfix add1

########## Pulling the supporting particle with constant velocity #############

#fix m1 support move linear 0.1 0 0 units box                                                      # apply constant velocity to supporting particles along x-direction V=0.1m/s

#fix move1 all print 100 "${p0} ${distance} ${slider_z}" file move_distance_${num}.txt screen no

#dump 		1 all custom 50000 move_${num}_*.dump id type diameter mass xu yu zu

#run 1000000

clear
  using 1 OpenMP thread(s) per MPI task

next num

jump SELF startloop

include granular.in
### Simulation of contact between two chain

##################### Simulation setup ####################

units micro                              # units
dimension	3                            # dimension
boundary	p p p                        # boundary condition p: periodic
atom_style	sphere                       # atom style
#processors * * 1

####################### Parameter ##################################

variable ind equal ${num}
variable ind equal 3

#variable lat0 equal 1                    #
variable lat1 equal 3*(2^(1/2))       # Lattice distance of bottom chain
variable lat2 equal 3                   # Lattice distance of top chain
variable d1 equal 3+(0*0.01)+(v_ind*0.01)                      # Diamter of particle at bottom chain
variable d2 equal 3                      # Diamter of particle at top chain
#variable d3 equal 1                      # Diamter of supporting particle

variable n2e1 equal 1000*v_lat2              # Half length of top chain. 1500 is number of particles
variable n1e1 equal 1.5*v_n2e1*(v_lat1/v_lat2)               # Half length of bottom chain, which is 1.5 time larger than top chain
variable n1e2 equal -v_n1e1
variable n2e2 equal -v_n2e1
#variable lenspr equal -(v_n2e1+100)           # length of the spring connecting top chain and supporting particle
#variable lenspr1 equal -v_lenspr-0.1         # Position of supporting particle upper bound
#variable lenspr2 equal -v_lenspr+0.1         # Position of supporting particle lower bound

variable den equal 2.2 #grams/cm^3      # micrometer^3=10^-12 cm^3 Density of materials
#variable den2 equal 1.5

variable V1 equal (1/6)*PI*(v_d1^3)     # Volume of particle 1
variable V2 equal (1/6)*PI*(v_d2^3)     # Volume of particle 2
#variable V3 equal (1/6)*PI*(v_d3^3)     # Volume of particle 3

variable mass1 equal v_den*v_V1  # Mass of particle 1 (picograms)
variable mass2 equal v_den*v_V2  # Mass of particle 2
#variable mass3 equal v_den*v_V3  # Mass of particle 3

# E GPa to picogram/(micrometer-microsecond^2)= 10^3 Pa= 10^-6 GPa
# Force unit(picogram-micrometer/microsecond^2)=10^-9 N= 1nN
# Spring stiffness (force/distance) 10^-3 N/m

variable K0 equal (1500/50)*(10^5)             # Spring stiffness conneting top chain and sup particle
variable E equal 100*(10^6)                    # Young's Modulus using for Hertz/material model
variable PR equal 0.3                          # Poisson's ratio using for Hertz/material model
variable Fn equal -1000 #-(v_ind*100)                       # Force apply to each particles in top chain
variable dt equal 0.00001                      # Time step units microsecond
variable lgv equal 0.5                         #damping for langevin thermostat for slider


################### Creating the model #################################
lattice sc ${lat1}                                                               # Bottom chain type1
lattice sc 4.24264068711929                                                               
Lattice spacing in x,y,z = 4.2426407 4.2426407 4.2426407

region box block ${n1e2} ${n1e1} -100 100 -100 100 units box
region box block -6363.96103067894 ${n1e1} -100 100 -100 100 units box
region box block -6363.96103067894 6363.96103067894 -100 100 -100 100 units box
region substrate block ${n1e2} ${n1e1} -0.5 0.5 0 0.5 units box
region substrate block -6363.96103067894 ${n1e1} -0.5 0.5 0 0.5 units box
region substrate block -6363.96103067894 6363.96103067894 -0.5 0.5 0 0.5 units box

create_box 2 box
Created orthogonal box = (-6363.961 -100 -100) to (6363.961 100 100)
  4 by 1 by 1 MPI processor grid
create_atoms 1 region substrate
Created 3000 atoms
  using lattice units in orthogonal box = (-6363.961 -100 -100) to (6363.961 100 100)
  create_atoms CPU = 0.001 seconds

lattice sc ${lat2}                                                             # Top chain type2
lattice sc 3                                                             
Lattice spacing in x,y,z = 3 3 3

region slider1 block ${n2e2} ${n2e1} -0.1 0.1 5.9 6.1 units box
region slider1 block -3000 ${n2e1} -0.1 0.1 5.9 6.1 units box
region slider1 block -3000 3000 -0.1 0.1 5.9 6.1 units box

create_atoms 2 region slider1
Created 2001 atoms
  using lattice units in orthogonal box = (-6363.961 -100 -100) to (6363.961 100 100)
  create_atoms CPU = 0.001 seconds

#lattice sc ${lat0}                                                             # Supporting particle type3

#region support block ${lenspr1} ${lenspr2} -0.1 0.1 7.9 8.1 units box

#create_atoms 3 region support

set type 1 diameter ${d1}                    # Set mass and diameter for each particles type
set type 1 diameter 3.03                    
Setting atom values ...
  3000 settings made for diameter
set type 1 mass ${mass1}
set type 1 mass 32.0441819206036
Setting atom values ...
  3000 settings made for mass
set type 2 diameter ${d2}
set type 2 diameter 3
Setting atom values ...
  2001 settings made for diameter
set type 2 mass ${mass2}
set type 2 mass 31.101767270539
Setting atom values ...
  2001 settings made for mass
#set type 3 diameter ${d3}
#set type 3 mass ${mass3}

group substrate region substrate           # Define gorup
3000 atoms in group substrate
group slider1 region slider1
2001 atoms in group slider1
#group support region support
group substrate_slider union substrate slider1
5001 atoms in group substrate_slider

########################## Potential ###################################
pair_style granular
pair_coeff 1 1 hertz/material 0.00000001 0.001 ${PR} tangential mindlin NULL 0.1 0.01 damping viscoelastic              ########### set E between each particle in same type is small to neglect their interaction
pair_coeff 1 1 hertz/material 0.00000001 0.001 0.3 tangential mindlin NULL 0.1 0.01 damping viscoelastic              
pair_coeff 2 2 hertz/material 0.00000001 0.001 ${PR} tangential mindlin NULL 0.1 0.01 damping viscoelastic
pair_coeff 2 2 hertz/material 0.00000001 0.001 0.3 tangential mindlin NULL 0.1 0.01 damping viscoelastic
#pair_coeff 3 3 hertz/material ${E} 0.001 ${PR} tangential mindlin NULL 0.1 0.01 damping viscoelastic
pair_coeff 1 2 hertz/material ${E} 0.001 ${PR} tangential mindlin NULL 0.1 0.01 damping viscoelastic
pair_coeff 1 2 hertz/material 100000000 0.001 ${PR} tangential mindlin NULL 0.1 0.01 damping viscoelastic
pair_coeff 1 2 hertz/material 100000000 0.001 0.3 tangential mindlin NULL 0.1 0.01 damping viscoelastic
#pair_coeff 1 3 hertz/material 0.00000001 0.001 ${PR} tangential mindlin NULL 0.1 0.01 damping viscoelastic
#pair_coeff 2 3 hertz/material 0.00000001 0.001 ${PR} tangential mindlin NULL 0.1 0.01 damping viscoelastic
comm_modify     vel yes
neigh_modify    delay 0 every 1 check yes

### Compute properties ###

compute 1 slider1 com                      # Compute the center of mass of top chain
#compute 2 support com                      # Compute the center of mass of supporting particle

variable p0 equal "step"

variable slider_z equal "c_1[3]"          # output the position of top chain in z-direction

#variable distance equal "c_2[1]-c_1[1]"   # Distance between COM of top chain and supporting particle

thermo 100000
thermo_style custom step lx ly lz press pxx pyy pzz ke pe temp c_1[1] c_1[2] c_1[3] #c_2[1] c_2[2] c_2[3] v_distance

############### Fix ##################


############## Equilibrium the system with apply force ########################

fix force_slider1 slider1 setforce NULL 0 NULL                                # Fix top chain not to move in y-direction

fix f_sub substrate freeze                                                    # Freeze the bottom chain

fix rigid_top slider1 rigid/nve group 1 slider1 langevin 0 0 ${lgv} 6987532   # NVE+langevin
fix rigid_top slider1 rigid/nve group 1 slider1 langevin 0 0 0.5 6987532   
  1 rigid bodies with 2001 atoms

fix add slider1 addforce 0 0 ${Fn} every 1                                    # Add force to top layer
fix add slider1 addforce 0 0 -1000 every 1                                    

timestep ${dt}
timestep 1e-05

# fix  nve_1 slider1 nve

dump 		D1 all custom 100000 Equi_${num}_*.dump id type diameter mass xu yu zu
dump 		D1 all custom 100000 Equi_3_*.dump id type diameter mass xu yu zu
dump_modify D1 format 5 %.18g
dump_modify D1 format 7 %.18g

run 3000000
Generated 0 of 1 mixed pair_coeff terms from geometric mixing rule
Neighbor list info ...
  update every 1 steps, delay 0 steps, check yes
  max neighbors/atom: 2000, page size: 100000
  master list distance cutoff = 3.13
  ghost atom cutoff = 3.13
  binsize = 1.565, bins = 8133 128 128
  1 neighbor lists, perpetual/occasional/extra = 1 0 0
  (1) pair granular, perpetual
      attributes: half, newton on, size, history
      pair build: half/size/bin/newton
      stencil: half/bin/3d
      bin: standard
Per MPI rank memory allocation (min/avg/max) = 150.5 | 150.5 | 150.5 Mbytes
   Step           Lx             Ly             Lz           Press           Pxx            Pyy            Pzz           KinEng         PotEng          Temp          c_1[1]         c_1[2]         c_1[3]    
         0   12727.922      200            200            0              0              0              0              0              0              0              1.1971759e-13  0              6            
    100000   12727.922      200            200            0.0032168969   1.2693265e-34  0              0.0096506908   1180861.3      0              5.7019566e+10  1.1971759e-13  0              3.3278462    
    200000   12727.922      200            200            0.00116277     5.0138343e-34  0              0.0034883101   296345.2       0              1.4309449e+10  1.1971759e-13  0              3.0807552    
    300000   12727.922      200            200            9.8728631e-05  5.0773724e-35  0              0.00029618589  4341.7224      0              2.0964624e+08  1.1971759e-13  0              3.0591231    
    400000   12727.922      200            200            0.0017314657   3.7680099e-05  0              0.0051567169   18850.153      0              9.1020641e+08  1.1971759e-13  0              3.012041     
    500000   12727.922      200            200            0.0032925077   0.00041961419  0              0.009457909    2974.482       0              1.4362709e+08  1.1971759e-13  0              3.0107668    
    600000   12727.922      200            200            0.0055932672   0.00058156174  0              0.01619824     125.73418      0              6071253.7      1.1971759e-13  0              3.0093992    
    700000   12727.922      200            200            0.0037871985   0.00046783071  0              0.010893765    40.406204      0              1951071        1.1971759e-13  0              3.0103929    
    800000   12727.922      200            200            0.0041817144   0.00055740636  0              0.011987737    7.0250188      0              339213.02      1.1971759e-13  0              3.0101758    
    900000   12727.922      200            200            0.0041328503   0.00056689877  0              0.011831652    0.99437299     0              48014.713      1.1971759e-13  0              3.0102041    
   1000000   12727.922      200            200            0.0041215115   0.00055688308  0              0.011807651    0.12350866     0              5963.7913      1.1971759e-13  0              3.0102101    
   1100000   12727.922      200            200            0.0041349006   0.00055717695  0              0.011847525    0.01319244     0              637.0157       1.1971759e-13  0              3.0102017    
   1200000   12727.922      200            200            0.004126549    0.00055700641  0              0.011822641    0.0011586817   0              55.948594      1.1971759e-13  0              3.0102068    
   1300000   12727.922      200            200            0.0041306667   0.00055709312  0              0.011834907    7.5111627e-05  0              3.6268717      1.1971759e-13  0              3.0102043    
   1400000   12727.922      200            200            0.0041288755   0.00055705643  0              0.01182957     2.4338033e-06  0              0.11751965     1.1971759e-13  0              3.0102054    
   1500000   12727.922      200            200            0.00412959     0.00055707114  0              0.011831699    3.6011571e-09  0              0.00017388699  1.1971759e-13  0              3.010205     
   1600000   12727.922      200            200            0.004129325    0.00055706573  0              0.011830909    6.3500392e-08  0              0.0030662067   1.1971759e-13  0              3.0102051    
   1700000   12727.922      200            200            0.0041294166   0.0005570676   0              0.011831182    2.8985921e-08  0              0.0013996264   1.1971759e-13  0              3.0102051    
   1800000   12727.922      200            200            0.0041293874   0.000557067    0              0.011831095    7.5040916e-09  0              0.00036234573  1.1971759e-13  0              3.0102051    
   1900000   12727.922      200            200            0.0041293958   0.00055706717  0              0.01183112     1.4768987e-09  0              7.1314151e-05  1.1971759e-13  0              3.0102051    
   2000000   12727.922      200            200            0.0041293938   0.00055706713  0              0.011831114    2.420945e-10   0              1.1689877e-05  1.1971759e-13  0              3.0102051    
   2100000   12727.922      200            200            0.004129394    0.00055706714  0              0.011831115    3.4204572e-11  0              1.6516164e-06  1.1971759e-13  0              3.0102051    
   2200000   12727.922      200            200            0.0041293941   0.00055706714  0              0.011831115    4.1956893e-12  0              2.0259482e-07  1.1971759e-13  0              3.0102051    
   2300000   12727.922      200            200            0.004129394    0.00055706714  0              0.011831115    4.4053435e-13  0              2.1271827e-08  1.1971759e-13  0              3.0102051    
   2400000   12727.922      200            200            0.0041293941   0.00055706714  0              0.011831115    3.8030699e-14  0              1.8363664e-09  1.1971759e-13  0              3.0102051    
   2500000   12727.922      200            200            0.0041293941   0.00055706714  0              0.011831115    2.4050678e-15  0              1.1613212e-10  1.1971759e-13  0              3.0102051    
   2600000   12727.922      200            200            0.0041293941   0.00055706714  0              0.011831115    6.4267445e-17  0              3.1032449e-12  1.1971759e-13  0              3.0102051    
   2700000   12727.922      200            200            0.0041293941   0.00055706714  0              0.011831115    3.8000442e-18  0              1.8349054e-13  1.1971759e-13  0              3.0102051    
   2800000   12727.922      200            200            0.0041293941   0.00055706714  0              0.011831115    3.1837416e-18  0              1.5373149e-13  1.1971759e-13  0              3.0102051    
   2900000   12727.922      200            200            0.0041293941   0.00055706714  0              0.011831115    1.0126198e-17  0              4.8895785e-13  1.1971759e-13  0              3.0102051    
   3000000   12727.922      200            200            0.0041293941   0.00055706714  0              0.011831115    2.7970622e-18  0              1.3506012e-13  1.1971759e-13  0              3.0102051    
Loop time of 559.761 on 4 procs for 3000000 steps with 5001 atoms

Performance: 4630548.562 ns/day, 0.000 hours/ns, 5359.431 timesteps/s
100.0% CPU use with 4 MPI tasks x 1 OpenMP threads

MPI task timing breakdown:
Section |  min time  |  avg time  |  max time  |%varavg| %total
---------------------------------------------------------------
Pair    | 23.755     | 78.854     | 136.28     | 618.6 | 14.09
Neigh   | 6.7148     | 6.7745     | 6.8347     |   1.7 |  1.21
Comm    | 22.892     | 29.81      | 36.317     | 100.6 |  5.33
Output  | 0.40054    | 0.40123    | 0.40194    |   0.1 |  0.07
Modify  | 327.12     | 337.72     | 348.11     |  54.1 | 60.33
Other   |            | 106.2      |            |       | 18.97

Nlocal:        1250.25 ave        1751 max         749 min
Histogram: 2 0 0 0 0 0 0 0 0 2
Nghost:           1.75 ave           2 max           1 min
Histogram: 1 0 0 0 0 0 0 0 0 3
Neighs:         651.25 ave        1303 max           0 min
Histogram: 2 0 0 0 0 0 0 0 0 2

Total # of neighbors = 2605
Ave neighs/atom = 0.52089582
Neighbor list builds = 167
Dangerous builds = 0

undump D1

############ Add spring between top chain to supp particle and then equilibrium  ###########

#fix sp1 support spring couple slider1 ${K0} ${lenspr} NULL NULL 0                                 # Add spring

#dump 		D2 all custom 100000 add_${num}*.dump id type diameter mass xu yu zu

#fix add1 all print 10 "${p0} ${distance} ${slider_z}" file add_distance_${num}.txt screen no      # out put step, distance(spring length), z-position of top chain

#run 1000000

#undump D2

#unfix add1

########## Pulling the supporting particle with constant velocity #############

#fix m1 support move linear 0.1 0 0 units box                                                      # apply constant velocity to supporting particles along x-direction V=0.1m/s

#fix move1 all print 100 "${p0} ${distance} ${slider_z}" file move_distance_${num}.txt screen no

#dump 		1 all custom 50000 move_${num}_*.dump id type diameter mass xu yu zu

#run 1000000

clear
  using 1 OpenMP thread(s) per MPI task

next num

jump SELF startloop

include granular.in
### Simulation of contact between two chain

##################### Simulation setup ####################

units micro                              # units
dimension	3                            # dimension
boundary	p p p                        # boundary condition p: periodic
atom_style	sphere                       # atom style
#processors * * 1

####################### Parameter ##################################

variable ind equal ${num}
variable ind equal 4

#variable lat0 equal 1                    #
variable lat1 equal 3*(2^(1/2))       # Lattice distance of bottom chain
variable lat2 equal 3                   # Lattice distance of top chain
variable d1 equal 3+(0*0.01)+(v_ind*0.01)                      # Diamter of particle at bottom chain
variable d2 equal 3                      # Diamter of particle at top chain
#variable d3 equal 1                      # Diamter of supporting particle

variable n2e1 equal 1000*v_lat2              # Half length of top chain. 1500 is number of particles
variable n1e1 equal 1.5*v_n2e1*(v_lat1/v_lat2)               # Half length of bottom chain, which is 1.5 time larger than top chain
variable n1e2 equal -v_n1e1
variable n2e2 equal -v_n2e1
#variable lenspr equal -(v_n2e1+100)           # length of the spring connecting top chain and supporting particle
#variable lenspr1 equal -v_lenspr-0.1         # Position of supporting particle upper bound
#variable lenspr2 equal -v_lenspr+0.1         # Position of supporting particle lower bound

variable den equal 2.2 #grams/cm^3      # micrometer^3=10^-12 cm^3 Density of materials
#variable den2 equal 1.5

variable V1 equal (1/6)*PI*(v_d1^3)     # Volume of particle 1
variable V2 equal (1/6)*PI*(v_d2^3)     # Volume of particle 2
#variable V3 equal (1/6)*PI*(v_d3^3)     # Volume of particle 3

variable mass1 equal v_den*v_V1  # Mass of particle 1 (picograms)
variable mass2 equal v_den*v_V2  # Mass of particle 2
#variable mass3 equal v_den*v_V3  # Mass of particle 3

# E GPa to picogram/(micrometer-microsecond^2)= 10^3 Pa= 10^-6 GPa
# Force unit(picogram-micrometer/microsecond^2)=10^-9 N= 1nN
# Spring stiffness (force/distance) 10^-3 N/m

variable K0 equal (1500/50)*(10^5)             # Spring stiffness conneting top chain and sup particle
variable E equal 100*(10^6)                    # Young's Modulus using for Hertz/material model
variable PR equal 0.3                          # Poisson's ratio using for Hertz/material model
variable Fn equal -1000 #-(v_ind*100)                       # Force apply to each particles in top chain
variable dt equal 0.00001                      # Time step units microsecond
variable lgv equal 0.5                         #damping for langevin thermostat for slider


################### Creating the model #################################
lattice sc ${lat1}                                                               # Bottom chain type1
lattice sc 4.24264068711929                                                               
Lattice spacing in x,y,z = 4.2426407 4.2426407 4.2426407

region box block ${n1e2} ${n1e1} -100 100 -100 100 units box
region box block -6363.96103067894 ${n1e1} -100 100 -100 100 units box
region box block -6363.96103067894 6363.96103067894 -100 100 -100 100 units box
region substrate block ${n1e2} ${n1e1} -0.5 0.5 0 0.5 units box
region substrate block -6363.96103067894 ${n1e1} -0.5 0.5 0 0.5 units box
region substrate block -6363.96103067894 6363.96103067894 -0.5 0.5 0 0.5 units box

create_box 2 box
Created orthogonal box = (-6363.961 -100 -100) to (6363.961 100 100)
  4 by 1 by 1 MPI processor grid
create_atoms 1 region substrate
Created 3000 atoms
  using lattice units in orthogonal box = (-6363.961 -100 -100) to (6363.961 100 100)
  create_atoms CPU = 0.001 seconds

lattice sc ${lat2}                                                             # Top chain type2
lattice sc 3                                                             
Lattice spacing in x,y,z = 3 3 3

region slider1 block ${n2e2} ${n2e1} -0.1 0.1 5.9 6.1 units box
region slider1 block -3000 ${n2e1} -0.1 0.1 5.9 6.1 units box
region slider1 block -3000 3000 -0.1 0.1 5.9 6.1 units box

create_atoms 2 region slider1
Created 2001 atoms
  using lattice units in orthogonal box = (-6363.961 -100 -100) to (6363.961 100 100)
  create_atoms CPU = 0.001 seconds

#lattice sc ${lat0}                                                             # Supporting particle type3

#region support block ${lenspr1} ${lenspr2} -0.1 0.1 7.9 8.1 units box

#create_atoms 3 region support

set type 1 diameter ${d1}                    # Set mass and diameter for each particles type
set type 1 diameter 3.04                    
Setting atom values ...
  3000 settings made for diameter
set type 1 mass ${mass1}
set type 1 mass 32.3624992932791
Setting atom values ...
  3000 settings made for mass
set type 2 diameter ${d2}
set type 2 diameter 3
Setting atom values ...
  2001 settings made for diameter
set type 2 mass ${mass2}
set type 2 mass 31.101767270539
Setting atom values ...
  2001 settings made for mass
#set type 3 diameter ${d3}
#set type 3 mass ${mass3}

group substrate region substrate           # Define gorup
3000 atoms in group substrate
group slider1 region slider1
2001 atoms in group slider1
#group support region support
group substrate_slider union substrate slider1
5001 atoms in group substrate_slider

########################## Potential ###################################
pair_style granular
pair_coeff 1 1 hertz/material 0.00000001 0.001 ${PR} tangential mindlin NULL 0.1 0.01 damping viscoelastic              ########### set E between each particle in same type is small to neglect their interaction
pair_coeff 1 1 hertz/material 0.00000001 0.001 0.3 tangential mindlin NULL 0.1 0.01 damping viscoelastic              
pair_coeff 2 2 hertz/material 0.00000001 0.001 ${PR} tangential mindlin NULL 0.1 0.01 damping viscoelastic
pair_coeff 2 2 hertz/material 0.00000001 0.001 0.3 tangential mindlin NULL 0.1 0.01 damping viscoelastic
#pair_coeff 3 3 hertz/material ${E} 0.001 ${PR} tangential mindlin NULL 0.1 0.01 damping viscoelastic
pair_coeff 1 2 hertz/material ${E} 0.001 ${PR} tangential mindlin NULL 0.1 0.01 damping viscoelastic
pair_coeff 1 2 hertz/material 100000000 0.001 ${PR} tangential mindlin NULL 0.1 0.01 damping viscoelastic
pair_coeff 1 2 hertz/material 100000000 0.001 0.3 tangential mindlin NULL 0.1 0.01 damping viscoelastic
#pair_coeff 1 3 hertz/material 0.00000001 0.001 ${PR} tangential mindlin NULL 0.1 0.01 damping viscoelastic
#pair_coeff 2 3 hertz/material 0.00000001 0.001 ${PR} tangential mindlin NULL 0.1 0.01 damping viscoelastic
comm_modify     vel yes
neigh_modify    delay 0 every 1 check yes

### Compute properties ###

compute 1 slider1 com                      # Compute the center of mass of top chain
#compute 2 support com                      # Compute the center of mass of supporting particle

variable p0 equal "step"

variable slider_z equal "c_1[3]"          # output the position of top chain in z-direction

#variable distance equal "c_2[1]-c_1[1]"   # Distance between COM of top chain and supporting particle

thermo 100000
thermo_style custom step lx ly lz press pxx pyy pzz ke pe temp c_1[1] c_1[2] c_1[3] #c_2[1] c_2[2] c_2[3] v_distance

############### Fix ##################


############## Equilibrium the system with apply force ########################

fix force_slider1 slider1 setforce NULL 0 NULL                                # Fix top chain not to move in y-direction

fix f_sub substrate freeze                                                    # Freeze the bottom chain

fix rigid_top slider1 rigid/nve group 1 slider1 langevin 0 0 ${lgv} 6987532   # NVE+langevin
fix rigid_top slider1 rigid/nve group 1 slider1 langevin 0 0 0.5 6987532   
  1 rigid bodies with 2001 atoms

fix add slider1 addforce 0 0 ${Fn} every 1                                    # Add force to top layer
fix add slider1 addforce 0 0 -1000 every 1                                    

timestep ${dt}
timestep 1e-05

# fix  nve_1 slider1 nve

dump 		D1 all custom 100000 Equi_${num}_*.dump id type diameter mass xu yu zu
dump 		D1 all custom 100000 Equi_4_*.dump id type diameter mass xu yu zu
dump_modify D1 format 5 %.18g
dump_modify D1 format 7 %.18g

run 3000000
Generated 0 of 1 mixed pair_coeff terms from geometric mixing rule
Neighbor list info ...
  update every 1 steps, delay 0 steps, check yes
  max neighbors/atom: 2000, page size: 100000
  master list distance cutoff = 3.14
  ghost atom cutoff = 3.14
  binsize = 1.57, bins = 8107 128 128
  1 neighbor lists, perpetual/occasional/extra = 1 0 0
  (1) pair granular, perpetual
      attributes: half, newton on, size, history
      pair build: half/size/bin/newton
      stencil: half/bin/3d
      bin: standard
Per MPI rank memory allocation (min/avg/max) = 150 | 150 | 150 Mbytes
[...]
Loop time of 539.187 on 4 procs for 3000000 steps with 5001 atoms

Performance: 4807233.363 ns/day, 0.000 hours/ns, 5563.928 timesteps/s
100.0% CPU use with 4 MPI tasks x 1 OpenMP threads

MPI task timing breakdown:
Section |  min time  |  avg time  |  max time  |%varavg| %total
---------------------------------------------------------------
Pair    | 22.891     | 77.131     | 133.04     | 614.1 | 14.31
Neigh   | 2.7252     | 2.7576     | 2.7912     |   1.4 |  0.51
Comm    | 14.471     | 20.508     | 25.14      |  95.2 |  3.80
Output  | 0.41225    | 0.41289    | 0.41353    |   0.1 |  0.08
Modify  | 318.48     | 331.63     | 346.06     |  68.7 | 61.51
Other   |            | 106.7      |            |       | 19.80

Nlocal:        1250.25 ave        1752 max         749 min
Histogram: 2 0 0 0 0 0 0 0 0 2
Nghost:           1.75 ave           3 max           1 min
Histogram: 2 0 0 0 0 1 0 0 0 1
Neighs:         690.25 ave        1381 max           0 min
Histogram: 2 0 0 0 0 0 0 0 0 2

Total # of neighbors = 2761
Ave neighs/atom = 0.55208958
Neighbor list builds = 144
Dangerous builds = 0

undump D1

############ Add spring between top chain to supp particle and then equilibrium  ###########

#fix sp1 support spring couple slider1 ${K0} ${lenspr} NULL NULL 0                                 # Add spring

#dump 		D2 all custom 100000 add_${num}*.dump id type diameter mass xu yu zu

#fix add1 all print 10 "${p0} ${distance} ${slider_z}" file add_distance_${num}.txt screen no      # out put step, distance(spring length), z-position of top chain

#run 1000000

#undump D2

#unfix add1

########## Pulling the supporting particle with constant velocity #############

#fix m1 support move linear 0.1 0 0 units box                                                      # apply constant velocity to supporting particles along x-direction V=0.1m/s

#fix move1 all print 100 "${p0} ${distance} ${slider_z}" file move_distance_${num}.txt screen no

#dump 		1 all custom 50000 move_${num}_*.dump id type diameter mass xu yu zu

#run 1000000

clear
  using 1 OpenMP thread(s) per MPI task

next num

jump SELF startloop

include granular.in
### Simulation of contact between two chain

##################### Simulation setup ####################

units micro                              # units
dimension	3                            # dimension
boundary	p p p                        # boundary condition p: periodic
atom_style	sphere                       # atom style
#processors * * 1

####################### Parameter ##################################

variable ind equal ${num}
variable ind equal 99

#variable lat0 equal 1                    #
variable lat1 equal 3*(2^(1/2))       # Lattice distance of bottom chain
variable lat2 equal 3                   # Lattice distance of top chain
variable d1 equal 3+(0*0.01)+(v_ind*0.01)                      # Diamter of particle at bottom chain
variable d2 equal 3                      # Diamter of particle at top chain
#variable d3 equal 1                      # Diamter of supporting particle

variable n2e1 equal 1000*v_lat2              # Half length of top chain. 1500 is number of particles
variable n1e1 equal 1.5*v_n2e1*(v_lat1/v_lat2)               # Half length of bottom chain, which is 1.5 time larger than top chain
variable n1e2 equal -v_n1e1
variable n2e2 equal -v_n2e1
#variable lenspr equal -(v_n2e1+100)           # length of the spring connecting top chain and supporting particle
#variable lenspr1 equal -v_lenspr-0.1         # Position of supporting particle upper bound
#variable lenspr2 equal -v_lenspr+0.1         # Position of supporting particle lower bound

variable den equal 2.2 #grams/cm^3      # micrometer^3=10^-12 cm^3 Density of materials
#variable den2 equal 1.5

variable V1 equal (1/6)*PI*(v_d1^3)     # Volume of particle 1
variable V2 equal (1/6)*PI*(v_d2^3)     # Volume of particle 2
#variable V3 equal (1/6)*PI*(v_d3^3)     # Volume of particle 3

variable mass1 equal v_den*v_V1  # Mass of particle 1 (picograms)
variable mass2 equal v_den*v_V2  # Mass of particle 2
#variable mass3 equal v_den*v_V3  # Mass of particle 3

# E GPa to picogram/(micrometer-microsecond^2)= 10^3 Pa= 10^-6 GPa
# Force unit(picogram-micrometer/microsecond^2)=10^-9 N= 1nN
# Spring stiffness (force/distance) 10^-3 N/m

variable K0 equal (1500/50)*(10^5)             # Spring stiffness conneting top chain and sup particle
variable E equal 100*(10^6)                    # Young's Modulus using for Hertz/material model
variable PR equal 0.3                          # Poisson's ratio using for Hertz/material model
variable Fn equal -1000 #-(v_ind*100)                       # Force apply to each particles in top chain
variable dt equal 0.00001                      # Time step units microsecond
variable lgv equal 0.5                         #damping for langevin thermostat for slider


################### Creating the model #################################
lattice sc ${lat1}                                                               # Bottom chain type1
lattice sc 4.24264068711929                                                               
Lattice spacing in x,y,z = 4.2426407 4.2426407 4.2426407

region box block ${n1e2} ${n1e1} -100 100 -100 100 units box
region box block -6363.96103067894 ${n1e1} -100 100 -100 100 units box
region box block -6363.96103067894 6363.96103067894 -100 100 -100 100 units box
region substrate block ${n1e2} ${n1e1} -0.5 0.5 0 0.5 units box
region substrate block -6363.96103067894 ${n1e1} -0.5 0.5 0 0.5 units box
region substrate block -6363.96103067894 6363.96103067894 -0.5 0.5 0 0.5 units box

create_box 2 box
Created orthogonal box = (-6363.961 -100 -100) to (6363.961 100 100)
  4 by 1 by 1 MPI processor grid
create_atoms 1 region substrate
Created 3000 atoms
  using lattice units in orthogonal box = (-6363.961 -100 -100) to (6363.961 100 100)
  create_atoms CPU = 0.001 seconds

lattice sc ${lat2}                                                             # Top chain type2
lattice sc 3                                                             
Lattice spacing in x,y,z = 3 3 3

region slider1 block ${n2e2} ${n2e1} -0.1 0.1 5.9 6.1 units box
region slider1 block -3000 ${n2e1} -0.1 0.1 5.9 6.1 units box
region slider1 block -3000 3000 -0.1 0.1 5.9 6.1 units box

create_atoms 2 region slider1
Created 2001 atoms
  using lattice units in orthogonal box = (-6363.961 -100 -100) to (6363.961 100 100)
  create_atoms CPU = 0.001 seconds

#lattice sc ${lat0}                                                             # Supporting particle type3

#region support block ${lenspr1} ${lenspr2} -0.1 0.1 7.9 8.1 units box

#create_atoms 3 region support

set type 1 diameter ${d1}                    # Set mass and diameter for each particles type
set type 1 diameter 3.99                    
Setting atom values ...
  3000 settings made for diameter
set type 1 mass ${mass1}
set type 1 mass 73.171168446059
Setting atom values ...
  3000 settings made for mass
set type 2 diameter ${d2}
set type 2 diameter 3
Setting atom values ...
  2001 settings made for diameter
set type 2 mass ${mass2}
set type 2 mass 31.101767270539
Setting atom values ...
  2001 settings made for mass
#set type 3 diameter ${d3}
#set type 3 mass ${mass3}

group substrate region substrate           # Define gorup
3000 atoms in group substrate
group slider1 region slider1
2001 atoms in group slider1
#group support region support
group substrate_slider union substrate slider1
5001 atoms in group substrate_slider

########################## Potential ###################################
pair_style granular
pair_coeff 1 1 hertz/material 0.00000001 0.001 ${PR} tangential mindlin NULL 0.1 0.01 damping viscoelastic              ########### set E between each particle in same type is small to neglect their interaction
pair_coeff 1 1 hertz/material 0.00000001 0.001 0.3 tangential mindlin NULL 0.1 0.01 damping viscoelastic              
pair_coeff 2 2 hertz/material 0.00000001 0.001 ${PR} tangential mindlin NULL 0.1 0.01 damping viscoelastic
pair_coeff 2 2 hertz/material 0.00000001 0.001 0.3 tangential mindlin NULL 0.1 0.01 damping viscoelastic
#pair_coeff 3 3 hertz/material ${E} 0.001 ${PR} tangential mindlin NULL 0.1 0.01 damping viscoelastic
pair_coeff 1 2 hertz/material ${E} 0.001 ${PR} tangential mindlin NULL 0.1 0.01 damping viscoelastic
pair_coeff 1 2 hertz/material 100000000 0.001 ${PR} tangential mindlin NULL 0.1 0.01 damping viscoelastic
pair_coeff 1 2 hertz/material 100000000 0.001 0.3 tangential mindlin NULL 0.1 0.01 damping viscoelastic
#pair_coeff 1 3 hertz/material 0.00000001 0.001 ${PR} tangential mindlin NULL 0.1 0.01 damping viscoelastic
#pair_coeff 2 3 hertz/material 0.00000001 0.001 ${PR} tangential mindlin NULL 0.1 0.01 damping viscoelastic
comm_modify     vel yes
neigh_modify    delay 0 every 1 check yes

### Compute properties ###

compute 1 slider1 com                      # Compute the center of mass of top chain
#compute 2 support com                      # Compute the center of mass of supporting particle

variable p0 equal "step"

variable slider_z equal "c_1[3]"          # output the position of top chain in z-direction

#variable distance equal "c_2[1]-c_1[1]"   # Distance between COM of top chain and supporting particle

thermo 100000
thermo_style custom step lx ly lz press pxx pyy pzz ke pe temp c_1[1] c_1[2] c_1[3] #c_2[1] c_2[2] c_2[3] v_distance

############### Fix ##################


############## Equilibrium the system with apply force ########################

fix force_slider1 slider1 setforce NULL 0 NULL                                # Fix top chain not to move in y-direction

fix f_sub substrate freeze                                                    # Freeze the bottom chain

fix rigid_top slider1 rigid/nve group 1 slider1 langevin 0 0 ${lgv} 6987532   # NVE+langevin
fix rigid_top slider1 rigid/nve group 1 slider1 langevin 0 0 0.5 6987532   
  1 rigid bodies with 2001 atoms

fix add slider1 addforce 0 0 ${Fn} every 1                                    # Add force to top layer
fix add slider1 addforce 0 0 -1000 every 1                                    

timestep ${dt}
timestep 1e-05

# fix  nve_1 slider1 nve

dump 		D1 all custom 100000 Equi_${num}_*.dump id type diameter mass xu yu zu
dump 		D1 all custom 100000 Equi_99_*.dump id type diameter mass xu yu zu
dump_modify D1 format 5 %.18g
dump_modify D1 format 7 %.18g

run 3000000
Generated 0 of 1 mixed pair_coeff terms from geometric mixing rule
Neighbor list info ...
  update every 1 steps, delay 0 steps, check yes
  max neighbors/atom: 2000, page size: 100000
  master list distance cutoff = 4.09
  ghost atom cutoff = 4.09
  binsize = 2.045, bins = 6224 98 98
  1 neighbor lists, perpetual/occasional/extra = 1 0 0
  (1) pair granular, perpetual
      attributes: half, newton on, size, history
      pair build: half/size/bin/newton
      stencil: half/bin/3d
      bin: standard
Per MPI rank memory allocation (min/avg/max) = 76.01 | 76.02 | 76.04 Mbytes
   Step           Lx             Ly             Lz           Press           Pxx            Pyy            Pzz           KinEng         PotEng          Temp          c_1[1]         c_1[2]         c_1[3]    
         0   12727.922      200            200            0              0              0              0              0              0              0              1.1971759e-13  0              6            
    100000   12727.922      200            200           -0.00028498279 -3.0463649e-34  0             -0.00085494837  1121985.7      0              5.4176672e+10  1.1971759e-13  0              3.5845       
    200000   12727.922      200            200           -0.00024468497  1.7297321e-41  0             -0.0007340549   27920.386      0              1.3481755e+09  1.1971759e-13  0              3.6420598    
    300000   12727.922      200            200            8.4438675e-05 -1.015457e-34   0              0.00025331602  2482.4803      0              1.1987009e+08  1.1971759e-13  0              3.5311184    
    400000   12727.922      200            200            0.00012560626 -2.5386458e-35  0              0.00037681879  5391.234       0              2.603234e+08   1.1971759e-13  0              3.4974347    
    500000   12727.922      200            200            0.00093195365 -4.0365897e-05  0              0.0028362268   217.05581      0              10480848       1.1971759e-13  0              3.4929916    
    600000   12727.922      200            200            0.0032617183   0.00033438223  0              0.0094507727   85.565045      0              4131629.8      1.1971759e-13  0              3.4912756    
    700000   12727.922      200            200            0.0040617052   0.00032486634  0              0.011860249    0.62673155     0              30262.624      1.1971759e-13  0              3.4908381    
    800000   12727.922      200            200            0.0044998897   0.00038877893  0              0.01311089     1.337032       0              64560.488      1.1971759e-13  0              3.4906262    
    900000   12727.922      200            200            0.004664763    0.00037675502  0              0.013617534    0.65552302     0              31652.861      1.1971759e-13  0              3.4905424    
   1000000   12727.922      200            200            0.0047060996   0.00037595444  0              0.013742344    0.098978108    0              4779.2986      1.1971759e-13  0              3.4905217    
   1100000   12727.922      200            200            0.0047073738   0.00037592249  0              0.013746199    0.0053961842   0              260.56242      1.1971759e-13  0              3.4905209    
   1200000   12727.922      200            200            0.0047025242   0.00037601055  0              0.013731562    4.2003748e-08  0              0.0020282107   1.1971759e-13  0              3.4905232    
   1300000   12727.922      200            200            0.0046995445   0.0003760616   0              0.013722572    9.4907248e-05  0              4.5827313      1.1971759e-13  0              3.4905246    
   1400000   12727.922      200            200            0.0046984736   0.00037607921  0              0.013719342    3.2003105e-05  0              1.5453154      1.1971759e-13  0              3.4905252    
   1500000   12727.922      200            200            0.0046982547   0.0003760829   0              0.013718681    3.8473018e-06  0              0.18577244     1.1971759e-13  0              3.4905253    
   1600000   12727.922      200            200            0.004698272    0.00037608266  0              0.013718733    1.3995729e-07  0              0.0067580365   1.1971759e-13  0              3.4905253    
   1700000   12727.922      200            200            0.0046983114   0.00037608203  0              0.013718852    2.2187618e-09  0              0.00010713607  1.1971759e-13  0              3.4905253    
   1800000   12727.922      200            200            0.0046983318   0.0003760817   0              0.013718914    5.9966544e-09  0              0.00028955698  1.1971759e-13  0              3.4905252    
   1900000   12727.922      200            200            0.0046983383   0.00037608159  0              0.013718933    1.4765156e-09  0              7.1295654e-05  1.1971759e-13  0              3.4905252    
   2000000   12727.922      200            200            0.0046983393   0.00037608157  0              0.013718936    1.3947922e-10  0              6.7349523e-06  1.1971759e-13  0              3.4905252    
   2100000   12727.922      200            200            0.0046983391   0.00037608158  0              0.013718936    2.7798858e-12  0              1.3423074e-07  1.1971759e-13  0              3.4905252    
   2200000   12727.922      200            200            0.0046983388   0.00037608158  0              0.013718935    3.8612488e-13  0              1.8644589e-08  1.1971759e-13  0              3.4905252    
   2300000   12727.922      200            200            0.0046983386   0.00037608158  0              0.013718934    3.3964731e-13  0              1.6400353e-08  1.1971759e-13  0              3.4905252    
   2400000   12727.922      200            200            0.0046983386   0.00037608158  0              0.013718934    6.4390955e-14  0              3.1092088e-09  1.1971759e-13  0              3.4905252    
   2500000   12727.922      200            200            0.0046983386   0.00037608158  0              0.013718934    4.646568e-15   0              2.2436614e-10  1.1971759e-13  0              3.4905252    
   2600000   12727.922      200            200            0.0046983386   0.00037608158  0              0.013718934    3.6179211e-17  0              1.7469646e-12  1.1971759e-13  0              3.4905252    
   2700000   12727.922      200            200            0.0046983386   0.00037608158  0              0.013718934    1.2079598e-16  0              5.8328057e-12  1.1971759e-13  0              3.4905252    
   2800000   12727.922      200            200            0.0046983386   0.00037608158  0              0.013718934    5.2217768e-19  0              2.5214091e-14  1.1971759e-13  0              3.4905252    
   2900000   12727.922      200            200            0.0046983386   0.00037608158  0              0.013718934    4.3988207e-18  0              2.1240331e-13  1.1971759e-13  0              3.4905252    
   3000000   12727.922      200            200            0.0046983386   0.00037608159  0              0.013718934    6.8688356e-19  0              3.3167149e-14  1.1971759e-13  0              3.4905252    
Loop time of 540.345 on 4 procs for 3000000 steps with 5001 atoms

Performance: 4796939.679 ns/day, 0.000 hours/ns, 5552.014 timesteps/s
100.0% CPU use with 4 MPI tasks x 1 OpenMP threads

MPI task timing breakdown:
Section |  min time  |  avg time  |  max time  |%varavg| %total
---------------------------------------------------------------
Pair    | 22.512     | 77.272     | 132.63     | 619.7 | 14.30
Neigh   | 2.709      | 2.7426     | 2.7771     |   1.5 |  0.51
Comm    | 14.617     | 20.636     | 25.203     |  93.7 |  3.82
Output  | 0.39393    | 0.39455    | 0.39519    |   0.1 |  0.07
Modify  | 322.48     | 334.14     | 346.35     |  59.0 | 61.84
Other   |            | 105.2      |            |       | 19.46

Nlocal:        1250.25 ave        1752 max         749 min
Histogram: 2 0 0 0 0 0 0 0 0 2
Nghost:           1.75 ave           3 max           1 min
Histogram: 2 0 0 0 0 1 0 0 0 1
Neighs:         695.25 ave        1391 max           0 min
Histogram: 2 0 0 0 0 0 0 0 0 2

Total # of neighbors = 2781
Ave neighs/atom = 0.55608878
Neighbor list builds = 146
Dangerous builds = 0

undump D1

############ Add spring between top chain to supp particle and then equilibrium  ###########

#fix sp1 support spring couple slider1 ${K0} ${lenspr} NULL NULL 0                                 # Add spring

#dump 		D2 all custom 100000 add_${num}*.dump id type diameter mass xu yu zu

#fix add1 all print 10 "${p0} ${distance} ${slider_z}" file add_distance_${num}.txt screen no      # out put step, distance(spring length), z-position of top chain

#run 1000000

#undump D2

#unfix add1

########## Pulling the supporting particle with constant velocity #############

#fix m1 support move linear 0.1 0 0 units box                                                      # apply constant velocity to supporting particles along x-direction V=0.1m/s

#fix move1 all print 100 "${p0} ${distance} ${slider_z}" file move_distance_${num}.txt screen no

#dump 		1 all custom 50000 move_${num}_*.dump id type diameter mass xu yu zu

#run 1000000

clear
  using 1 OpenMP thread(s) per MPI task

next num

jump SELF startloop
Total wall time: 15:04:23
