ITEM: TIMESTEP
500000
ITEM: NUMBER OF ATOMS
2501
ITEM: BOX BOUNDS pp pp pp
-3.1819805153394700e+03 3.1819805153394700e+03
-5.0000000000000000e+01 5.0000000000000000e+01
-5.0000000000000000e+01 5.0000000000000000e+01
ITEM: ATOMS id type diameter mass xu yu zu
1 1 3 31.1018 -3181.98 0 0
2 1 3 31.1018 -3177.74 0 0
3 1 3 31.1018 -3173.5 0 0
4 1 3 31.1018 -3169.25 0 0
5 1 3 31.1018 -3165.01 0 0
6 1 3 31.1018 -3160.77 0 0
7 1 3 31.1018 -3156.52 0 0
8 1 3 31.1018 -3152.28 0 0
9 1 3 31.1018 -3148.04 0 0
10 1 3 31.1018 -3143.8 0 0
11 1 3 31.1018 -3139.55 0 0
12 1 3 31.1018 -3135.31 0 0
13 1 3 31.1018 -3131.07 0 0
14 1 3 31.1018 -3126.83 0 0
15 1 3 31.1018 -3122.58 0 0
16 1 3 31.1018 -3118.34 0 0
17 1 3 31.1018 -3114.1 0 0
18 1 3 31.1018 -3109.86 0 0
19 1 3 31.1018 -3105.61 0 0
20 1 3 31.1018 -3101.37 0 0
21 1 3 31.1018 -3097.13 0 0
22 1 3 31.1018 -3092.89 0 0
23 1 3 31.1018 -3088.64 0 0
24 1 3 31.1018 -3084.4 0 0
25 1 3 31.1018 -3080.16 0 0
26 1 3 31.1018 -3075.91 0 0
27 1 3 31.1018 -3071.67 0 0
28 1 3 31.1018 -3067.43 0 0
29 1 3 31.1018 -3063.19 0 0
30 1 3 31.1018 -3058.94 0 0
31 1 3 31.1018 -3054.7 0 0
32 1 3 31.1018 -3050.46 0 0
33 1 3 31.1018 -3046.22 0 0
34 1 3 31.1018 -3041.97 0 0
35 1 3 31.1018 -3037.73 0 0
36 1 3 31.1018 -3033.49 0 0
37 1 3 31.1018 -3029.25 0 0
38 1 3 31.1018 -3025 0 0
39 1 3 31.1018 -3020.76 0 0
40 1 3 31.1018 -3016.52 0 0
41 1 3 31.1018 -3012.27 0 0
42 1 3 31.1018 -3008.03 0 0
43 1 3 31.1018 -3003.79 0 0
44 1 3 31.1018 -2999.55 0 0
45 1 3 31.1018 -2995.3 0 0
46 1 3 31.1018 -2991.06 0 0
47 1 3 31.1018 -2986.82 0 0
48 1 3 31.1018 -2982.58 0 0
49 1 3 31.1018 -2978.33 0 0
50 1 3 31.1018 -2974.09 0 0
51 1 3 31.1018 -2969.85 0 0
52 1 3 31.1018 -2965.61 0 0
53 1 3 31.1018 -2961.36 0 0
54 1 3 31.1018 -2957.12 0 0
55 1 3 31.1018 -2952.88 0 0
56 1 3 31.1018 -2948.64 0 0
57 1 3 31.1018 -2944.39 0 0
58 1 3 31.1018 -2940.15 0 0
59 1 3 31.1018 -2935.91 0 0
60 1 3 31.1018 -2931.66 0 0
61 1 3 31.1018 -2927.42 0 0
62 1 3 31.1018 -2923.18 0 0
63 1 3 31.1018 -2918.94 0 0
64 1 3 31.1018 -2914.69 0 0
65 1 3 31.1018 -2910.45 0 0
66 1 3 31.1018 -2906.21 0 0
67 1 3 31.1018 -2901.97 0 0
68 1 3 31.1018 -2897.72 0 0
69 1 3 31.1018 -2893.48 0 0
70 1 3 31.1018 -2889.24 0 0
71 1 3 31.1018 -2885 0 0
72 1 3 31.1018 -2880.75 0 0
73 1 3 31.1018 -2876.51 0 0
74 1 3 31.1018 -2872.27 0 0
75 1 3 31.1018 -2868.03 0 0
76 1 3 31.1018 -2863.78 0 0
77 1 3 31.1018 -2859.54 0 0
78 1 3 31.1018 -2855.3 0 0
79 1 3 31.1018 -2851.05 0 0
80 1 3 31.1018 -2846.81 0 0
81 1 3 31.1018 -2842.57 0 0
82 1 3 31.1018 -2838.33 0 0
83 1 3 31.1018 -2834.08 0 0
84 1 3 31.1018 -2829.84 0 0
85 1 3 31.1018 -2825.6 0 0
86 1 3 31.1018 -2821.36 0 0
87 1 3 31.1018 -2817.11 0 0
88 1 3 31.1018 -2812.87 0 0
89 1 3 31.1018 -2808.63 0 0
90 1 3 31.1018 -2804.39 0 0
91 1 3 31.1018 -2800.14 0 0
92 1 3 31.1018 -2795.9 0 0
93 1 3 31.1018 -2791.66 0 0
94 1 3 31.1018 -2787.41 0 0
95 1 3 31.1018 -2783.17 0 0
96 1 3 31.1018 -2778.93 0 0
97 1 3 31.1018 -2774.69 0 0
98 1 3 31.1018 -2770.44 0 0
99 1 3 31.1018 -2766.2 0 0
100 1 3 31.1018 -2761.96 0 0
101 1 3 31.1018 -2757.72 0 0
102 1 3 31.1018 -2753.47 0 0
103 1 3 31.1018 -2749.23 0 0
104 1 3 31.1018 -2744.99 0 0
105 1 3 31.1018 -2740.75 0 0
106 1 3 31.1018 -2736.5 0 0
107 1 3 31.1018 -2732.26 0 0
108 1 3 31.1018 -2728.02 0 0
109 1 3 31.1018 -2723.78 0 0
110 1 3 31.1018 -2719.53 0 0
111 1 3 31.1018 -2715.29 0 0
112 1 3 31.1018 -2711.05 0 0
113 1 3 31.1018 -2706.8 0 0
114 1 3 31.1018 -2702.56 0 0
115 1 3 31.1018 -2698.32 0 0
116 1 3 31.1018 -2694.08 0 0
117 1 3 31.1018 -2689.83 0 0
118 1 3 31.1018 -2685.59 0 0
119 1 3 31.1018 -2681.35 0 0
120 1 3 31.1018 -2677.11 0 0
121 1 3 31.1018 -2672.86 0 0
122 1 3 31.1018 -2668.62 0 0
123 1 3 31.1018 -2664.38 0 0
124 1 3 31.1018 -2660.14 0 0
125 1 3 31.1018 -2655.89 0 0
126 1 3 31.1018 -2651.65 0 0
127 1 3 31.1018 -2647.41 0 0
128 1 3 31.1018 -2643.17 0 0
129 1 3 31.1018 -2638.92 0 0
130 1 3 31.1018 -2634.68 0 0
131 1 3 31.1018 -2630.44 0 0
132 1 3 31.1018 -2626.19 0 0
133 1 3 31.1018 -2621.95 0 0
134 1 3 31.1018 -2617.71 0 0
135 1 3 31.1018 -2613.47 0 0
136 1 3 31.1018 -2609.22 0 0
137 1 3 31.1018 -2604.98 0 0
138 1 3 31.1018 -2600.74 0 0
139 1 3 31.1018 -2596.5 0 0
140 1 3 31.1018 -2592.25 0 0
141 1 3 31.1018 -2588.01 0 0
142 1 3 31.1018 -2583.77 0 0
143 1 3 31.1018 -2579.53 0 0
144 1 3 31.1018 -2575.28 0 0
145 1 3 31.1018 -2571.04 0 0
146 1 3 31.1018 -2566.8 0 0
147 1 3 31.1018 -2562.55 0 0
148 1 3 31.1018 -2558.31 0 0
149 1 3 31.1018 -2554.07 0 0
150 1 3 31.1018 -2549.83 0 0
151 1 3 31.1018 -2545.58 0 0
152 1 3 31.1018 -2541.34 0 0
153 1 3 31.1018 -2537.1 0 0
154 1 3 31.1018 -2532.86 0 0
155 1 3 31.1018 -2528.61 0 0
156 1 3 31.1018 -2524.37 0 0
157 1 3 31.1018 -2520.13 0 0
158 1 3 31.1018 -2515.89 0 0
159 1 3 31.1018 -2511.64 0 0
160 1 3 31.1018 -2507.4 0 0
161 1 3 31.1018 -2503.16 0 0
162 1 3 31.1018 -2498.92 0 0
163 1 3 31.1018 -2494.67 0 0
164 1 3 31.1018 -2490.43 0 0
165 1 3 31.1018 -2486.19 0 0
166 1 3 31.1018 -2481.94 0 0
167 1 3 31.1018 -2477.7 0 0
168 1 3 31.1018 -2473.46 0 0
169 1 3 31.1018 -2469.22 0 0
170 1 3 31.1018 -2464.97 0 0
171 1 3 31.1018 -2460.73 0 0
172 1 3 31.1018 -2456.49 0 0
173 1 3 31.1018 -2452.25 0 0
174 1 3 31.1018 -2448 0 0
175 1 3 31.1018 -2443.76 0 0
176 1 3 31.1018 -2439.52 0 0
177 1 3 31.1018 -2435.28 0 0
178 1 3 31.1018 -2431.03 0 0
179 1 3 31.1018 -2426.79 0 0
180 1 3 31.1018 -2422.55 0 0
181 1 3 31.1018 -2418.31 0 0
182 1 3 31.1018 -2414.06 0 0
183 1 3 31.1018 -2409.82 0 0
184 1 3 31.1018 -2405.58 0 0
185 1 3 31.1018 -2401.33 0 0
186 1 3 31.1018 -2397.09 0 0
187 1 3 31.1018 -2392.85 0 0
188 1 3 31.1018 -2388.61 0 0
189 1 3 31.1018 -2384.36 0 0
190 1 3 31.1018 -2380.12 0 0
191 1 3 31.1018 -2375.88 0 0
192 1 3 31.1018 -2371.64 0 0
193 1 3 31.1018 -2367.39 0 0
194 1 3 31.1018 -2363.15 0 0
195 1 3 31.1018 -2358.91 0 0
196 1 3 31.1018 -2354.67 0 0
197 1 3 31.1018 -2350.42 0 0
198 1 3 31.1018 -2346.18 0 0
199 1 3 31.1018 -2341.94 0 0
200 1 3 31.1018 -2337.7 0 0
201 1 3 31.1018 -2333.45 0 0
202 1 3 31.1018 -2329.21 0 0
203 1 3 31.1018 -2324.97 0 0
204 1 3 31.1018 -2320.72 0 0
205 1 3 31.1018 -2316.48 0 0
206 1 3 31.1018 -2312.24 0 0
207 1 3 31.1018 -2308 0 0
208 1 3 31.1018 -2303.75 0 0
209 1 3 31.1018 -2299.51 0 0
210 1 3 31.1018 -2295.27 0 0
211 1 3 31.1018 -2291.03 0 0
212 1 3 31.1018 -2286.78 0 0
213 1 3 31.1018 -2282.54 0 0
214 1 3 31.1018 -2278.3 0 0
215 1 3 31.1018 -2274.06 0 0
216 1 3 31.1018 -2269.81 0 0
217 1 3 31.1018 -2265.57 0 0
218 1 3 31.1018 -2261.33 0 0
219 1 3 31.1018 -2257.08 0 0
220 1 3 31.1018 -2252.84 0 0
221 1 3 31.1018 -2248.6 0 0
222 1 3 31.1018 -2244.36 0 0
223 1 3 31.1018 -2240.11 0 0
224 1 3 31.1018 -2235.87 0 0
225 1 3 31.1018 -2231.63 0 0
226 1 3 31.1018 -2227.39 0 0
227 1 3 31.1018 -2223.14 0 0
228 1 3 31.1018 -2218.9 0 0
229 1 3 31.1018 -2214.66 0 0
230 1 3 31.1018 -2210.42 0 0
231 1 3 31.1018 -2206.17 0 0
232 1 3 31.1018 -2201.93 0 0
233 1 3 31.1018 -2197.69 0 0
234 1 3 31.1018 -2193.45 0 0
235 1 3 31.1018 -2189.2 0 0
236 1 3 31.1018 -2184.96 0 0
237 1 3 31.1018 -2180.72 0 0
238 1 3 31.1018 -2176.47 0 0
239 1 3 31.1018 -2172.23 0 0
240 1 3 31.1018 -2167.99 0 0
241 1 3 31.1018 -2163.75 0 0
242 1 3 31.1018 -2159.5 0 0
243 1 3 31.1018 -2155.26 0 0
244 1 3 31.1018 -2151.02 0 0
245 1 3 31.1018 -2146.78 0 0
246 1 3 31.1018 -2142.53 0 0
247 1 3 31.1018 -2138.29 0 0
248 1 3 31.1018 -2134.05 0 0
249 1 3 31.1018 -2129.81 0 0
250 1 3 31.1018 -2125.56 0 0
251 1 3 31.1018 -2121.32 0 0
252 1 3 31.1018 -2117.08 0 0
253 1 3 31.1018 -2112.84 0 0
254 1 3 31.1018 -2108.59 0 0
255 1 3 31.1018 -2104.35 0 0
256 1 3 31.1018 -2100.11 0 0
257 1 3 31.1018 -2095.86 0 0
258 1 3 31.1018 -2091.62 0 0
259 1 3 31.1018 -2087.38 0 0
260 1 3 31.1018 -2083.14 0 0
261 1 3 31.1018 -2078.89 0 0
262 1 3 31.1018 -2074.65 0 0
263 1 3 31.1018 -2070.41 0 0
264 1 3 31.1018 -2066.17 0 0
265 1 3 31.1018 -2061.92 0 0
266 1 3 31.1018 -2057.68 0 0
267 1 3 31.1018 -2053.44 0 0
268 1 3 31.1018 -2049.2 0 0
269 1 3 31.1018 -2044.95 0 0
270 1 3 31.1018 -2040.71 0 0
271 1 3 31.1018 -2036.47 0 0
272 1 3 31.1018 -2032.22 0 0
273 1 3 31.1018 -2027.98 0 0
274 1 3 31.1018 -2023.74 0 0
275 1 3 31.1018 -2019.5 0 0
276 1 3 31.1018 -2015.25 0 0
277 1 3 31.1018 -2011.01 0 0
278 1 3 31.1018 -2006.77 0 0
279 1 3 31.1018 -2002.53 0 0
280 1 3 31.1018 -1998.28 0 0
281 1 3 31.1018 -1994.04 0 0
282 1 3 31.1018 -1989.8 0 0
283 1 3 31.1018 -1985.56 0 0
284 1 3 31.1018 -1981.31 0 0
285 1 3 31.1018 -1977.07 0 0
286 1 3 31.1018 -1972.83 0 0
287 1 3 31.1018 -1968.59 0 0
288 1 3 31.1018 -1964.34 0 0
289 1 3 31.1018 -1960.1 0 0
290 1 3 31.1018 -1955.86 0 0
291 1 3 31.1018 -1951.61 0 0
292 1 3 31.1018 -1947.37 0 0
293 1 3 31.1018 -1943.13 0 0
294 1 3 31.1018 -1938.89 0 0
295 1 3 31.1018 -1934.64 0 0
296 1 3 31.1018 -1930.4 0 0
297 1 3 31.1018 -1926.16 0 0
298 1 3 31.1018 -1921.92 0 0
299 1 3 31.1018 -1917.67 0 0
300 1 3 31.1018 -1913.43 0 0
301 1 3 31.1018 -1909.19 0 0
302 1 3 31.1018 -1904.95 0 0
303 1 3 31.1018 -1900.7 0 0
304 1 3 31.1018 -1896.46 0 0
305 1 3 31.1018 -1892.22 0 0
306 1 3 31.1018 -1887.98 0 0
307 1 3 31.1018 -1883.73 0 0
308 1 3 31.1018 -1879.49 0 0
309 1 3 31.1018 -1875.25 0 0
310 1 3 31.1018 -1871 0 0
311 1 3 31.1018 -1866.76 0 0
312 1 3 31.1018 -1862.52 0 0
313 1 3 31.1018 -1858.28 0 0
314 1 3 31.1018 -1854.03 0 0
315 1 3 31.1018 -1849.79 0 0
316 1 3 31.1018 -1845.55 0 0
317 1 3 31.1018 -1841.31 0 0
318 1 3 31.1018 -1837.06 0 0
319 1 3 31.1018 -1832.82 0 0
320 1 3 31.1018 -1828.58 0 0
321 1 3 31.1018 -1824.34 0 0
322 1 3 31.1018 -1820.09 0 0
323 1 3 31.1018 -1815.85 0 0
324 1 3 31.1018 -1811.61 0 0
325 1 3 31.1018 -1807.36 0 0
326 1 3 31.1018 -1803.12 0 0
327 1 3 31.1018 -1798.88 0 0
328 1 3 31.1018 -1794.64 0 0
329 1 3 31.1018 -1790.39 0 0
330 1 3 31.1018 -1786.15 0 0
331 1 3 31.1018 -1781.91 0 0
332 1 3 31.1018 -1777.67 0 0
333 1 3 31.1018 -1773.42 0 0
334 1 3 31.1018 -1769.18 0 0
335 1 3 31.1018 -1764.94 0 0
336 1 3 31.1018 -1760.7 0 0
337 1 3 31.1018 -1756.45 0 0
338 1 3 31.1018 -1752.21 0 0
339 1 3 31.1018 -1747.97 0 0
340 1 3 31.1018 -1743.73 0 0
341 1 3 31.1018 -1739.48 0 0
342 1 3 31.1018 -1735.24 0 0
343 1 3 31.1018 -1731 0 0
344 1 3 31.1018 -1726.75 0 0
345 1 3 31.1018 -1722.51 0 0
346 1 3 31.1018 -1718.27 0 0
347 1 3 31.1018 -1714.03 0 0
348 1 3 31.1018 -1709.78 0 0
349 1 3 31.1018 -1705.54 0 0
350 1 3 31.1018 -1701.3 0 0
351 1 3 31.1018 -1697.06 0 0
352 1 3 31.1018 -1692.81 0 0
353 1 3 31.1018 -1688.57 0 0
354 1 3 31.1018 -1684.33 0 0
355 1 3 31.1018 -1680.09 0 0
356 1 3 31.1018 -1675.84 0 0
357 1 3 31.1018 -1671.6 0 0
358 1 3 31.1018 -1667.36 0 0
359 1 3 31.1018 -1663.12 0 0
360 1 3 31.1018 -1658.87 0 0
361 1 3 31.1018 -1654.63 0 0
362 1 3 31.1018 -1650.39 0 0
363 1 3 31.1018 -1646.14 0 0
364 1 3 31.1018 -1641.9 0 0
365 1 3 31.1018 -1637.66 0 0
366 1 3 31.1018 -1633.42 0 0
367 1 3 31.1018 -1629.17 0 0
368 1 3 31.1018 -1624.93 0 0
369 1 3 31.1018 -1620.69 0 0
370 1 3 31.1018 -1616.45 0 0
371 1 3 31.1018 -1612.2 0 0
372 1 3 31.1018 -1607.96 0 0
373 1 3 31.1018 -1603.72 0 0
374 1 3 31.1018 -1599.48 0 0
375 1 3 31.1018 -1595.23 0 0
376 1 3 31.1018 -1590.99 0 0
377 1 3 31.1018 -1586.75 0 0
378 1 3 31.1018 -1582.5 0 0
379 1 3 31.1018 -1578.26 0 0
380 1 3 31.1018 -1574.02 0 0
381 1 3 31.1018 -1569.78 0 0
382 1 3 31.1018 -1565.53 0 0
383 1 3 31.1018 -1561.29 0 0
384 1 3 31.1018 -1557.05 0 0
385 1 3 31.1018 -1552.81 0 0
386 1 3 31.1018 -1548.56 0 0
387 1 3 31.1018 -1544.32 0 0
388 1 3 31.1018 -1540.08 0 0
389 1 3 31.1018 -1535.84 0 0
390 1 3 31.1018 -1531.59 0 0
391 1 3 31.1018 -1527.35 0 0
392 1 3 31.1018 -1523.11 0 0
393 1 3 31.1018 -1518.87 0 0
394 1 3 31.1018 -1514.62 0 0
395 1 3 31.1018 -1510.38 0 0
396 1 3 31.1018 -1506.14 0 0
397 1 3 31.1018 -1501.89 0 0
398 1 3 31.1018 -1497.65 0 0
399 1 3 31.1018 -1493.41 0 0
400 1 3 31.1018 -1489.17 0 0
401 1 3 31.1018 -1484.92 0 0
402 1 3 31.1018 -1480.68 0 0
403 1 3 31.1018 -1476.44 0 0
404 1 3 31.1018 -1472.2 0 0
405 1 3 31.1018 -1467.95 0 0
406 1 3 31.1018 -1463.71 0 0
407 1 3 31.1018 -1459.47 0 0
408 1 3 31.1018 -1455.23 0 0
409 1 3 31.1018 -1450.98 0 0
410 1 3 31.1018 -1446.74 0 0
411 1 3 31.1018 -1442.5 0 0
412 1 3 31.1018 -1438.26 0 0
413 1 3 31.1018 -1434.01 0 0
414 1 3 31.1018 -1429.77 0 0
415 1 3 31.1018 -1425.53 0 0
416 1 3 31.1018 -1421.28 0 0
417 1 3 31.1018 -1417.04 0 0
418 1 3 31.1018 -1412.8 0 0
419 1 3 31.1018 -1408.56 0 0
420 1 3 31.1018 -1404.31 0 0
421 1 3 31.1018 -1400.07 0 0
422 1 3 31.1018 -1395.83 0 0
423 1 3 31.1018 -1391.59 0 0
424 1 3 31.1018 -1387.34 0 0
425 1 3 31.1018 -1383.1 0 0
426 1 3 31.1018 -1378.86 0 0
427 1 3 31.1018 -1374.62 0 0
428 1 3 31.1018 -1370.37 0 0
429 1 3 31.1018 -1366.13 0 0
430 1 3 31.1018 -1361.89 0 0
431 1 3 31.1018 -1357.65 0 0
432 1 3 31.1018 -1353.4 0 0
433 1 3 31.1018 -1349.16 0 0
434 1 3 31.1018 -1344.92 0 0
435 1 3 31.1018 -1340.67 0 0
436 1 3 31.1018 -1336.43 0 0
437 1 3 31.1018 -1332.19 0 0
438 1 3 31.1018 -1327.95 0 0
439 1 3 31.1018 -1323.7 0 0
440 1 3 31.1018 -1319.46 0 0
441 1 3 31.1018 -1315.22 0 0
442 1 3 31.1018 -1310.98 0 0
443 1 3 31.1018 -1306.73 0 0
444 1 3 31.1018 -1302.49 0 0
445 1 3 31.1018 -1298.25 0 0
446 1 3 31.1018 -1294.01 0 0
447 1 3 31.1018 -1289.76 0 0
448 1 3 31.1018 -1285.52 0 0
449 1 3 31.1018 -1281.28 0 0
450 1 3 31.1018 -1277.03 0 0
451 1 3 31.1018 -1272.79 0 0
452 1 3 31.1018 -1268.55 0 0
453 1 3 31.1018 -1264.31 0 0
454 1 3 31.1018 -1260.06 0 0
455 1 3 31.1018 -1255.82 0 0
456 1 3 31.1018 -1251.58 0 0
457 1 3 31.1018 -1247.34 0 0
458 1 3 31.1018 -1243.09 0 0
459 1 3 31.1018 -1238.85 0 0
460 1 3 31.1018 -1234.61 0 0
461 1 3 31.1018 -1230.37 0 0
462 1 3 31.1018 -1226.12 0 0
463 1 3 31.1018 -1221.88 0 0
464 1 3 31.1018 -1217.64 0 0
465 1 3 31.1018 -1213.4 0 0
466 1 3 31.1018 -1209.15 0 0
467 1 3 31.1018 -1204.91 0 0
468 1 3 31.1018 -1200.67 0 0
469 1 3 31.1018 -1196.42 0 0
470 1 3 31.1018 -1192.18 0 0
471 1 3 31.1018 -1187.94 0 0
472 1 3 31.1018 -1183.7 0 0
473 1 3 31.1018 -1179.45 0 0
474 1 3 31.1018 -1175.21 0 0
475 1 3 31.1018 -1170.97 0 0
476 1 3 31.1018 -1166.73 0 0
477 1 3 31.1018 -1162.48 0 0
478 1 3 31.1018 -1158.24 0 0
479 1 3 31.1018 -1154 0 0
480 1 3 31.1018 -1149.76 0 0
481 1 3 31.1018 -1145.51 0 0
482 1 3 31.1018 -1141.27 0 0
483 1 3 31.1018 -1137.03 0 0
484 1 3 31.1018 -1132.79 0 0
485 1 3 31.1018 -1128.54 0 0
486 1 3 31.1018 -1124.3 0 0
487 1 3 31.1018 -1120.06 0 0
488 1 3 31.1018 -1115.81 0 0
489 1 3 31.1018 -1111.57 0 0
490 1 3 31.1018 -1107.33 0 0
491 1 3 31.1018 -1103.09 0 0
492 1 3 31.1018 -1098.84 0 0
493 1 3 31.1018 -1094.6 0 0
494 1 3 31.1018 -1090.36 0 0
495 1 3 31.1018 -1086.12 0 0
496 1 3 31.1018 -1081.87 0 0
497 1 3 31.1018 -1077.63 0 0
498 1 3 31.1018 -1073.39 0 0
499 1 3 31.1018 -1069.15 0 0
500 1 3 31.1018 -1064.9 0 0
501 1 3 31.1018 -1060.66 0 0
502 1 3 31.1018 -1056.42 0 0
503 1 3 31.1018 -1052.17 0 0
504 1 3 31.1018 -1047.93 0 0
505 1 3 31.1018 -1043.69 0 0
506 1 3 31.1018 -1039.45 0 0
507 1 3 31.1018 -1035.2 0 0
508 1 3 31.1018 -1030.96 0 0
509 1 3 31.1018 -1026.72 0 0
510 1 3 31.1018 -1022.48 0 0
511 1 3 31.1018 -1018.23 0 0
512 1 3 31.1018 -1013.99 0 0
513 1 3 31.1018 -1009.75 0 0
514 1 3 31.1018 -1005.51 0 0
515 1 3 31.1018 -1001.26 0 0
516 1 3 31.1018 -997.021 0 0
517 1 3 31.1018 -992.778 0 0
518 1 3 31.1018 -988.535 0 0
519 1 3 31.1018 -984.293 0 0
520 1 3 31.1018 -980.05 0 0
521 1 3 31.1018 -975.807 0 0
522 1 3 31.1018 -971.565 0 0
523 1 3 31.1018 -967.322 0 0
524 1 3 31.1018 -963.079 0 0
525 1 3 31.1018 -958.837 0 0
526 1 3 31.1018 -954.594 0 0
527 1 3 31.1018 -950.352 0 0
528 1 3 31.1018 -946.109 0 0
529 1 3 31.1018 -941.866 0 0
530 1 3 31.1018 -937.624 0 0
531 1 3 31.1018 -933.381 0 0
532 1 3 31.1018 -929.138 0 0
533 1 3 31.1018 -924.896 0 0
534 1 3 31.1018 -920.653 0 0
535 1 3 31.1018 -916.41 0 0
536 1 3 31.1018 -912.168 0 0
537 1 3 31.1018 -907.925 0 0
538 1 3 31.1018 -903.682 0 0
539 1 3 31.1018 -899.44 0 0
540 1 3 31.1018 -895.197 0 0
541 1 3 31.1018 -890.955 0 0
542 1 3 31.1018 -886.712 0 0
543 1 3 31.1018 -882.469 0 0
544 1 3 31.1018 -878.227 0 0
545 1 3 31.1018 -873.984 0 0
546 1 3 31.1018 -869.741 0 0
547 1 3 31.1018 -865.499 0 0
548 1 3 31.1018 -861.256 0 0
549 1 3 31.1018 -857.013 0 0
550 1 3 31.1018 -852.771 0 0
551 1 3 31.1018 -848.528 0 0
552 1 3 31.1018 -844.285 0 0
553 1 3 31.1018 -840.043 0 0
554 1 3 31.1018 -835.8 0 0
555 1 3 31.1018 -831.558 0 0
556 1 3 31.1018 -827.315 0 0
557 1 3 31.1018 -823.072 0 0
558 1 3 31.1018 -818.83 0 0
559 1 3 31.1018 -814.587 0 0
560 1 3 31.1018 -810.344 0 0
561 1 3 31.1018 -806.102 0 0
562 1 3 31.1018 -801.859 0 0
563 1 3 31.1018 -797.616 0 0
564 1 3 31.1018 -793.374 0 0
565 1 3 31.1018 -789.131 0 0
566 1 3 31.1018 -784.889 0 0
567 1 3 31.1018 -780.646 0 0
568 1 3 31.1018 -776.403 0 0
569 1 3 31.1018 -772.161 0 0
570 1 3 31.1018 -767.918 0 0
571 1 3 31.1018 -763.675 0 0
572 1 3 31.1018 -759.433 0 0
573 1 3 31.1018 -755.19 0 0
574 1 3 31.1018 -750.947 0 0
575 1 3 31.1018 -746.705 0 0
576 1 3 31.1018 -742.462 0 0
577 1 3 31.1018 -738.219 0 0
578 1 3 31.1018 -733.977 0 0
579 1 3 31.1018 -729.734 0 0
580 1 3 31.1018 -725.492 0 0
581 1 3 31.1018 -721.249 0 0
582 1 3 31.1018 -717.006 0 0
583 1 3 31.1018 -712.764 0 0
584 1 3 31.1018 -708.521 0 0
585 1 3 31.1018 -704.278 0 0
586 1 3 31.1018 -700.036 0 0
587 1 3 31.1018 -695.793 0 0
588 1 3 31.1018 -691.55 0 0
589 1 3 31.1018 -687.308 0 0
590 1 3 31.1018 -683.065 0 0
591 1 3 31.1018 -678.823 0 0
592 1 3 31.1018 -674.58 0 0
593 1 3 31.1018 -670.337 0 0
594 1 3 31.1018 -666.095 0 0
595 1 3 31.1018 -661.852 0 0
596 1 3 31.1018 -657.609 0 0
597 1 3 31.1018 -653.367 0 0
598 1 3 31.1018 -649.124 0 0
599 1 3 31.1018 -644.881 0 0
600 1 3 31.1018 -640.639 0 0
601 1 3 31.1018 -636.396 0 0
602 1 3 31.1018 -632.153 0 0
603 1 3 31.1018 -627.911 0 0
604 1 3 31.1018 -623.668 0 0
605 1 3 31.1018 -619.426 0 0
606 1 3 31.1018 -615.183 0 0
607 1 3 31.1018 -610.94 0 0
608 1 3 31.1018 -606.698 0 0
609 1 3 31.1018 -602.455 0 0
610 1 3 31.1018 -598.212 0 0
611 1 3 31.1018 -593.97 0 0
612 1 3 31.1018 -589.727 0 0
613 1 3 31.1018 -585.484 0 0
614 1 3 31.1018 -581.242 0 0
615 1 3 31.1018 -576.999 0 0
616 1 3 31.1018 -572.756 0 0
617 1 3 31.1018 -568.514 0 0
618 1 3 31.1018 -564.271 0 0
619 1 3 31.1018 -560.029 0 0
620 1 3 31.1018 -555.786 0 0
621 1 3 31.1018 -551.543 0 0
622 1 3 31.1018 -547.301 0 0
623 1 3 31.1018 -543.058 0 0
624 1 3 31.1018 -538.815 0 0
625 1 3 31.1018 -534.573 0 0
626 1 3 31.1018 -530.33 0 0
627 1 3 31.1018 -526.087 0 0
628 1 3 31.1018 -521.845 0 0
629 1 3 31.1018 -517.602 0 0
630 1 3 31.1018 -513.36 0 0
631 1 3 31.1018 -509.117 0 0
632 1 3 31.1018 -504.874 0 0
633 1 3 31.1018 -500.632 0 0
634 1 3 31.1018 -496.389 0 0
635 1 3 31.1018 -492.146 0 0
636 1 3 31.1018 -487.904 0 0
637 1 3 31.1018 -483.661 0 0
638 1 3 31.1018 -479.418 0 0
639 1 3 31.1018 -475.176 0 0
640 1 3 31.1018 -470.933 0 0
641 1 3 31.1018 -466.69 0 0
642 1 3 31.1018 -462.448 0 0
643 1 3 31.1018 -458.205 0 0
644 1 3 31.1018 -453.963 0 0
645 1 3 31.1018 -449.72 0 0
646 1 3 31.1018 -445.477 0 0
647 1 3 31.1018 -441.235 0 0
648 1 3 31.1018 -436.992 0 0
649 1 3 31.1018 -432.749 0 0
650 1 3 31.1018 -428.507 0 0
651 1 3 31.1018 -424.264 0 0
652 1 3 31.1018 -420.021 0 0
653 1 3 31.1018 -415.779 0 0
654 1 3 31.1018 -411.536 0 0
655 1 3 31.1018 -407.294 0 0
656 1 3 31.1018 -403.051 0 0
657 1 3 31.1018 -398.808 0 0
658 1 3 31.1018 -394.566 0 0
659 1 3 31.1018 -390.323 0 0
660 1 3 31.1018 -386.08 0 0
661 1 3 31.1018 -381.838 0 0
662 1 3 31.1018 -377.595 0 0
663 1 3 31.1018 -373.352 0 0
664 1 3 31.1018 -369.11 0 0
665 1 3 31.1018 -364.867 0 0
666 1 3 31.1018 -360.624 0 0
667 1 3 31.1018 -356.382 0 0
668 1 3 31.1018 -352.139 0 0
669 1 3 31.1018 -347.897 0 0
670 1 3 31.1018 -343.654 0 0
671 1 3 31.1018 -339.411 0 0
672 1 3 31.1018 -335.169 0 0
673 1 3 31.1018 -330.926 0 0
674 1 3 31.1018 -326.683 0 0
675 1 3 31.1018 -322.441 0 0
676 1 3 31.1018 -318.198 0 0
677 1 3 31.1018 -313.955 0 0
678 1 3 31.1018 -309.713 0 0
679 1 3 31.1018 -305.47 0 0
680 1 3 31.1018 -301.227 0 0
681 1 3 31.1018 -296.985 0 0
682 1 3 31.1018 -292.742 0 0
683 1 3 31.1018 -288.5 0 0
684 1 3 31.1018 -284.257 0 0
685 1 3 31.1018 -280.014 0 0
686 1 3 31.1018 -275.772 0 0
687 1 3 31.1018 -271.529 0 0
688 1 3 31.1018 -267.286 0 0
689 1 3 31.1018 -263.044 0 0
690 1 3 31.1018 -258.801 0 0
691 1 3 31.1018 -254.558 0 0
692 1 3 31.1018 -250.316 0 0
693 1 3 31.1018 -246.073 0 0
694 1 3 31.1018 -241.831 0 0
695 1 3 31.1018 -237.588 0 0
696 1 3 31.1018 -233.345 0 0
697 1 3 31.1018 -229.103 0 0
698 1 3 31.1018 -224.86 0 0
699 1 3 31.1018 -220.617 0 0
700 1 3 31.1018 -216.375 0 0
701 1 3 31.1018 -212.132 0 0
702 1 3 31.1018 -207.889 0 0
703 1 3 31.1018 -203.647 0 0
704 1 3 31.1018 -199.404 0 0
705 1 3 31.1018 -195.161 0 0
706 1 3 31.1018 -190.919 0 0
707 1 3 31.1018 -186.676 0 0
708 1 3 31.1018 -182.434 0 0
709 1 3 31.1018 -178.191 0 0
710 1 3 31.1018 -173.948 0 0
711 1 3 31.1018 -169.706 0 0
712 1 3 31.1018 -165.463 0 0
713 1 3 31.1018 -161.22 0 0
714 1 3 31.1018 -156.978 0 0
715 1 3 31.1018 -152.735 0 0
716 1 3 31.1018 -148.492 0 0
717 1 3 31.1018 -144.25 0 0
718 1 3 31.1018 -140.007 0 0
719 1 3 31.1018 -135.765 0 0
720 1 3 31.1018 -131.522 0 0
721 1 3 31.1018 -127.279 0 0
722 1 3 31.1018 -123.037 0 0
723 1 3 31.1018 -118.794 0 0
724 1 3 31.1018 -114.551 0 0
725 1 3 31.1018 -110.309 0 0
726 1 3 31.1018 -106.066 0 0
727 1 3 31.1018 -101.823 0 0
728 1 3 31.1018 -97.5807 0 0
729 1 3 31.1018 -93.3381 0 0
730 1 3 31.1018 -89.0955 0 0
731 1 3 31.1018 -84.8528 0 0
732 1 3 31.1018 -80.6102 0 0
733 1 3 31.1018 -76.3675 0 0
734 1 3 31.1018 -72.1249 0 0
735 1 3 31.1018 -67.8823 0 0
736 1 3 31.1018 -63.6396 0 0
737 1 3 31.1018 -59.397 0 0
738 1 3 31.1018 -55.1543 0 0
739 1 3 31.1018 -50.9117 0 0
740 1 3 31.1018 -46.669 0 0
741 1 3 31.1018 -42.4264 0 0
742 1 3 31.1018 -38.1838 0 0
743 1 3 31.1018 -33.9411 0 0
744 1 3 31.1018 -29.6985 0 0
745 1 3 31.1018 -25.4558 0 0
746 1 3 31.1018 -21.2132 0 0
747 1 3 31.1018 -16.9706 0 0
748 1 3 31.1018 -12.7279 0 0
749 1 3 31.1018 -8.48528 0 0
750 1 3 31.1018 -4.24264 0 0
1501 2 3 31.1018 -1500 0 2.99461
1502 2 3 31.1018 -1497 0 2.99461
1503 2 3 31.1018 -1494 0 2.99461
1504 2 3 31.1018 -1491 0 2.99461
1505 2 3 31.1018 -1488 0 2.99461
1506 2 3 31.1018 -1485 0 2.99461
1507 2 3 31.1018 -1482 0 2.99461
1508 2 3 31.1018 -1479 0 2.99461
1509 2 3 31.1018 -1476 0 2.99461
1510 2 3 31.1018 -1473 0 2.99461
1511 2 3 31.1018 -1470 0 2.99461
1512 2 3 31.1018 -1467 0 2.99461
1513 2 3 31.1018 -1464 0 2.99461
1514 2 3 31.1018 -1461 0 2.99461
1515 2 3 31.1018 -1458 0 2.99461
1516 2 3 31.1018 -1455 0 2.99461
1517 2 3 31.1018 -1452 0 2.99461
1518 2 3 31.1018 -1449 0 2.99461
1519 2 3 31.1018 -1446 0 2.99461
1520 2 3 31.1018 -1443 0 2.99461
1521 2 3 31.1018 -1440 0 2.99461
1522 2 3 31.1018 -1437 0 2.99461
1523 2 3 31.1018 -1434 0 2.99461
1524 2 3 31.1018 -1431 0 2.99461
1525 2 3 31.1018 -1428 0 2.99461
1526 2 3 31.1018 -1425 0 2.99461
1527 2 3 31.1018 -1422 0 2.99461
1528 2 3 31.1018 -1419 0 2.99461
1529 2 3 31.1018 -1416 0 2.99461
1530 2 3 31.1018 -1413 0 2.99461
1531 2 3 31.1018 -1410 0 2.99461
1532 2 3 31.1018 -1407 0 2.99461
1533 2 3 31.1018 -1404 0 2.99461
1534 2 3 31.1018 -1401 0 2.99461
1535 2 3 31.1018 -1398 0 2.99461
1536 2 3 31.1018 -1395 0 2.99461
1537 2 3 31.1018 -1392 0 2.99461
1538 2 3 31.1018 -1389 0 2.99461
1539 2 3 31.1018 -1386 0 2.99461
1540 2 3 31.1018 -1383 0 2.99461
1541 2 3 31.1018 -1380 0 2.99461
1542 2 3 31.1018 -1377 0 2.99461
1543 2 3 31.1018 -1374 0 2.99461
1544 2 3 31.1018 -1371 0 2.99461
1545 2 3 31.1018 -1368 0 2.99461
1546 2 3 31.1018 -1365 0 2.99461
1547 2 3 31.1018 -1362 0 2.99461
1548 2 3 31.1018 -1359 0 2.99461
1549 2 3 31.1018 -1356 0 2.99461
1550 2 3 31.1018 -1353 0 2.99461
1551 2 3 31.1018 -1350 0 2.99461
1552 2 3 31.1018 -1347 0 2.99461
1553 2 3 31.1018 -1344 0 2.99461
1554 2 3 31.1018 -1341 0 2.99461
1555 2 3 31.1018 -1338 0 2.99461
1556 2 3 31.1018 -1335 0 2.99461
1557 2 3 31.1018 -1332 0 2.99461
1558 2 3 31.1018 -1329 0 2.99461
1559 2 3 31.1018 -1326 0 2.99461
1560 2 3 31.1018 -1323 0 2.99461
1561 2 3 31.1018 -1320 0 2.99461
1562 2 3 31.1018 -1317 0 2.99461
1563 2 3 31.1018 -1314 0 2.99461
1564 2 3 31.1018 -1311 0 2.99461
1565 2 3 31.1018 -1308 0 2.99461
1566 2 3 31.1018 -1305 0 2.99461
1567 2 3 31.1018 -1302 0 2.99461
1568 2 3 31.1018 -1299 0 2.99461
1569 2 3 31.1018 -1296 0 2.99461
1570 2 3 31.1018 -1293 0 2.99461
1571 2 3 31.1018 -1290 0 2.99461
1572 2 3 31.1018 -1287 0 2.99461
1573 2 3 31.1018 -1284 0 2.99461
1574 2 3 31.1018 -1281 0 2.99461
1575 2 3 31.1018 -1278 0 2.99461
1576 2 3 31.1018 -1275 0 2.99461
1577 2 3 31.1018 -1272 0 2.99461
1578 2 3 31.1018 -1269 0 2.99461
1579 2 3 31.1018 -1266 0 2.99461
1580 2 3 31.1018 -1263 0 2.99461
1581 2 3 31.1018 -1260 0 2.99461
1582 2 3 31.1018 -1257 0 2.99461
1583 2 3 31.1018 -1254 0 2.99461
1584 2 3 31.1018 -1251 0 2.99461
1585 2 3 31.1018 -1248 0 2.99461
1586 2 3 31.1018 -1245 0 2.99461
1587 2 3 31.1018 -1242 0 2.99461
1588 2 3 31.1018 -1239 0 2.99461
1589 2 3 31.1018 -1236 0 2.99461
1590 2 3 31.1018 -1233 0 2.99461
1591 2 3 31.1018 -1230 0 2.99461
1592 2 3 31.1018 -1227 0 2.99461
1593 2 3 31.1018 -1224 0 2.99461
1594 2 3 31.1018 -1221 0 2.99461
1595 2 3 31.1018 -1218 0 2.99461
1596 2 3 31.1018 -1215 0 2.99461
1597 2 3 31.1018 -1212 0 2.99461
1598 2 3 31.1018 -1209 0 2.99461
1599 2 3 31.1018 -1206 0 2.99461
1600 2 3 31.1018 -1203 0 2.99461
1601 2 3 31.1018 -1200 0 2.99461
1602 2 3 31.1018 -1197 0 2.99461
1603 2 3 31.1018 -1194 0 2.99461
1604 2 3 31.1018 -1191 0 2.99461
1605 2 3 31.1018 -1188 0 2.99461
1606 2 3 31.1018 -1185 0 2.99461
1607 2 3 31.1018 -1182 0 2.99461
1608 2 3 31.1018 -1179 0 2.99461
1609 2 3 31.1018 -1176 0 2.99461
1610 2 3 31.1018 -1173 0 2.99461
1611 2 3 31.1018 -1170 0 2.99461
1612 2 3 31.1018 -1167 0 2.99461
1613 2 3 31.1018 -1164 0 2.99461
1614 2 3 31.1018 -1161 0 2.99461
1615 2 3 31.1018 -1158 0 2.99461
1616 2 3 31.1018 -1155 0 2.99461
1617 2 3 31.1018 -1152 0 2.99461
1618 2 3 31.1018 -1149 0 2.99461
1619 2 3 31.1018 -1146 0 2.99461
1620 2 3 31.1018 -1143 0 2.99461
1621 2 3 31.1018 -1140 0 2.99461
1622 2 3 31.1018 -1137 0 2.99461
1623 2 3 31.1018 -1134 0 2.99461
1624 2 3 31.1018 -1131 0 2.99461
1625 2 3 31.1018 -1128 0 2.99461
1626 2 3 31.1018 -1125 0 2.99461
1627 2 3 31.1018 -1122 0 2.99461
1628 2 3 31.1018 -1119 0 2.99461
1629 2 3 31.1018 -1116 0 2.99461
1630 2 3 31.1018 -1113 0 2.99461
1631 2 3 31.1018 -1110 0 2.99461
1632 2 3 31.1018 -1107 0 2.99461
1633 2 3 31.1018 -1104 0 2.99461
1634 2 3 31.1018 -1101 0 2.99461
1635 2 3 31.1018 -1098 0 2.99461
1636 2 3 31.1018 -1095 0 2.99461
1637 2 3 31.1018 -1092 0 2.99461
1638 2 3 31.1018 -1089 0 2.99461
1639 2 3 31.1018 -1086 0 2.99461
1640 2 3 31.1018 -1083 0 2.99461
1641 2 3 31.1018 -1080 0 2.99461
1642 2 3 31.1018 -1077 0 2.99461
1643 2 3 31.1018 -1074 0 2.99461
1644 2 3 31.1018 -1071 0 2.99461
1645 2 3 31.1018 -1068 0 2.99461
1646 2 3 31.1018 -1065 0 2.99461
1647 2 3 31.1018 -1062 0 2.99461
1648 2 3 31.1018 -1059 0 2.99461
1649 2 3 31.1018 -1056 0 2.99461
1650 2 3 31.1018 -1053 0 2.99461
1651 2 3 31.1018 -1050 0 2.99461
1652 2 3 31.1018 -1047 0 2.99461
1653 2 3 31.1018 -1044 0 2.99461
1654 2 3 31.1018 -1041 0 2.99461
1655 2 3 31.1018 -1038 0 2.99461
1656 2 3 31.1018 -1035 0 2.99461
1657 2 3 31.1018 -1032 0 2.99461
1658 2 3 31.1018 -1029 0 2.99461
1659 2 3 31.1018 -1026 0 2.99461
1660 2 3 31.1018 -1023 0 2.99461
1661 2 3 31.1018 -1020 0 2.99461
1662 2 3 31.1018 -1017 0 2.99461
1663 2 3 31.1018 -1014 0 2.99461
1664 2 3 31.1018 -1011 0 2.99461
1665 2 3 31.1018 -1008 0 2.99461
1666 2 3 31.1018 -1005 0 2.99461
1667 2 3 31.1018 -1002 0 2.99461
1668 2 3 31.1018 -999 0 2.99461
1669 2 3 31.1018 -996 0 2.99461
1670 2 3 31.1018 -993 0 2.99461
1671 2 3 31.1018 -990 0 2.99461
1672 2 3 31.1018 -987 0 2.99461
1673 2 3 31.1018 -984 0 2.99461
1674 2 3 31.1018 -981 0 2.99461
1675 2 3 31.1018 -978 0 2.99461
1676 2 3 31.1018 -975 0 2.99461
1677 2 3 31.1018 -972 0 2.99461
1678 2 3 31.1018 -969 0 2.99461
1679 2 3 31.1018 -966 0 2.99461
1680 2 3 31.1018 -963 0 2.99461
1681 2 3 31.1018 -960 0 2.99461
1682 2 3 31.1018 -957 0 2.99461
1683 2 3 31.1018 -954 0 2.99461
1684 2 3 31.1018 -951 0 2.99461
1685 2 3 31.1018 -948 0 2.99461
1686 2 3 31.1018 -945 0 2.99461
1687 2 3 31.1018 -942 0 2.99461
1688 2 3 31.1018 -939 0 2.99461
1689 2 3 31.1018 -936 0 2.99461
1690 2 3 31.1018 -933 0 2.99461
1691 2 3 31.1018 -930 0 2.99461
1692 2 3 31.1018 -927 0 2.99461
1693 2 3 31.1018 -924 0 2.99461
1694 2 3 31.1018 -921 0 2.99461
1695 2 3 31.1018 -918 0 2.99461
1696 2 3 31.1018 -915 0 2.99461
1697 2 3 31.1018 -912 0 2.99461
1698 2 3 31.1018 -909 0 2.99461
1699 2 3 31.1018 -906 0 2.99461
1700 2 3 31.1018 -903 0 2.99461
1701 2 3 31.1018 -900 0 2.99461
1702 2 3 31.1018 -897 0 2.99461
1703 2 3 31.1018 -894 0 2.99461
1704 2 3 31.1018 -891 0 2.99461
1705 2 3 31.1018 -888 0 2.99461
1706 2 3 31.1018 -885 0 2.99461
1707 2 3 31.1018 -882 0 2.99461
1708 2 3 31.1018 -879 0 2.99461
1709 2 3 31.1018 -876 0 2.99461
1710 2 3 31.1018 -873 0 2.99461
1711 2 3 31.1018 -870 0 2.99461
1712 2 3 31.1018 -867 0 2.99461
1713 2 3 31.1018 -864 0 2.99461
1714 2 3 31.1018 -861 0 2.99461
1715 2 3 31.1018 -858 0 2.99461
1716 2 3 31.1018 -855 0 2.99461
1717 2 3 31.1018 -852 0 2.99461
1718 2 3 31.1018 -849 0 2.99461
1719 2 3 31.1018 -846 0 2.99461
1720 2 3 31.1018 -843 0 2.99461
1721 2 3 31.1018 -840 0 2.99461
1722 2 3 31.1018 -837 0 2.99461
1723 2 3 31.1018 -834 0 2.99461
1724 2 3 31.1018 -831 0 2.99461
1725 2 3 31.1018 -828 0 2.99461
1726 2 3 31.1018 -825 0 2.99461
1727 2 3 31.1018 -822 0 2.99461
1728 2 3 31.1018 -819 0 2.99461
1729 2 3 31.1018 -816 0 2.99461
1730 2 3 31.1018 -813 0 2.99461
1731 2 3 31.1018 -810 0 2.99461
1732 2 3 31.1018 -807 0 2.99461
1733 2 3 31.1018 -804 0 2.99461
1734 2 3 31.1018 -801 0 2.99461
1735 2 3 31.1018 -798 0 2.99461
1736 2 3 31.1018 -795 0 2.99461
1737 2 3 31.1018 -792 0 2.99461
1738 2 3 31.1018 -789 0 2.99461
1739 2 3 31.1018 -786 0 2.99461
1740 2 3 31.1018 -783 0 2.99461
1741 2 3 31.1018 -780 0 2.99461
1742 2 3 31.1018 -777 0 2.99461
1743 2 3 31.1018 -774 0 2.99461
1744 2 3 31.1018 -771 0 2.99461
1745 2 3 31.1018 -768 0 2.99461
1746 2 3 31.1018 -765 0 2.99461
1747 2 3 31.1018 -762 0 2.99461
1748 2 3 31.1018 -759 0 2.99461
1749 2 3 31.1018 -756 0 2.99461
1750 2 3 31.1018 -753 0 2.99461