LAMMPS (23 Jun 2022 - Update 1)
  using 1 OpenMP thread(s) per MPI task
Lattice spacing in x,y,z = 4.2426407 4.2426407 4.2426407
Created orthogonal box = (-3181.9805 -50 -50) to (3181.9805 50 50)
  2 by 1 by 1 MPI processor grid
Created 1500 atoms
  using lattice units in orthogonal box = (-3181.9805 -50 -50) to (3181.9805 50 50)
  create_atoms CPU = 0.001 seconds
Lattice spacing in x,y,z = 3 3 3
Created 1001 atoms
  using lattice units in orthogonal box = (-3181.9805 -50 -50) to (3181.9805 50 50)
  create_atoms CPU = 0.001 seconds
Setting atom values ...
  1500 settings made for diameter
Setting atom values ...
  1500 settings made for mass
Setting atom values ...
  1001 settings made for diameter
Setting atom values ...
  1001 settings made for mass
1500 atoms in group substrate
1001 atoms in group slider1
2501 atoms in group substrate_slider
  1 rigid bodies with 1001 atoms
Generated 0 of 1 mixed pair_coeff terms from geometric mixing rule
Neighbor list info ...
  update every 1 steps, delay 0 steps, check yes
  max neighbors/atom: 2000, page size: 100000
  master list distance cutoff = 3.1
  ghost atom cutoff = 3.1
  binsize = 1.55, bins = 4106 65 65
  1 neighbor lists, perpetual/occasional/extra = 1 0 0
  (1) pair granular, perpetual
      attributes: half, newton on, size, history
      pair build: half/size/bin/newton
      stencil: half/bin/3d
      bin: standard
Setting up Verlet run ...
  Unit style    : micro
  Current step  : 0
  Time step     : 1e-05
Per MPI rank memory allocation (min/avg/max) = 51.25 | 51.25 | 51.25 Mbytes
   Step           Lx             Ly             Lz           Press           Pxx            Pyy            Pzz           KinEng         PotEng          Temp          c_1[1]         c_1[2]         c_1[3]    
         0   6363.961       100            100            0              0              0              0              0              0              0              1.1965779e-13  0              6            
    100000   6363.961       100            100            0.0013353889   0              0              0.0040061667   7519.6195      0              7.2619103e+08  1.1965779e-13  0              5.5437025    
    200000   6363.961       100            100            0.0013334607   0              0              0.004000382    9692.6663      0              9.3604834e+08  1.1965779e-13  0              4.7869199    
    300000   6363.961       100            100            0.0011481013   0              0              0.0034443039   10007.911      0              9.6649245e+08  1.1965779e-13  0              3.9894717    
    400000   6363.961       100            100            0.00094036802  0              0              0.0028211041   10050.962      0              9.7064995e+08  1.1965779e-13  0              3.1865202    
    500000   6363.961       100            100            0.00046694475 -7.9332809e-37  0              0.0014008343   3045.5423      0              2.9411668e+08  1.1965779e-13  0              3.0157723    
    600000   6363.961       100            100           -0.00018664365 -1.2693215e-35  0             -0.00055993096  604.02426      0              58332340       1.1965779e-13  0              3.0034163    
    700000   6363.961       100            100           -8.8340469e-05 -2.1261196e-34  0             -0.00026502141  130.79383      0              12631132       1.1965779e-13  0              3.0002653    
    800000   6363.961       100            100            0.0018240006  -0.00067323     0              0.0061452317   7.9852949      0              771162.63      1.1965779e-13  0              2.9982755    
    900000   6363.961       100            100            0.0004667933  -2.3575591e-05  0              0.0014239555   2.0918699      0              202017.82      1.1965779e-13  0              2.9991563    
   1000000   6363.961       100            100            0.00091795183 -0.00010201569  0              0.0028558712   0.046715601    0              4511.4584      1.1965779e-13  0              2.9988168    
   1100000   6363.961       100            100            0.00076439426 -6.2128449e-05  0              0.0023553112   0.082186802    0              7937.013       1.1965779e-13  0              2.9989274    
   1200000   6363.961       100            100            0.00074182082 -6.771552e-05   0              0.002293178    0.00081803737  0              79.000193      1.1965779e-13  0              2.9989399    
   1300000   6363.961       100            100            0.00076777908 -6.6975125e-05  0              0.0023703124   0.0011476413   0              110.83098      1.1965779e-13  0              2.9989223    
   1400000   6363.961       100            100            0.00076618729 -6.6851671e-05  0              0.0023654135   9.3106368e-05  0              8.9915466      1.1965779e-13  0              2.9989236    
   1500000   6363.961       100            100            0.00076303851 -6.666119e-05   0              0.0023557767   8.6873943e-06  0              0.83896636     1.1965779e-13  0              2.9989258    
   1600000   6363.961       100            100            0.00076378696 -6.6708634e-05  0              0.0023580695   3.2456236e-06  0              0.3134391      1.1965779e-13  0              2.9989252    
   1700000   6363.961       100            100            0.00076408652 -6.6726067e-05  0              0.0023589856   8.9434782e-09  0              0.00086369711  1.1965779e-13  0              2.998925     
   1800000   6363.961       100            100            0.00076393477 -6.671664e-05   0              0.0023585209   6.7377106e-08  0              0.0065067987   1.1965779e-13  0              2.9989251    
   1900000   6363.961       100            100            0.00076391988 -6.6715872e-05  0              0.0023584755   9.6220693e-10  0              9.2923059e-05  1.1965779e-13  0              2.9989251    
   2000000   6363.961       100            100            0.00076394291 -6.6717275e-05  0              0.002358546    8.9183615e-10  0              8.6127152e-05  1.1965779e-13  0              2.9989251    
   2100000   6363.961       100            100            0.00076394103 -6.6717142e-05  0              0.0023585402   8.5271245e-11  0              8.2348865e-06  1.1965779e-13  0              2.9989251    
   2200000   6363.961       100            100            0.00076393824 -6.6716975e-05  0              0.0023585317   6.1495036e-12  0              5.9387504e-07  1.1965779e-13  0              2.9989251    
   2300000   6363.961       100            100            0.00076393896 -6.6717021e-05  0              0.0023585339   2.7792085e-12  0              2.6839607e-07  1.1965779e-13  0              2.9989251    
   2400000   6363.961       100            100            0.00076393922 -6.6717036e-05  0              0.0023585347   2.9468036e-15  0              2.8458119e-10  1.1965779e-13  0              2.9989251    
   2500000   6363.961       100            100            0.00076393908 -6.6717027e-05  0              0.0023585343   5.5052261e-14  0              5.3165533e-09  1.1965779e-13  0              2.9989251    
   2600000   6363.961       100            100            0.00076393907 -6.6717027e-05  0              0.0023585342   1.0085181e-15  0              9.7395458e-11  1.1965779e-13  0              2.9989251    
   2700000   6363.961       100            100            0.00076393909 -6.6717028e-05  0              0.0023585343   7.0092952e-16  0              6.7690756e-11  1.1965779e-13  0              2.9989251    
   2800000   6363.961       100            100            0.00076393908 -6.6717028e-05  0              0.0023585343   9.0231861e-17  0              8.7139473e-12  1.1965779e-13  0              2.9989251    
   2900000   6363.961       100            100            0.00076393908 -6.6717028e-05  0              0.0023585343   1.6657128e-17  0              1.6086262e-12  1.1965779e-13  0              2.9989251    
   3000000   6363.961       100            100            0.00076393908 -6.6717028e-05  0              0.0023585343   3.8718862e-18  0              3.7391905e-13  1.1965779e-13  0              2.9989251    
Loop time of 329.47 on 2 procs for 3000000 steps with 2501 atoms

Performance: 7867179.410 ns/day, 0.000 hours/ns, 9105.532 timesteps/s
100.0% CPU use with 2 MPI tasks x 1 OpenMP threads

MPI task timing breakdown:
Section |  min time  |  avg time  |  max time  |%varavg| %total
---------------------------------------------------------------
Pair    | 77.294     | 77.891     | 78.488     |   6.8 | 23.64
Neigh   | 0.83029    | 0.83044    | 0.83059    |   0.0 |  0.25
Comm    | 10.427     | 10.96      | 11.493     |  16.1 |  3.33
Output  | 0.26113    | 0.26117    | 0.26122    |   0.0 |  0.08
Modify  | 215.34     | 215.39     | 215.45     |   0.4 | 65.38
Other   |            | 24.13      |            |       |  7.33

Nlocal:         1250.5 ave        1251 max        1250 min
Histogram: 1 0 0 0 0 0 0 0 0 1
Nghost:            2.5 ave           3 max           2 min
Histogram: 1 0 0 0 0 0 0 0 0 1
Neighs:          684.5 ave         685 max         684 min
Histogram: 1 0 0 0 0 0 0 0 0 1

Total # of neighbors = 1369
Ave neighs/atom = 0.54738105
Neighbor list builds = 64
Dangerous builds = 0
  using 1 OpenMP thread(s) per MPI task
Lattice spacing in x,y,z = 4.2426407 4.2426407 4.2426407
Created orthogonal box = (-3181.9805 -50 -50) to (3181.9805 50 50)
  2 by 1 by 1 MPI processor grid
Created 1500 atoms
  using lattice units in orthogonal box = (-3181.9805 -50 -50) to (3181.9805 50 50)
  create_atoms CPU = 0.001 seconds
Lattice spacing in x,y,z = 3 3 3
Created 1001 atoms
  using lattice units in orthogonal box = (-3181.9805 -50 -50) to (3181.9805 50 50)
  create_atoms CPU = 0.001 seconds
Setting atom values ...
  1500 settings made for diameter
Setting atom values ...
  1500 settings made for mass
Setting atom values ...
  1001 settings made for diameter
Setting atom values ...
  1001 settings made for mass
1500 atoms in group substrate
1001 atoms in group slider1
2501 atoms in group substrate_slider
  1 rigid bodies with 1001 atoms
Generated 0 of 1 mixed pair_coeff terms from geometric mixing rule
Neighbor list info ...
  update every 1 steps, delay 0 steps, check yes
  max neighbors/atom: 2000, page size: 100000
  master list distance cutoff = 3.1
  ghost atom cutoff = 3.1
  binsize = 1.55, bins = 4106 65 65
  1 neighbor lists, perpetual/occasional/extra = 1 0 0
  (1) pair granular, perpetual
      attributes: half, newton on, size, history
      pair build: half/size/bin/newton
      stencil: half/bin/3d
      bin: standard
Setting up Verlet run ...
  Unit style    : micro
  Current step  : 0
  Time step     : 1e-05
Per MPI rank memory allocation (min/avg/max) = 51.25 | 51.25 | 51.25 Mbytes
   Step           Lx             Ly             Lz           Press           Pxx            Pyy            Pzz           KinEng         PotEng          Temp          c_1[1]         c_1[2]         c_1[3]    
         0   6363.961       100            100            0              0              0              0              0              0              0              1.1965779e-13  0              6            
    100000   6363.961       100            100            0.0026214634   0              0              0.0078643902   30078.478      0              2.9047641e+09  1.1965779e-13  0              5.0874051    
    200000   6363.961       100            100            0.0022456206   0              0              0.0067368619   38770.665      0              3.7441934e+09  1.1965779e-13  0              3.5738397    
    300000   6363.961       100            100            0.00077301049 -3.1733126e-36  0              0.0023190315   7264.4897      0              7.0155242e+08  1.1965779e-13  0              3.1280936    
    400000   6363.961       100            100            0.00039074531  2.5386508e-35  0              0.0011722359   2169.4699      0              2.0951188e+08  1.1965779e-13  0              3.0228439    
    500000   6363.961       100            100            0.00012516107  5.0773097e-35  0              0.00037548321  243.51237      0              23516681       1.1965779e-13  0              3.0065116    
    600000   6363.961       100            100           -7.6494297e-06  2.5386658e-35  0             -2.2948289e-05  0.94560076     0              91319.353      1.1965779e-13  0              3.0007844    
    700000   6363.961       100            100            0.0024495608  -0.00099517333  0              0.0083438558   7.9141675      0              764293.65      1.1965779e-13  0              2.9979724    
    800000   6363.961       100            100            0.0010812723  -0.00056561782  0              0.0038094347   2.1594019      0              208539.58      1.1965779e-13  0              2.9986294    
    900000   6363.961       100            100            0.001306971   -0.00057065115  0              0.004491564    0.39312382     0              37965.084      1.1965779e-13  0              2.9985207    
   1000000   6363.961       100            100            0.0014447451  -0.00057892242  0              0.0049131577   0.00020379967  0              19.681513      1.1965779e-13  0              2.9984499    
   1100000   6363.961       100            100            0.0013662742  -0.00057699181  0              0.0046758144   0.0062058802   0              599.31949      1.1965779e-13  0              2.9984877    
   1200000   6363.961       100            100            0.0013756345  -0.00057812309  0              0.0047050267   0.00096867283  0              93.547488      1.1965779e-13  0              2.9984834    
   1300000   6363.961       100            100            0.0013823931  -0.00057889365  0              0.0047260729   9.333596e-07   0              0.090137189    1.1965779e-13  0              2.9984799    
   1400000   6363.961       100            100            0.0013786005  -0.00057847549  0              0.0047142771   1.4800683e-05  0              1.429344       1.1965779e-13  0              2.9984817    
   1500000   6363.961       100            100            0.0013791053  -0.00057852627  0              0.0047158421   2.4604567e-06  0              0.2376133      1.1965779e-13  0              2.9984815    
   1600000   6363.961       100            100            0.0013794293  -0.00057856339  0              0.0047168512   4.3877616e-09  0              0.00042373861  1.1965779e-13  0              2.9984813    
   1700000   6363.961       100            100            0.00137924    -0.00057854263  0              0.0047162625   3.5070778e-08  0              0.0033868847   1.1965779e-13  0              2.9984814    
   1800000   6363.961       100            100            0.0013792669  -0.00057854537  0              0.0047163461   6.2332384e-09  0              0.00060196155  1.1965779e-13  0              2.9984814    
   1900000   6363.961       100            100            0.0013792824  -0.00057854715  0              0.0047163944   1.7603899e-11  0              1.7000586e-06  1.1965779e-13  0              2.9984814    
   2000000   6363.961       100            100            0.001379273   -0.00057854611  0              0.0047163651   8.2874448e-11  0              8.003421e-06   1.1965779e-13  0              2.9984814    
   2100000   6363.961       100            100            0.0013792744  -0.00057854626  0              0.0047163695   1.5761453e-11  0              1.5221283e-06  1.1965779e-13  0              2.9984814    
   2200000   6363.961       100            100            0.0013792752  -0.00057854634  0              0.0047163718   6.4197287e-14  0              6.1997145e-09  1.1965779e-13  0              2.9984814    
   2300000   6363.961       100            100            0.0013792747  -0.00057854629  0              0.0047163704   1.9560063e-13  0              1.8889708e-08  1.1965779e-13  0              2.9984814    
   2400000   6363.961       100            100            0.0013792748  -0.0005785463   0              0.0047163706   3.9834559e-14  0              3.8469366e-09  1.1965779e-13  0              2.9984814    
   2500000   6363.961       100            100            0.0013792748  -0.0005785463   0              0.0047163707   1.7821149e-16  0              1.721039e-11   1.1965779e-13  0              2.9984814    
   2600000   6363.961       100            100            0.0013792748  -0.0005785463   0              0.0047163706   5.1087085e-16  0              4.933625e-11   1.1965779e-13  0              2.9984814    
   2700000   6363.961       100            100            0.0013792748  -0.0005785463   0              0.0047163707   9.7533445e-17  0              9.419082e-12   1.1965779e-13  0              2.9984814    
   2800000   6363.961       100            100            0.0013792748  -0.0005785463   0              0.0047163707   9.585222e-18   0              9.2567214e-13  1.1965779e-13  0              2.9984814    
   2900000   6363.961       100            100            0.0013792748  -0.0005785463   0              0.0047163707   1.2682096e-18  0              1.224746e-13   1.1965779e-13  0              2.9984814    
   3000000   6363.961       100            100            0.0013792748  -0.00057854631  0              0.0047163707   2.8654908e-18  0              2.767286e-13   1.1965779e-13  0              2.9984814    
Loop time of 334.007 on 2 procs for 3000000 steps with 2501 atoms

Performance: 7760307.190 ns/day, 0.000 hours/ns, 8981.837 timesteps/s
100.0% CPU use with 2 MPI tasks x 1 OpenMP threads

MPI task timing breakdown:
Section |  min time  |  avg time  |  max time  |%varavg| %total
---------------------------------------------------------------
Pair    | 81.528     | 81.852     | 82.176     |   3.6 | 24.51
Neigh   | 0.94374    | 0.94384    | 0.94395    |   0.0 |  0.28
Comm    | 11.491     | 11.816     | 12.141     |   9.4 |  3.54
Output  | 0.27828    | 0.27832    | 0.27836    |   0.0 |  0.08
Modify  | 213.92     | 213.95     | 213.98     |   0.2 | 64.06
Other   |            | 25.17      |            |       |  7.54

Nlocal:         1250.5 ave        1251 max        1250 min
Histogram: 1 0 0 0 0 0 0 0 0 1
Nghost:            2.5 ave           3 max           2 min
Histogram: 1 0 0 0 0 0 0 0 0 1
Neighs:          684.5 ave         685 max         684 min
Histogram: 1 0 0 0 0 0 0 0 0 1

Total # of neighbors = 1369
Ave neighs/atom = 0.54738105
Neighbor list builds = 70
Dangerous builds = 0
  using 1 OpenMP thread(s) per MPI task
Lattice spacing in x,y,z = 4.2426407 4.2426407 4.2426407
Created orthogonal box = (-3181.9805 -50 -50) to (3181.9805 50 50)
  2 by 1 by 1 MPI processor grid
Created 1500 atoms
  using lattice units in orthogonal box = (-3181.9805 -50 -50) to (3181.9805 50 50)
  create_atoms CPU = 0.001 seconds
Lattice spacing in x,y,z = 3 3 3
Created 1001 atoms
  using lattice units in orthogonal box = (-3181.9805 -50 -50) to (3181.9805 50 50)
  create_atoms CPU = 0.001 seconds
Setting atom values ...
  1500 settings made for diameter
Setting atom values ...
  1500 settings made for mass
Setting atom values ...
  1001 settings made for diameter
Setting atom values ...
  1001 settings made for mass
1500 atoms in group substrate
1001 atoms in group slider1
2501 atoms in group substrate_slider
  1 rigid bodies with 1001 atoms
Generated 0 of 1 mixed pair_coeff terms from geometric mixing rule
Neighbor list info ...
  update every 1 steps, delay 0 steps, check yes
  max neighbors/atom: 2000, page size: 100000
  master list distance cutoff = 3.1
  ghost atom cutoff = 3.1
  binsize = 1.55, bins = 4106 65 65
  1 neighbor lists, perpetual/occasional/extra = 1 0 0
  (1) pair granular, perpetual
      attributes: half, newton on, size, history
      pair build: half/size/bin/newton
      stencil: half/bin/3d
      bin: standard
Setting up Verlet run ...
  Unit style    : micro
  Current step  : 0
  Time step     : 1e-05
Per MPI rank memory allocation (min/avg/max) = 51.25 | 51.25 | 51.25 Mbytes
   Step           Lx             Ly             Lz           Press           Pxx            Pyy            Pzz           KinEng         PotEng          Temp          c_1[1]         c_1[2]         c_1[3]    
         0   6363.961       100            100            0              0              0              0              0              0              0              1.1965779e-13  0              6            
    100000   6363.961       100            100            0.0038582235   0              0              0.011574671    67676.576      0              6.5357193e+09  1.1965779e-13  0              4.6311076    
    200000   6363.961       100            100           -0.00043648784  6.3466266e-35  0             -0.0013094635   2894.803       0              2.7955935e+08  1.1965779e-13  0              3.318719     
    300000   6363.961       100            100            0.0010591773  -2.5386402e-35  0              0.003177532    13556.93       0              1.3092313e+09  1.1965779e-13  0              3.0135023    
    400000   6363.961       100            100           -0.00037344306  6.8509504e-41  0             -0.0011203292   2602.3686      0              2.5131813e+08  1.1965779e-13  0              3.0045158    
    500000   6363.961       100            100            0.0087636352  -0.0045426558   0              0.030833562    322.41443      0              31136478       1.1965779e-13  0              2.996149     
    600000   6363.961       100            100            0.00051810734  4.5139692e-05  0              0.0015091823   63.210441      0              6104412        1.1965779e-13  0              2.9990896    
    700000   6363.961       100            100            0.0011502605  -0.00059670905  0              0.0040474905   1.8899499      0              182517.83      1.1965779e-13  0              2.9985993    
    800000   6363.961       100            100            0.0024506256  -0.0010595341   0              0.008411411    0.00028103184  0              27.140043      1.1965779e-13  0              2.9979723    
    900000   6363.961       100            100            0.0018265992  -0.0011233274   0              0.006603125    0.0042187644   0              407.41807      1.1965779e-13  0              2.9982024    
   1000000   6363.961       100            100            0.002044137   -0.0011162054   0              0.0072486164   0.0010203339   0              98.536548      1.1965779e-13  0              2.9981174    
   1100000   6363.961       100            100            0.0019671548  -0.0011086128   0              0.0070100773   0.00018868642  0              18.221983      1.1965779e-13  0              2.9981483    
   1200000   6363.961       100            100            0.0019953784  -0.0011109534   0              0.0070970886   3.3513901e-05  0              3.2365327      1.1965779e-13  0              2.998137     
   1300000   6363.961       100            100            0.0019850434  -0.0011100942   0              0.0070652245   5.7140644e-06  0              0.55182344     1.1965779e-13  0              2.9981411    
   1400000   6363.961       100            100            0.0019888195  -0.0011104075   0              0.0070768659   9.5146993e-07  0              0.091886155    1.1965779e-13  0              2.9981396    
   1500000   6363.961       100            100            0.0019874401  -0.0011102931   0              0.0070726133   1.5502237e-07  0              0.014970951    1.1965779e-13  0              2.9981402    
   1600000   6363.961       100            100            0.0019879435  -0.0011103348   0              0.0070741653   2.4831765e-08  0              0.0023980742   1.1965779e-13  0              2.99814      
   1700000   6363.961       100            100            0.0019877599  -0.0011103196   0              0.0070735993   3.919543e-09   0              0.00037852141  1.1965779e-13  0              2.99814      
   1800000   6363.961       100            100            0.0019878268  -0.0011103251   0              0.0070738056   6.1100789e-10  0              5.9006768e-05  1.1965779e-13  0              2.99814      
   1900000   6363.961       100            100            0.0019878024  -0.0011103231   0              0.0070737304   9.4221109e-11  0              9.0992003e-06  1.1965779e-13  0              2.99814      
   2000000   6363.961       100            100            0.0019878113  -0.0011103238   0              0.0070737578   1.4392217e-11  0              1.3898973e-06  1.1965779e-13  0              2.99814      
   2100000   6363.961       100            100            0.0019878081  -0.0011103236   0              0.0070737478   2.1802563e-12  0              2.1055355e-07  1.1965779e-13  0              2.99814      
   2200000   6363.961       100            100            0.0019878093  -0.0011103237   0              0.0070737514   3.2830892e-13  0              3.1705726e-08  1.1965779e-13  0              2.99814      
   2300000   6363.961       100            100            0.0019878088  -0.0011103236   0              0.0070737501   4.8979622e-14  0              4.7301013e-09  1.1965779e-13  0              2.99814      
   2400000   6363.961       100            100            0.001987809   -0.0011103237   0              0.0070737506   7.3553594e-15  0              7.1032796e-10  1.1965779e-13  0              2.99814      
   2500000   6363.961       100            100            0.0019878089  -0.0011103237   0              0.0070737504   1.1097052e-15  0              1.0716738e-10  1.1965779e-13  0              2.99814      
   2600000   6363.961       100            100            0.0019878089  -0.0011103237   0              0.0070737505   1.8930596e-16  0              1.8281815e-11  1.1965779e-13  0              2.99814      
   2700000   6363.961       100            100            0.0019878089  -0.0011103237   0              0.0070737505   3.9296032e-18  0              3.7949295e-13  1.1965779e-13  0              2.99814      
   2800000   6363.961       100            100            0.0019878089  -0.0011103237   0              0.0070737505   3.4367295e-18  0              3.3189473e-13  1.1965779e-13  0              2.99814      
   2900000   6363.961       100            100            0.0019878089  -0.0011103237   0              0.0070737505   5.7152409e-18  0              5.5193705e-13  1.1965779e-13  0              2.99814      
   3000000   6363.961       100            100            0.0019878089  -0.0011103236   0              0.0070737505   3.6502463e-18  0              3.5251466e-13  1.1965779e-13  0              2.99814      
Loop time of 339.988 on 2 procs for 3000000 steps with 2501 atoms

Performance: 7623808.278 ns/day, 0.000 hours/ns, 8823.852 timesteps/s
99.9% CPU use with 2 MPI tasks x 1 OpenMP threads

MPI task timing breakdown:
Section |  min time  |  avg time  |  max time  |%varavg| %total
---------------------------------------------------------------
Pair    | 81.45      | 82.927     | 84.403     |  16.2 | 24.39
Neigh   | 1.0029     | 1.003      | 1.003      |   0.0 |  0.30
Comm    | 11.081     | 12.566     | 14.05      |  41.9 |  3.70
Output  | 0.30796    | 0.30802    | 0.30807    |   0.0 |  0.09
Modify  | 217.04     | 217.19     | 217.35     |   1.1 | 63.88
Other   |            | 25.99      |            |       |  7.64

Nlocal:         1250.5 ave        1251 max        1250 min
Histogram: 1 0 0 0 0 0 0 0 0 1
Nghost:            2.5 ave           3 max           2 min
Histogram: 1 0 0 0 0 0 0 0 0 1
Neighs:          684.5 ave         685 max         684 min
Histogram: 1 0 0 0 0 0 0 0 0 1

Total # of neighbors = 1369
Ave neighs/atom = 0.54738105
Neighbor list builds = 78
Dangerous builds = 0
  using 1 OpenMP thread(s) per MPI task
Lattice spacing in x,y,z = 4.2426407 4.2426407 4.2426407
Created orthogonal box = (-3181.9805 -50 -50) to (3181.9805 50 50)
  2 by 1 by 1 MPI processor grid
Created 1500 atoms
  using lattice units in orthogonal box = (-3181.9805 -50 -50) to (3181.9805 50 50)
  create_atoms CPU = 0.001 seconds
Lattice spacing in x,y,z = 3 3 3
Created 1001 atoms
  using lattice units in orthogonal box = (-3181.9805 -50 -50) to (3181.9805 50 50)
  create_atoms CPU = 0.001 seconds
Setting atom values ...
  1500 settings made for diameter
Setting atom values ...
  1500 settings made for mass
Setting atom values ...
  1001 settings made for diameter
Setting atom values ...
  1001 settings made for mass
1500 atoms in group substrate
1001 atoms in group slider1
2501 atoms in group substrate_slider
  1 rigid bodies with 1001 atoms
Generated 0 of 1 mixed pair_coeff terms from geometric mixing rule
Neighbor list info ...
  update every 1 steps, delay 0 steps, check yes
  max neighbors/atom: 2000, page size: 100000
  master list distance cutoff = 3.1
  ghost atom cutoff = 3.1
  binsize = 1.55, bins = 4106 65 65
  1 neighbor lists, perpetual/occasional/extra = 1 0 0
  (1) pair granular, perpetual
      attributes: half, newton on, size, history
      pair build: half/size/bin/newton
      stencil: half/bin/3d
      bin: standard
Setting up Verlet run ...
  Unit style    : micro
  Current step  : 0
  Time step     : 1e-05
Per MPI rank memory allocation (min/avg/max) = 51.25 | 51.25 | 51.25 Mbytes
   Step           Lx             Ly             Lz           Press           Pxx            Pyy            Pzz           KinEng         PotEng          Temp          c_1[1]         c_1[2]         c_1[3]    
         0   6363.961       100            100            0              0              0              0              0              0              0              1.1965779e-13  0              6            
    100000   6363.961       100            100            0.0050456693   0              0              0.015137008    120313.91      0              1.1619056e+10  1.1965779e-13  0              4.1748102    
    200000   6363.961       100            100            0.0016140277   3.8079771e-35  0              0.0048420831   25193.219      0              2.4329807e+09  1.1965779e-13  0              3.2541282    
    300000   6363.961       100            100            0.00092983239  3.1733134e-36  0              0.0027894972   10660.858      0              1.0295493e+09  1.1965779e-13  0              3.0314966    
    400000   6363.961       100            100            0.00065100806  3.9079007e-06  0              0.0019491163   3614.5174      0              3.4906422e+08  1.1965779e-13  0              2.9995529    
    500000   6363.961       100            100            0.0034660061  -0.0045001862   0              0.014898204    714.97913      0              69047567       1.1965779e-13  0              2.9972518    
    600000   6363.961       100            100            0.0056551394  -0.0025716925   0              0.019537111    19.834521      0              1915476        1.1965779e-13  0              2.9969076    
    700000   6363.961       100            100            0.0025954446  -0.0014307295   0              0.0092170632   15.68235       0              1514489.1      1.1965779e-13  0              2.9978668    
    800000   6363.961       100            100            0.0022400698  -0.0015421501   0              0.0082623596   0.3800175      0              36699.37       1.1965779e-13  0              2.997992     
    900000   6363.961       100            100            0.0027686888  -0.0015449074   0              0.0098509738   0.080846984    0              7807.623       1.1965779e-13  0              2.9978068    
   1000000   6363.961       100            100            0.0026339356  -0.0015143243   0              0.009416131    0.038567874    0              3724.6092      1.1965779e-13  0              2.9978542    
   1100000   6363.961       100            100            0.0026250451  -0.0015055802   0              0.0093807155   0.0021504843   0              207.67838      1.1965779e-13  0              2.9978589    
   1200000   6363.961       100            100            0.0026487697  -0.0015080836   0              0.0094543927   4.0657684e-05  0              3.9264281      1.1965779e-13  0              2.9978505    
   1300000   6363.961       100            100            0.0026400083  -0.0015072396   0              0.0094272644   8.1695527e-05  0              7.8895693      1.1965779e-13  0              2.9978535    
   1400000   6363.961       100            100            0.0026406016  -0.0015072897   0              0.0094290945   9.4074767e-06  0              0.90850676     1.1965779e-13  0              2.9978533    
   1500000   6363.961       100            100            0.0026415261  -0.001507385    0              0.0094319633   1.2502775e-08  0              0.0012074285   1.1965779e-13  0              2.997853     
   1600000   6363.961       100            100            0.0026410442  -0.001507337    0              0.0094304695   1.338066e-07   0              0.012922084    1.1965779e-13  0              2.9978531    
   1700000   6363.961       100            100            0.0026411287  -0.001507345    0              0.0094307311   3.0304281e-08  0              0.0029265706   1.1965779e-13  0              2.9978531    
   1800000   6363.961       100            100            0.0026411571  -0.001507348    0              0.0094308192   6.8827363e-10  0              6.6468541e-05  1.1965779e-13  0              2.9978531    
   1900000   6363.961       100            100            0.0026411333  -0.0015073456   0              0.0094307456   1.4682031e-10  0              1.4178855e-05  1.1965779e-13  0              2.9978531    
   2000000   6363.961       100            100            0.0026411398  -0.0015073462   0              0.0094307657   7.761965e-11   0              7.4959503e-06  1.1965779e-13  0              2.9978531    
   2100000   6363.961       100            100            0.0026411402  -0.0015073463   0              0.0094307669   4.8056368e-12  0              4.6409401e-07  1.1965779e-13  0              2.9978531    
   2200000   6363.961       100            100            0.0026411392  -0.0015073462   0              0.0094307637   5.6566266e-14  0              5.4627651e-09  1.1965779e-13  0              2.9978531    
   2300000   6363.961       100            100            0.0026411396  -0.0015073462   0              0.0094307649   1.5929233e-13  0              1.5383313e-08  1.1965779e-13  0              2.9978531    
   2400000   6363.961       100            100            0.0026411395  -0.0015073462   0              0.0094307648   1.9984791e-14  0              1.9299881e-09  1.1965779e-13  0              2.9978531    
   2500000   6363.961       100            100            0.0026411395  -0.0015073462   0              0.0094307647   6.0323206e-17  0              5.8255835e-12  1.1965779e-13  0              2.9978531    
   2600000   6363.961       100            100            0.0026411395  -0.0015073462   0              0.0094307647   2.5011695e-16  0              2.4154504e-11  1.1965779e-13  0              2.9978531    
   2700000   6363.961       100            100            0.0026411395  -0.0015073462   0              0.0094307647   6.9226097e-17  0              6.6853609e-12  1.1965779e-13  0              2.9978531    
   2800000   6363.961       100            100            0.0026411395  -0.0015073462   0              0.0094307647   9.0446604e-19  0              8.7346856e-14  1.1965779e-13  0              2.9978531    
   2900000   6363.961       100            100            0.0026411395  -0.0015073462   0              0.0094307647   6.8429737e-19  0              6.6084542e-14  1.1965779e-13  0              2.9978531    
   3000000   6363.961       100            100            0.0026411395  -0.0015073462   0              0.0094307647   3.9586742e-19  0              3.8230042e-14  1.1965779e-13  0              2.9978531    
Loop time of 334.64 on 2 procs for 3000000 steps with 2501 atoms

Performance: 7745633.438 ns/day, 0.000 hours/ns, 8964.854 timesteps/s
99.9% CPU use with 2 MPI tasks x 1 OpenMP threads

MPI task timing breakdown:
Section |  min time  |  avg time  |  max time  |%varavg| %total
---------------------------------------------------------------
Pair    | 82.69      | 82.876     | 83.061     |   2.0 | 24.77
Neigh   | 1.1466     | 1.1466     | 1.1467     |   0.0 |  0.34
Comm    | 11.704     | 11.904     | 12.105     |   5.8 |  3.56
Output  | 0.26225    | 0.26228    | 0.26232    |   0.0 |  0.08
Modify  | 214.13     | 214.13     | 214.13     |   0.0 | 63.99
Other   |            | 24.32      |            |       |  7.27

Nlocal:         1250.5 ave        1251 max        1250 min
Histogram: 1 0 0 0 0 0 0 0 0 1
Nghost:            2.5 ave           3 max           2 min
Histogram: 1 0 0 0 0 0 0 0 0 1
Neighs:          684.5 ave         685 max         684 min
Histogram: 1 0 0 0 0 0 0 0 0 1

Total # of neighbors = 1369
Ave neighs/atom = 0.54738105
Neighbor list builds = 86
Dangerous builds = 0
  using 1 OpenMP thread(s) per MPI task
Lattice spacing in x,y,z = 4.2426407 4.2426407 4.2426407
Created orthogonal box = (-3181.9805 -50 -50) to (3181.9805 50 50)
  2 by 1 by 1 MPI processor grid
Created 1500 atoms
  using lattice units in orthogonal box = (-3181.9805 -50 -50) to (3181.9805 50 50)
  create_atoms CPU = 0.001 seconds
Lattice spacing in x,y,z = 3 3 3
Created 1001 atoms
  using lattice units in orthogonal box = (-3181.9805 -50 -50) to (3181.9805 50 50)
  create_atoms CPU = 0.001 seconds
Setting atom values ...
  1500 settings made for diameter
Setting atom values ...
  1500 settings made for mass
Setting atom values ...
  1001 settings made for diameter
Setting atom values ...
  1001 settings made for mass
1500 atoms in group substrate
1001 atoms in group slider1
2501 atoms in group substrate_slider
  1 rigid bodies with 1001 atoms
Generated 0 of 1 mixed pair_coeff terms from geometric mixing rule
Neighbor list info ...
  update every 1 steps, delay 0 steps, check yes
  max neighbors/atom: 2000, page size: 100000
  master list distance cutoff = 3.1
  ghost atom cutoff = 3.1
  binsize = 1.55, bins = 4106 65 65
  1 neighbor lists, perpetual/occasional/extra = 1 0 0
  (1) pair granular, perpetual
      attributes: half, newton on, size, history
      pair build: half/size/bin/newton
      stencil: half/bin/3d
      bin: standard
Setting up Verlet run ...
  Unit style    : micro
  Current step  : 0
  Time step     : 1e-05
Per MPI rank memory allocation (min/avg/max) = 51.25 | 51.25 | 51.25 Mbytes
   Step           Lx             Ly             Lz           Press           Pxx            Pyy            Pzz           KinEng         PotEng          Temp          c_1[1]         c_1[2]         c_1[3]    
         0   6363.961       100            100            0              0              0              0              0              0              0              1.1965779e-13  0              6            
    100000   6363.961       100            100            0.0061838006   0              0              0.018551402    187990.49      0              1.8154776e+10  1.1965779e-13  0              3.7185127    
    200000   6363.961       100            100           -0.0012436186   1.0897751e-40  0             -0.0037308559   46439.329      0              4.484778e+09   1.1965779e-13  0              3.0711076    
    300000   6363.961       100            100            0.00036155646 -3.1733105e-36  0              0.0010846694   1827.0567      0              1.7644406e+08  1.1965779e-13  0              3.0652527    
    400000   6363.961       100            100           -0.00015967338  1.0154613e-34  0             -0.00047902014  434.52663      0              41963472       1.1965779e-13  0              3.0123726    
    500000   6363.961       100            100            0.00014446633  2.5386594e-35  0              0.000433399    323.90256      0              31280191       1.1965779e-13  0              3.0003018    
    600000   6363.961       100            100            0.0019254039  -0.00073487812  0              0.0065110898   77.574997      0              7491638        1.1965779e-13  0              2.9982441    
    700000   6363.961       100            100            0.0023775913  -0.0019357829   0              0.0090685568   6.8159281      0              658233.55      1.1965779e-13  0              2.9979017    
    800000   6363.961       100            100            0.0031464574  -0.0018087121   0              0.011248084    1.7837244      0              172259.34      1.1965779e-13  0              2.9976597    
    900000   6363.961       100            100            0.0033197787  -0.0019314985   0              0.011890835    0.27612332     0              26666.013      1.1965779e-13  0              2.9975923    
   1000000   6363.961       100            100            0.0033396302  -0.001910499    0              0.01192939     0.017673255    0              1706.7564      1.1965779e-13  0              2.9975875    
   1100000   6363.961       100            100            0.0033165935  -0.0019073718   0              0.011857152    5.2018614e-05  0              5.0235854      1.1965779e-13  0              2.9975944    
   1200000   6363.961       100            100            0.0033010991  -0.0019060159   0              0.011809313    0.00018765056  0              18.121948      1.1965779e-13  0              2.9975992    
   1300000   6363.961       100            100            0.0032951499  -0.0019054723   0              0.011790922    8.1671873e-05  0              7.8872849      1.1965779e-13  0              2.9976011    
   1400000   6363.961       100            100            0.0032937374  -0.0019053387   0              0.011786551    1.2046066e-05  0              1.1633229      1.1965779e-13  0              2.9976015    
   1500000   6363.961       100            100            0.0032937088  -0.0019053342   0              0.011786461    6.7702626e-07  0              0.06538235     1.1965779e-13  0              2.9976015    
   1600000   6363.961       100            100            0.0032938827  -0.0019053495   0              0.011786998    2.4447569e-10  0              2.3609713e-05  1.1965779e-13  0              2.9976015    
   1700000   6363.961       100            100            0.003293989   -0.0019053592   0              0.011787326    1.0390891e-08  0              0.0010034779   1.1965779e-13  0              2.9976014    
   1800000   6363.961       100            100            0.0032940281  -0.0019053628   0              0.011787447    3.8598088e-09  0              0.00037275271  1.1965779e-13  0              2.9976014    
   1900000   6363.961       100            100            0.0032940367  -0.0019053637   0              0.011787474    5.2025557e-10  0              5.0242559e-05  1.1965779e-13  0              2.9976014    
   2000000   6363.961       100            100            0.0032940366  -0.0019053636   0              0.011787473    2.5374565e-11  0              2.4504938e-06  1.1965779e-13  0              2.9976014    
   2100000   6363.961       100            100            0.0032940353  -0.0019053635   0              0.011787469    1.3222114e-14  0              1.2768971e-09  1.1965779e-13  0              2.9976014    
   2200000   6363.961       100            100            0.0032940345  -0.0019053635   0              0.011787467    5.5917232e-13  0              5.400086e-08   1.1965779e-13  0              2.9976014    
   2300000   6363.961       100            100            0.0032940343  -0.0019053634   0              0.011787466    1.8054287e-13  0              1.7435538e-08  1.1965779e-13  0              2.9976014    
   2400000   6363.961       100            100            0.0032940342  -0.0019053634   0              0.011787466    2.2244341e-14  0              2.1481992e-09  1.1965779e-13  0              2.9976014    
   2500000   6363.961       100            100            0.0032940342  -0.0019053634   0              0.011787466    8.942725e-16   0              8.6362437e-11  1.1965779e-13  0              2.9976014    
   2600000   6363.961       100            100            0.0032940343  -0.0019053634   0              0.011787466    5.1102094e-18  0              4.9350745e-13  1.1965779e-13  0              2.9976014    
   2700000   6363.961       100            100            0.0032940343  -0.0019053634   0              0.011787466    4.7012806e-17  0              4.5401603e-12  1.1965779e-13  0              2.9976014    
   2800000   6363.961       100            100            0.0032940343  -0.0019053634   0              0.011787466    1.0289852e-17  0              9.9372022e-13  1.1965779e-13  0              2.9976014    
   2900000   6363.961       100            100            0.0032940343  -0.0019053634   0              0.011787466    9.5594282e-21  0              9.2318115e-16  1.1965779e-13  0              2.9976014    
   3000000   6363.961       100            100            0.0032940343  -0.0019053634   0              0.011787466    2.4779539e-19  0              2.3930305e-14  1.1965779e-13  0              2.9976014    
Loop time of 335.281 on 2 procs for 3000000 steps with 2501 atoms

Performance: 7730838.190 ns/day, 0.000 hours/ns, 8947.729 timesteps/s
100.0% CPU use with 2 MPI tasks x 1 OpenMP threads

MPI task timing breakdown:
Section |  min time  |  avg time  |  max time  |%varavg| %total
---------------------------------------------------------------
Pair    | 81.459     | 81.572     | 81.684     |   1.2 | 24.33
Neigh   | 1.2315     | 1.2315     | 1.2316     |   0.0 |  0.37
Comm    | 12.752     | 13.004     | 13.256     |   7.0 |  3.88
Output  | 0.26072    | 0.26076    | 0.26081    |   0.0 |  0.08
Modify  | 214.58     | 214.7      | 214.83     |   0.9 | 64.04
Other   |            | 24.51      |            |       |  7.31

Nlocal:         1250.5 ave        1251 max        1250 min
Histogram: 1 0 0 0 0 0 0 0 0 1
Nghost:            2.5 ave           3 max           2 min
Histogram: 1 0 0 0 0 0 0 0 0 1
Neighs:          684.5 ave         685 max         684 min
Histogram: 1 0 0 0 0 0 0 0 0 1

Total # of neighbors = 1369
Ave neighs/atom = 0.54738105
Neighbor list builds = 94
Dangerous builds = 0
  using 1 OpenMP thread(s) per MPI task
Lattice spacing in x,y,z = 4.2426407 4.2426407 4.2426407
Created orthogonal box = (-3181.9805 -50 -50) to (3181.9805 50 50)
  2 by 1 by 1 MPI processor grid
Created 1500 atoms
  using lattice units in orthogonal box = (-3181.9805 -50 -50) to (3181.9805 50 50)
  create_atoms CPU = 0.001 seconds
Lattice spacing in x,y,z = 3 3 3
Created 1001 atoms
  using lattice units in orthogonal box = (-3181.9805 -50 -50) to (3181.9805 50 50)
  create_atoms CPU = 0.001 seconds
Setting atom values ...
  1500 settings made for diameter
Setting atom values ...
  1500 settings made for mass
Setting atom values ...
  1001 settings made for diameter
Setting atom values ...
  1001 settings made for mass
1500 atoms in group substrate
1001 atoms in group slider1
2501 atoms in group substrate_slider
  1 rigid bodies with 1001 atoms
Generated 0 of 1 mixed pair_coeff terms from geometric mixing rule
Neighbor list info ...
  update every 1 steps, delay 0 steps, check yes
  max neighbors/atom: 2000, page size: 100000
  master list distance cutoff = 3.1
  ghost atom cutoff = 3.1
  binsize = 1.55, bins = 4106 65 65
  1 neighbor lists, perpetual/occasional/extra = 1 0 0
  (1) pair granular, perpetual
      attributes: half, newton on, size, history
      pair build: half/size/bin/newton
      stencil: half/bin/3d
      bin: standard
Setting up Verlet run ...
  Unit style    : micro
  Current step  : 0
  Time step     : 1e-05
Per MPI rank memory allocation (min/avg/max) = 51.25 | 51.25 | 51.25 Mbytes
   Step           Lx             Ly             Lz           Press           Pxx            Pyy            Pzz           KinEng         PotEng          Temp          c_1[1]         c_1[2]         c_1[3]    
         0   6363.961       100            100            0              0              0              0              0              0              0              1.1965779e-13  0              6            
    100000   6363.961       100            100            0.0072726176   0              0              0.021817853    270706.3       0              2.6142877e+10  1.1965779e-13  0              3.2622153    
    200000   6363.961       100            100           -0.00015945879  1.5231916e-34  0             -0.00047837638  369.02227      0              35637530       1.1965779e-13  0              3.2504148    
    300000   6363.961       100            100           -0.00050460793  5.0253112e-40  0             -0.0015138238   4878.9692      0              4.7117592e+08  1.1965779e-13  0              3.0429988    
    400000   6363.961       100            100            0.00014400946 -5.0772463e-35  0              0.00043202839  319.55051      0              30859901       1.1965779e-13  0              3.0122069    
    500000   6363.961       100            100            0.0054984495  -0.0022923228   0              0.018787671    814.03502      0              78613676       1.1965779e-13  0              2.997032     
    600000   6363.961       100            100            0.0021176527  -0.001096374    0              0.0074493322   63.60776       0              6142782.2      1.1965779e-13  0              2.9981158    
    700000   6363.961       100            100            0.0040146968  -0.0025089407   0              0.014553031    15.956711      0              1540984.9      1.1965779e-13  0              2.9973286    
    800000   6363.961       100            100            0.0043076152  -0.0024508492   0              0.015373695    0.76284957     0              73670.552      1.1965779e-13  0              2.9972654    
    900000   6363.961       100            100            0.0037612043  -0.00240134     0              0.013684953    0.082338701    0              7951.6824      1.1965779e-13  0              2.9974179    
   1000000   6363.961       100            100            0.0038952585  -0.0024162664   0              0.014102042    0.038209814    0              3690.0304      1.1965779e-13  0              2.997378     
   1100000   6363.961       100            100            0.0039324391  -0.0024199065   0              0.014217224    0.00013190921  0              12.738848      1.1965779e-13  0              2.9973678    
   1200000   6363.961       100            100            0.0039046045  -0.0024171127   0              0.014130926    0.00055311894  0              53.416268      1.1965779e-13  0              2.9973758    
   1300000   6363.961       100            100            0.0039066386  -0.0024173479   0              0.014137264    5.6045179e-05  0              5.4124423      1.1965779e-13  0              2.9973751    
   1400000   6363.961       100            100            0.003909878   -0.0024176766   0              0.014147311    1.6578345e-06  0              0.16010179     1.1965779e-13  0              2.9973742    
   1500000   6363.961       100            100            0.003908786   -0.002417562    0              0.01414392     1.7848255e-06  0              0.17236567     1.1965779e-13  0              2.9973745    
   1600000   6363.961       100            100            0.0039086241  -0.0024175466   0              0.014143419    2.6636767e-08  0              0.0025723883   1.1965779e-13  0              2.9973746    
   1700000   6363.961       100            100            0.0039088124  -0.0024175659   0              0.014144003    1.9388473e-08  0              0.0018723999   1.1965779e-13  0              2.9973745    
   1800000   6363.961       100            100            0.0039087868  -0.0024175631   0              0.014143923    3.2688717e-09  0              0.00031568423  1.1965779e-13  0              2.9973745    
   1900000   6363.961       100            100            0.0039087678  -0.0024175612   0              0.014143865    1.9169459e-11  0              1.8512491e-06  1.1965779e-13  0              2.9973745    
   2000000   6363.961       100            100            0.0039087761  -0.0024175621   0              0.01414389     7.7901761e-11  0              7.5231945e-06  1.1965779e-13  0              2.9973745    
   2100000   6363.961       100            100            0.0039087765  -0.0024175621   0              0.014143892    2.6754505e-12  0              2.5837586e-07  1.1965779e-13  0              2.9973745    
   2200000   6363.961       100            100            0.0039087753  -0.002417562    0              0.014143888    6.0671757e-13  0              5.859244e-08   1.1965779e-13  0              2.9973745    
   2300000   6363.961       100            100            0.0039087756  -0.002417562    0              0.014143889    1.743159e-13   0              1.6834182e-08  1.1965779e-13  0              2.9973745    
   2400000   6363.961       100            100            0.0039087757  -0.002417562    0              0.014143889    2.3853556e-20  0              2.3036057e-15  1.1965779e-13  0              2.9973745    
   2500000   6363.961       100            100            0.0039087756  -0.002417562    0              0.014143889    3.1621677e-15  0              3.0537952e-10  1.1965779e-13  0              2.9973745    
   2600000   6363.961       100            100            0.0039087756  -0.002417562    0              0.014143889    2.2407153e-16  0              2.1639224e-11  1.1965779e-13  0              2.9973745    
   2700000   6363.961       100            100            0.0039087756  -0.002417562    0              0.014143889    3.5498422e-17  0              3.4281835e-12  1.1965779e-13  0              2.9973745    
   2800000   6363.961       100            100            0.0039087756  -0.002417562    0              0.014143889    7.8155411e-18  0              7.5476902e-13  1.1965779e-13  0              2.9973745    
   2900000   6363.961       100            100            0.0039087756  -0.002417562    0              0.014143889    2.5694061e-20  0              2.4813485e-15  1.1965779e-13  0              2.9973745    
   3000000   6363.961       100            100            0.0039087756  -0.002417562    0              0.014143889    2.2696143e-18  0              2.1918311e-13  1.1965779e-13  0              2.9973745    
Loop time of 341.023 on 2 procs for 3000000 steps with 2501 atoms

Performance: 7600671.218 ns/day, 0.000 hours/ns, 8797.073 timesteps/s
100.0% CPU use with 2 MPI tasks x 1 OpenMP threads

MPI task timing breakdown:
Section |  min time  |  avg time  |  max time  |%varavg| %total
---------------------------------------------------------------
Pair    | 87.138     | 87.24      | 87.342     |   1.1 | 25.58
Neigh   | 1.3548     | 1.3549     | 1.3551     |   0.0 |  0.40
Comm    | 12.227     | 12.343     | 12.458     |   3.3 |  3.62
Output  | 0.28317    | 0.28323    | 0.28329    |   0.0 |  0.08
Modify  | 214.47     | 214.47     | 214.48     |   0.0 | 62.89
Other   |            | 25.33      |            |       |  7.43

Nlocal:         1250.5 ave        1251 max        1250 min
Histogram: 1 0 0 0 0 0 0 0 0 1
Nghost:            2.5 ave           3 max           2 min
Histogram: 1 0 0 0 0 0 0 0 0 1
Neighs:          684.5 ave         685 max         684 min
Histogram: 1 0 0 0 0 0 0 0 0 1

Total # of neighbors = 1369
Ave neighs/atom = 0.54738105
Neighbor list builds = 100
Dangerous builds = 0
  using 1 OpenMP thread(s) per MPI task
Lattice spacing in x,y,z = 4.2426407 4.2426407 4.2426407
Created orthogonal box = (-3181.9805 -50 -50) to (3181.9805 50 50)
  2 by 1 by 1 MPI processor grid
Created 1500 atoms
  using lattice units in orthogonal box = (-3181.9805 -50 -50) to (3181.9805 50 50)
  create_atoms CPU = 0.001 seconds
Lattice spacing in x,y,z = 3 3 3
Created 1001 atoms
  using lattice units in orthogonal box = (-3181.9805 -50 -50) to (3181.9805 50 50)
  create_atoms CPU = 0.001 seconds
Setting atom values ...
  1500 settings made for diameter
Setting atom values ...
  1500 settings made for mass
Setting atom values ...
  1001 settings made for diameter
Setting atom values ...
  1001 settings made for mass
1500 atoms in group substrate
1001 atoms in group slider1
2501 atoms in group substrate_slider
  1 rigid bodies with 1001 atoms
Generated 0 of 1 mixed pair_coeff terms from geometric mixing rule
Neighbor list info ...
  update every 1 steps, delay 0 steps, check yes
  max neighbors/atom: 2000, page size: 100000
  master list distance cutoff = 3.1
  ghost atom cutoff = 3.1
  binsize = 1.55, bins = 4106 65 65
  1 neighbor lists, perpetual/occasional/extra = 1 0 0
  (1) pair granular, perpetual
      attributes: half, newton on, size, history
      pair build: half/size/bin/newton
      stencil: half/bin/3d
      bin: standard
Setting up Verlet run ...
  Unit style    : micro
  Current step  : 0
  Time step     : 1e-05
Per MPI rank memory allocation (min/avg/max) = 51.25 | 51.25 | 51.25 Mbytes
   Step           Lx             Ly             Lz           Press           Pxx            Pyy            Pzz           KinEng         PotEng          Temp          c_1[1]         c_1[2]         c_1[3]    
         0   6363.961       100            100            0              0              0              0              0              0              0              1.1965779e-13  0              6            
    100000   6363.961       100            100           -0.001359684   -5.7119624e-35  0             -0.004079052    279508.95      0              2.6992974e+10  1.1965779e-13  0              3.1024577    
    200000   6363.961       100            100            0.0013621778   1.5231929e-34  0              0.0040865333   19058.329      0              1.840517e+09   1.1965779e-13  0              3.2217395    
    300000   6363.961       100            100            0.00098410107  3.5541124e-34  0              0.0029523032   11807.079      0              1.1402432e+09  1.1965779e-13  0              3.0295445    
    400000   6363.961       100            100            0.00028726899  1.0154699e-34  0              0.00086180698  1219.0328      0              1.1772546e+08  1.1965779e-13  0              3.0087963    
    500000   6363.961       100            100            0.0010865804  -9.7002124e-05  0              0.0033567433   613.55135      0              59252398       1.1965779e-13  0              2.9988387    
    600000   6363.961       100            100            0.0051723383  -0.0033883285   0              0.018905343    119.038        0              11495838       1.1965779e-13  0              2.9969456    
    700000   6363.961       100            100            0.0039194606  -0.0027628344   0              0.014521216    13.300959      0              1284511.5      1.1965779e-13  0              2.9973322    
    800000   6363.961       100            100            0.0040235297  -0.0028795498   0              0.014950139    0.011832277    0              1142.6766      1.1965779e-13  0              2.9973014    
    900000   6363.961       100            100            0.0044639051  -0.0029468847   0              0.0163386      0.28050531     0              27089.195      1.1965779e-13  0              2.9971803    
   1000000   6363.961       100            100            0.0045700627  -0.0029579823   0              0.01666817     0.016102943    0              1555.107       1.1965779e-13  0              2.9971512    
   1100000   6363.961       100            100            0.0045376802  -0.0029547028   0              0.016567744    0.0013561667   0              130.96887      1.1965779e-13  0              2.9971594    
   1200000   6363.961       100            100            0.0045145704  -0.0029522211   0              0.016495932    0.00074070831  0              71.532307      1.1965779e-13  0              2.9971656    
   1300000   6363.961       100            100            0.0045125998  -0.0029519876   0              0.016489787    6.2530027e-06  0              0.60387024     1.1965779e-13  0              2.9971662    
   1400000   6363.961       100            100            0.0045151763  -0.0029522605   0              0.016497789    8.9315747e-06  0              0.86254755     1.1965779e-13  0              2.9971655    
   1500000   6363.961       100            100            0.00451615    -0.0029523669   0              0.016500817    1.3409516e-06  0              0.12949951     1.1965779e-13  0              2.9971652    
   1600000   6363.961       100            100            0.0045160693  -0.0029523593   0              0.016500567    7.346673e-09   0              0.0007094891   1.1965779e-13  0              2.9971653    
   1700000   6363.961       100            100            0.0045159157  -0.0029523428   0              0.01650009     3.2359183e-08  0              0.0031250183   1.1965779e-13  0              2.9971653    
   1800000   6363.961       100            100            0.0045158844  -0.0029523393   0              0.016499993    1.4288912e-09  0              0.00013799208  1.1965779e-13  0              2.9971653    
   1900000   6363.961       100            100            0.0045158966  -0.0029523406   0              0.01650003     1.9362395e-10  0              1.8698815e-05  1.1965779e-13  0              2.9971653    
   2000000   6363.961       100            100            0.0045159041  -0.0029523414   0              0.016500054    7.962005e-11   0              7.6891346e-06  1.1965779e-13  0              2.9971653    
   2100000   6363.961       100            100            0.0045159046  -0.0029523415   0              0.016500055    3.2529256e-13  0              3.1414427e-08  1.1965779e-13  0              2.9971653    
   2200000   6363.961       100            100            0.0045159037  -0.0029523414   0              0.016500052    1.0989629e-12  0              1.0612997e-07  1.1965779e-13  0              2.9971653    
   2300000   6363.961       100            100            0.0045159034  -0.0029523414   0              0.016500051    1.3294623e-13  0              1.2838995e-08  1.1965779e-13  0              2.9971653    
   2400000   6363.961       100            100            0.0045159034  -0.0029523414   0              0.016500052    1.8005113e-15  0              1.7388049e-10  1.1965779e-13  0              2.9971653    
   2500000   6363.961       100            100            0.0045159035  -0.0029523414   0              0.016500052    3.6899382e-15  0              3.5634782e-10  1.1965779e-13  0              2.9971653    
   2600000   6363.961       100            100            0.0045159035  -0.0029523414   0              0.016500052    1.2814406e-16  0              1.2375236e-11  1.1965779e-13  0              2.9971653    
   2700000   6363.961       100            100            0.0045159035  -0.0029523414   0              0.016500052    5.4648546e-17  0              5.2775654e-12  1.1965779e-13  0              2.9971653    
   2800000   6363.961       100            100            0.0045159035  -0.0029523414   0              0.016500052    3.2257577e-18  0              3.1152059e-13  1.1965779e-13  0              2.9971653    
   2900000   6363.961       100            100            0.0045159035  -0.0029523414   0              0.016500052    3.5087705e-19  0              3.3885194e-14  1.1965779e-13  0              2.9971653    
   3000000   6363.961       100            100            0.0045159035  -0.0029523414   0              0.016500052    3.1378878e-18  0              3.0303475e-13  1.1965779e-13  0              2.9971653    
Loop time of 336.537 on 2 procs for 3000000 steps with 2501 atoms

Performance: 7701969.285 ns/day, 0.000 hours/ns, 8914.316 timesteps/s
99.9% CPU use with 2 MPI tasks x 1 OpenMP threads

MPI task timing breakdown:
Section |  min time  |  avg time  |  max time  |%varavg| %total
---------------------------------------------------------------
Pair    | 81.371     | 81.628     | 81.886     |   2.9 | 24.26
Neigh   | 1.4099     | 1.41       | 1.4101     |   0.0 |  0.42
Comm    | 12.744     | 12.865     | 12.985     |   3.4 |  3.82
Output  | 0.29199    | 0.29202    | 0.29205    |   0.0 |  0.09
Modify  | 215.92     | 216.13     | 216.35     |   1.4 | 64.22
Other   |            | 24.21      |            |       |  7.19

Nlocal:         1250.5 ave        1251 max        1250 min
Histogram: 1 0 0 0 0 0 0 0 0 1
Nghost:            2.5 ave           3 max           2 min
Histogram: 1 0 0 0 0 0 0 0 0 1
Neighs:          684.5 ave         685 max         684 min
Histogram: 1 0 0 0 0 0 0 0 0 1

Total # of neighbors = 1369
Ave neighs/atom = 0.54738105
Neighbor list builds = 106
Dangerous builds = 0
  using 1 OpenMP thread(s) per MPI task
Lattice spacing in x,y,z = 4.2426407 4.2426407 4.2426407
Created orthogonal box = (-3181.9805 -50 -50) to (3181.9805 50 50)
  2 by 1 by 1 MPI processor grid
Created 1500 atoms
  using lattice units in orthogonal box = (-3181.9805 -50 -50) to (3181.9805 50 50)
  create_atoms CPU = 0.001 seconds
Lattice spacing in x,y,z = 3 3 3
Created 1001 atoms
  using lattice units in orthogonal box = (-3181.9805 -50 -50) to (3181.9805 50 50)
  create_atoms CPU = 0.001 seconds
Setting atom values ...
  1500 settings made for diameter
Setting atom values ...
  1500 settings made for mass
Setting atom values ...
  1001 settings made for diameter
Setting atom values ...
  1001 settings made for mass
1500 atoms in group substrate
1001 atoms in group slider1
2501 atoms in group substrate_slider
  1 rigid bodies with 1001 atoms
Generated 0 of 1 mixed pair_coeff terms from geometric mixing rule
Neighbor list info ...
  update every 1 steps, delay 0 steps, check yes
  max neighbors/atom: 2000, page size: 100000
  master list distance cutoff = 3.1
  ghost atom cutoff = 3.1
  binsize = 1.55, bins = 4106 65 65
  1 neighbor lists, perpetual/occasional/extra = 1 0 0
  (1) pair granular, perpetual
      attributes: half, newton on, size, history
      pair build: half/size/bin/newton
      stencil: half/bin/3d
      bin: standard
Setting up Verlet run ...
  Unit style    : micro
  Current step  : 0
  Time step     : 1e-05
Per MPI rank memory allocation (min/avg/max) = 51.25 | 51.25 | 51.25 Mbytes
   Step           Lx             Ly             Lz           Press           Pxx            Pyy            Pzz           KinEng         PotEng          Temp          c_1[1]         c_1[2]         c_1[3]    
         0   6363.961       100            100            0              0              0              0              0              0              0              1.1965779e-13  0              6            
    100000   6363.961       100            100           -0.0018866815   1.1899235e-39  0             -0.0056600445   145114.04      0              1.4014075e+10  1.1965779e-13  0              3.4211096    
    200000   6363.961       100            100            0.0029987896  -1.0154564e-34  0              0.0089963687   75682.174      0              7.3088426e+09  1.1965779e-13  0              3.0676932    
    300000   6363.961       100            100           -0.00038424314  1.2693274e-35  0             -0.0011527294   2676.2064      0              2.5844886e+08  1.1965779e-13  0              3.0477662    
    400000   6363.961       100            100            0.00027841116  1.6760028e-41  0              0.00083523349  1148.3821      0              1.1090252e+08  1.1965779e-13  0              3.0085083    
    500000   6363.961       100            100           -8.7480592e-05 -4.1414408e-07  0             -0.00026202763  136.92107      0              13222857       1.1965779e-13  0              2.9999328    
    600000   6363.961       100            100            0.0020108973  -0.0022348455   0              0.0082675373   9.560685       0              923302.52      1.1965779e-13  0              2.9979807    
    700000   6363.961       100            100            0.0065536678  -0.0036478731   0              0.023308877    1.7847972      0              172362.94      1.1965779e-13  0              2.9966286    
    800000   6363.961       100            100            0.0050217957  -0.0034262539   0              0.018491641    2.2558789      0              217856.63      1.1965779e-13  0              2.997002     
    900000   6363.961       100            100            0.0049959717  -0.0033760799   0              0.018363995    0.11678529     0              11278.287      1.1965779e-13  0              2.9970088    
   1000000   6363.961       100            100            0.005213994   -0.0034088484   0              0.01905083     0.010764045    0              1039.5145      1.1965779e-13  0              2.996954     
   1100000   6363.961       100            100            0.0051566599  -0.0033973027   0              0.018867282    0.0057627781   0              556.52786      1.1965779e-13  0              2.996969     
   1200000   6363.961       100            100            0.0051434512  -0.0033961394   0              0.018826493    5.4769028e-05  0              5.2892007      1.1965779e-13  0              2.9969721    
   1300000   6363.961       100            100            0.0051551694  -0.0033972277   0              0.018862736    6.6666388e-05  0              6.4381626      1.1965779e-13  0              2.9969692    
   1400000   6363.961       100            100            0.0051536561  -0.0033970809   0              0.018858049    1.0871762e-05  0              1.049917       1.1965779e-13  0              2.9969696    
   1500000   6363.961       100            100            0.0051524991  -0.0033969769   0              0.018854474    3.0394305e-08  0              0.0029352644   1.1965779e-13  0              2.9969699    
   1600000   6363.961       100            100            0.005153029   -0.0033970261   0              0.018856113    2.4423845e-07  0              0.023586801    1.1965779e-13  0              2.9969698    
   1700000   6363.961       100            100            0.0051530361  -0.0033970263   0              0.018856134    1.3350764e-08  0              0.0012893212   1.1965779e-13  0              2.9969698    
   1800000   6363.961       100            100            0.0051529625  -0.0033970196   0              0.018855907    1.1698576e-09  0              0.00011297648  1.1965779e-13  0              2.9969698    
   1900000   6363.961       100            100            0.0051529823  -0.0033970214   0              0.018855968    6.3632028e-10  0              6.1451258e-05  1.1965779e-13  0              2.9969698    
   2000000   6363.961       100            100            0.0051529866  -0.0033970218   0              0.018855982    6.1561907e-12  0              5.9452083e-07  1.1965779e-13  0              2.9969698    
   2100000   6363.961       100            100            0.0051529827  -0.0033970215   0              0.01885597     7.3290013e-12  0              7.0778249e-07  1.1965779e-13  0              2.9969698    
   2200000   6363.961       100            100            0.0051529833  -0.0033970215   0              0.018855971    1.2030567e-12  0              1.1618261e-07  1.1965779e-13  0              2.9969698    
   2300000   6363.961       100            100            0.0051529836  -0.0033970216   0              0.018855972    3.2611999e-15  0              3.1494334e-10  1.1965779e-13  0              2.9969698    
   2400000   6363.961       100            100            0.0051529835  -0.0033970215   0              0.018855972    2.7012164e-14  0              2.6086415e-09  1.1965779e-13  0              2.9969698    
   2500000   6363.961       100            100            0.0051529835  -0.0033970215   0              0.018855972    1.4726503e-15  0              1.4221803e-10  1.1965779e-13  0              2.9969698    
   2600000   6363.961       100            100            0.0051529835  -0.0033970215   0              0.018855972    1.2981915e-16  0              1.2537004e-11  1.1965779e-13  0              2.9969698    
   2700000   6363.961       100            100            0.0051529835  -0.0033970215   0              0.018855972    4.9800741e-17  0              4.8093991e-12  1.1965779e-13  0              2.9969698    
   2800000   6363.961       100            100            0.0051529835  -0.0033970215   0              0.018855972    1.0498006e-18  0              1.0138223e-13  1.1965779e-13  0              2.9969698    
   2900000   6363.961       100            100            0.0051529835  -0.0033970215   0              0.018855972    3.7431024e-18  0              3.6148204e-13  1.1965779e-13  0              2.9969698    
   3000000   6363.961       100            100            0.0051529835  -0.0033970216   0              0.018855972    1.2773264e-21  0              1.2335504e-16  1.1965779e-13  0              2.9969698    
Loop time of 337.617 on 2 procs for 3000000 steps with 2501 atoms

Performance: 7677334.704 ns/day, 0.000 hours/ns, 8885.804 timesteps/s
99.9% CPU use with 2 MPI tasks x 1 OpenMP threads

MPI task timing breakdown:
Section |  min time  |  avg time  |  max time  |%varavg| %total
---------------------------------------------------------------
Pair    | 83.4       | 83.711     | 84.022     |   3.4 | 24.79
Neigh   | 1.4561     | 1.4563     | 1.4565     |   0.0 |  0.43
Comm    | 12.561     | 12.822     | 13.082     |   7.3 |  3.80
Output  | 0.41505    | 0.41509    | 0.41513    |   0.0 |  0.12
Modify  | 213.76     | 214.11     | 214.46     |   2.4 | 63.42
Other   |            | 25.1       |            |       |  7.43

Nlocal:         1250.5 ave        1251 max        1250 min
Histogram: 1 0 0 0 0 0 0 0 0 1
Nghost:            2.5 ave           3 max           2 min
Histogram: 1 0 0 0 0 0 0 0 0 1
Neighs:          684.5 ave         685 max         684 min
Histogram: 1 0 0 0 0 0 0 0 0 1

Total # of neighbors = 1369
Ave neighs/atom = 0.54738105
Neighbor list builds = 112
Dangerous builds = 0
  using 1 OpenMP thread(s) per MPI task
Lattice spacing in x,y,z = 4.2426407 4.2426407 4.2426407
Created orthogonal box = (-3181.9805 -50 -50) to (3181.9805 50 50)
  2 by 1 by 1 MPI processor grid
Created 1500 atoms
  using lattice units in orthogonal box = (-3181.9805 -50 -50) to (3181.9805 50 50)
  create_atoms CPU = 0.001 seconds
Lattice spacing in x,y,z = 3 3 3
Created 1001 atoms
  using lattice units in orthogonal box = (-3181.9805 -50 -50) to (3181.9805 50 50)
  create_atoms CPU = 0.001 seconds
Setting atom values ...
  1500 settings made for diameter
Setting atom values ...
  1500 settings made for mass
Setting atom values ...
  1001 settings made for diameter
Setting atom values ...
  1001 settings made for mass
1500 atoms in group substrate
1001 atoms in group slider1
2501 atoms in group substrate_slider
  1 rigid bodies with 1001 atoms
Generated 0 of 1 mixed pair_coeff terms from geometric mixing rule
Neighbor list info ...
  update every 1 steps, delay 0 steps, check yes
  max neighbors/atom: 2000, page size: 100000
  master list distance cutoff = 3.1
  ghost atom cutoff = 3.1
  binsize = 1.55, bins = 4106 65 65
  1 neighbor lists, perpetual/occasional/extra = 1 0 0
  (1) pair granular, perpetual
      attributes: half, newton on, size, history
      pair build: half/size/bin/newton
      stencil: half/bin/3d
      bin: standard
Setting up Verlet run ...
  Unit style    : micro
  Current step  : 0
  Time step     : 1e-05
Per MPI rank memory allocation (min/avg/max) = 51.25 | 51.25 | 51.25 Mbytes
   Step           Lx             Ly             Lz           Press           Pxx            Pyy            Pzz           KinEng         PotEng          Temp          c_1[1]         c_1[2]         c_1[3]    
         0   6363.961       100            100            0              0              0              0              0              0              0              1.1965779e-13  0              6            
    100000   6363.961       100            100           -0.0017348953   2.0309357e-34  0             -0.005204686    64667.952      0              6.245168e+09   1.1965779e-13  0              3.6286818    
    200000   6363.961       100            100           -0.0013380175   3.6556605e-33  0             -0.0040140524   58563.967      0              5.6556888e+09  1.1965779e-13  0              3.0846848    
    300000   6363.961       100            100            0.0010201139  -5.0772355e-35  0              0.0030603416   12581.697      0              1.2150502e+09  1.1965779e-13  0              3.0300575    
    400000   6363.961       100            100            0.00012857366  5.0773686e-35  0              0.00038572097  256.55795      0              24776531       1.1965779e-13  0              3.009955     
    500000   6363.961       100            100            0.01526215    -0.009534897    0              0.055321346    327.24929      0              31603394       1.1965779e-13  0              2.9948161    
    600000   6363.961       100            100            0.0023727547  -0.0025395772   0              0.0096578413   2.0096421      0              194076.85      1.1965779e-13  0              2.9978237    
    700000   6363.961       100            100            0.0043483991  -0.0035607487   0              0.016605946    0.033583081    0              3243.2136      1.1965779e-13  0              2.9971565    
    800000   6363.961       100            100            0.005341589   -0.0037715808   0              0.019796348    0.82144583     0              79329.358      1.1965779e-13  0              2.996897     
    900000   6363.961       100            100            0.0057224817  -0.0038232138   0              0.020990659    0.29466037     0              28456.19       1.1965779e-13  0              2.9968041    
   1000000   6363.961       100            100            0.0058073455  -0.0038479965   0              0.021270033    0.04290043     0              4143.0165      1.1965779e-13  0              2.9967822    
   1100000   6363.961       100            100            0.0058095533  -0.0038483581   0              0.021277018    0.0027569128   0              266.2429       1.1965779e-13  0              2.9967814    
   1200000   6363.961       100            100            0.0057987356  -0.0038472579   0              0.021243465    1.5548318e-05  0              1.5015453      1.1965779e-13  0              2.9967839    
   1300000   6363.961       100            100            0.0057918765  -0.0038465366   0              0.021222166    2.1991928e-05  0              2.123823       1.1965779e-13  0              2.9967855    
   1400000   6363.961       100            100            0.0057891698  -0.0038462469   0              0.021213756    1.1435508e-05  0              1.1043596      1.1965779e-13  0              2.9967861    
   1500000   6363.961       100            100            0.0057884508  -0.0038461684   0              0.021211521    2.02167e-06    0              0.19523842     1.1965779e-13  0              2.9967863    
   1600000   6363.961       100            100            0.0057883792  -0.0038461599   0              0.021211297    1.6607507e-07  0              0.016038341    1.1965779e-13  0              2.9967863    
   1700000   6363.961       100            100            0.0057884327  -0.0038461653   0              0.021211463    3.1025732e-09  0              0.00029962431  1.1965779e-13  0              2.9967863    
   1800000   6363.961       100            100            0.0057884749  -0.0038461698   0              0.021211595    4.4790595e-10  0              4.3255551e-05  1.1965779e-13  0              2.9967863    
   1900000   6363.961       100            100            0.0057884933  -0.0038461717   0              0.021211652    4.1531086e-10  0              4.010775e-05   1.1965779e-13  0              2.9967863    
[...]
   3000000   6363.961       100            100            0.022969105   -0.020550764    0              0.089458079    3.174647e-19   0              3.0658469e-14  1.1965779e-13  0              2.9933631    
Loop time of 348.898 on 2 procs for 3000000 steps with 2501 atoms

Performance: 7429108.622 ns/day, 0.000 hours/ns, 8598.505 timesteps/s
100.0% CPU use with 2 MPI tasks x 1 OpenMP threads

MPI task timing breakdown:
Section |  min time  |  avg time  |  max time  |%varavg| %total
---------------------------------------------------------------
Pair    | 84.443     | 84.94      | 85.436     |   5.4 | 24.35
Neigh   | 2.9821     | 2.9822     | 2.9822     |   0.0 |  0.85
Comm    | 14.756     | 15.324     | 15.892     |  14.5 |  4.39
Output  | 0.26021    | 0.26023    | 0.26025    |   0.0 |  0.07
Modify  | 218.3      | 218.34     | 218.37     |   0.2 | 62.58
Other   |            | 27.05      |            |       |  7.75

Nlocal:         1250.5 ave        1251 max        1250 min
Histogram: 1 0 0 0 0 0 0 0 0 1
Nghost:            2.5 ave           3 max           2 min
Histogram: 1 0 0 0 0 0 0 0 0 1
Neighs:          687.5 ave         688 max         687 min
Histogram: 1 0 0 0 0 0 0 0 0 1

Total # of neighbors = 1375
Ave neighs/atom = 0.54978009
Neighbor list builds = 224
Dangerous builds = 0
  using 1 OpenMP thread(s) per MPI task
Lattice spacing in x,y,z = 4.2426407 4.2426407 4.2426407
Created orthogonal box = (-3181.9805 -50 -50) to (3181.9805 50 50)
  2 by 1 by 1 MPI processor grid
Created 1500 atoms
  using lattice units in orthogonal box = (-3181.9805 -50 -50) to (3181.9805 50 50)
  create_atoms CPU = 0.001 seconds
Lattice spacing in x,y,z = 3 3 3
Created 1001 atoms
  using lattice units in orthogonal box = (-3181.9805 -50 -50) to (3181.9805 50 50)
  create_atoms CPU = 0.001 seconds
Setting atom values ...
  1500 settings made for diameter
Setting atom values ...
  1500 settings made for mass
Setting atom values ...
  1001 settings made for diameter
Setting atom values ...
  1001 settings made for mass
1500 atoms in group substrate
1001 atoms in group slider1
2501 atoms in group substrate_slider
  1 rigid bodies with 1001 atoms
Generated 0 of 1 mixed pair_coeff terms from geometric mixing rule
Neighbor list info ...
  update every 1 steps, delay 0 steps, check yes
  max neighbors/atom: 2000, page size: 100000
  master list distance cutoff = 3.1
  ghost atom cutoff = 3.1
  binsize = 1.55, bins = 4106 65 65
  1 neighbor lists, perpetual/occasional/extra = 1 0 0
  (1) pair granular, perpetual
      attributes: half, newton on, size, history
      pair build: half/size/bin/newton
      stencil: half/bin/3d
      bin: standard
Setting up Verlet run ...
  Unit style    : micro
  Current step  : 0
  Time step     : 1e-05
Per MPI rank memory allocation (min/avg/max) = 51.25 | 51.25 | 51.25 Mbytes
   Step           Lx             Ly             Lz           Press           Pxx            Pyy            Pzz           KinEng         PotEng          Temp          c_1[1]         c_1[2]         c_1[3]    
         0   6363.961       100            100            0              0              0              0              0              0              0              1.1965779e-13  0              6            
    100000   6363.961       100            100            0.0045941107   1.0154768e-34  0              0.013782332    116833.76      0              1.1282968e+10  1.1965779e-13  0              3.7727228    
    200000   6363.961       100            100            0.0056329299   4.0621258e-34  0              0.01689879     195550.62      0              1.8884879e+10  1.1965779e-13  0              3.1013288    
    300000   6363.961       100            100            0.0019147736  -5.0772669e-35  0              0.0057443207   37257.215      0              3.5980351e+09  1.1965779e-13  0              3.0225739    
    400000   6363.961       100            100            0.00079643829  2.0309966e-34  0              0.0023893149   8218.7123      0              7.937044e+08   1.1965779e-13  0              3.0000288    
    500000   6363.961       100            100            0.016113637   -0.012032789    0              0.060373701    1962.3628      0              1.8951096e+08  1.1965779e-13  0              2.9946108    
    600000   6363.961       100            100            0.027419044   -0.021311232    0              0.10356836     268.309        0              25911363       1.1965779e-13  0              2.9928414    
    700000   6363.961       100            100            0.024855471   -0.020934052    0              0.095500466    37.706872      0              3641459.8      1.1965779e-13  0              2.993146     
    800000   6363.961       100            100            0.022467929   -0.020738111    0              0.088141898    0.38445884     0              37128.283      1.1965779e-13  0              2.9934119    
    900000   6363.961       100            100            0.024054077   -0.020723235    0              0.092885467    0.31110741     0              30044.527      1.1965779e-13  0              2.9932355    
   1000000   6363.961       100            100            0.023728397   -0.020656757    0              0.091841948    0.10324633     0              9970.7914      1.1965779e-13  0              2.9932746    
   1100000   6363.961       100            100            0.023666914   -0.020650009    0              0.091650749    0.0041129605   0              397.20029      1.1965779e-13  0              2.9932814    
   1200000   6363.961       100            100            0.02373837    -0.020658686    0              0.091873795    0.00024546451  0              23.705205      1.1965779e-13  0              2.9932732    
   1300000   6363.961       100            100            0.023715817   -0.020655877    0              0.091803327    0.00023650468  0              22.839929      1.1965779e-13  0              2.9932758    
   1400000   6363.961       100            100            0.023715868   -0.020655976    0              0.09180358     2.0229924e-05  0              1.9536613      1.1965779e-13  0              2.9932758    
   1500000   6363.961       100            100            0.023718918   -0.020656202    0              0.091812958    1.9186019e-08  0              0.0018528484   1.1965779e-13  0              2.9932754    
   1600000   6363.961       100            100            0.023717598   -0.020656103    0              0.091808896    4.422469e-07   0              0.04270904     1.1965779e-13  0              2.9932756    
   1700000   6363.961       100            100            0.023717754   -0.020656116    0              0.091809378    7.1281462e-08  0              0.0068838534   1.1965779e-13  0              2.9932756    
   1800000   6363.961       100            100            0.023717865   -0.020656124    0              0.091809718    6.3228617e-10  0              6.1061673e-05  1.1965779e-13  0              2.9932755    
   1900000   6363.961       100            100            0.023717796   -0.020656119    0              0.091809507    6.3215435e-10  0              6.1048942e-05  1.1965779e-13  0              2.9932756    
   2000000   6363.961       100            100            0.023717811   -0.02065612     0              0.091809552    2.0119312e-10  0              1.9429791e-05  1.1965779e-13  0              2.9932756    
   2100000   6363.961       100            100            0.023717814   -0.02065612     0              0.091809561    7.3325694e-12  0              7.0812707e-07  1.1965779e-13  0              2.9932756    
   2200000   6363.961       100            100            0.02371781    -0.02065612     0              0.091809551    5.5716818e-13  0              5.3807315e-08  1.1965779e-13  0              2.9932756    
   2300000   6363.961       100            100            0.023717811   -0.02065612     0              0.091809554    4.6898374e-13  0              4.5291093e-08  1.1965779e-13  0              2.9932756    
   2400000   6363.961       100            100            0.023717811   -0.02065612     0              0.091809554    3.735581e-14   0              3.6075567e-09  1.1965779e-13  0              2.9932756    
   2500000   6363.961       100            100            0.023717811   -0.02065612     0              0.091809554    8.8453668e-17  0              8.5422221e-12  1.1965779e-13  0              2.9932756    
   2600000   6363.961       100            100            0.023717811   -0.02065612     0              0.091809554    8.8235246e-16  0              8.5211285e-11  1.1965779e-13  0              2.9932756    
   2700000   6363.961       100            100            0.023717811   -0.02065612     0              0.091809554    1.5652192e-16  0              1.5115766e-11  1.1965779e-13  0              2.9932756    
   2800000   6363.961       100            100            0.023717811   -0.02065612     0              0.091809554    1.2322616e-17  0              1.19003e-12    1.1965779e-13  0              2.9932756    
   2900000   6363.961       100            100            0.023717811   -0.02065612     0              0.091809554    2.1445345e-18  0              2.0710379e-13  1.1965779e-13  0              2.9932756    
   3000000   6363.961       100            100            0.023717811   -0.02065612     0              0.091809554    3.4723805e-19  0              3.3533765e-14  1.1965779e-13  0              2.9932756    
Loop time of 339.7 on 2 procs for 3000000 steps with 2501 atoms

Performance: 7630266.139 ns/day, 0.000 hours/ns, 8831.327 timesteps/s
99.9% CPU use with 2 MPI tasks x 1 OpenMP threads

MPI task timing breakdown:
Section |  min time  |  avg time  |  max time  |%varavg| %total
---------------------------------------------------------------
Pair    | 83.1       | 83.35      | 83.6       |   2.7 | 24.54
Neigh   | 2.998      | 2.9983     | 2.9987     |   0.0 |  0.88
Comm    | 13.444     | 13.651     | 13.858     |   5.6 |  4.02
Output  | 0.35922    | 0.35924    | 0.35926    |   0.0 |  0.11
Modify  | 214.32     | 214.33     | 214.34     |   0.1 | 63.09
Other   |            | 25.01      |            |       |  7.36

Nlocal:         1250.5 ave        1251 max        1250 min
Histogram: 1 0 0 0 0 0 0 0 0 1
Nghost:            2.5 ave           3 max           2 min
Histogram: 1 0 0 0 0 0 0 0 0 1
Neighs:          687.5 ave         688 max         687 min
Histogram: 1 0 0 0 0 0 0 0 0 1

Total # of neighbors = 1375
Ave neighs/atom = 0.54978009
Neighbor list builds = 226
Dangerous builds = 0
  using 1 OpenMP thread(s) per MPI task
Lattice spacing in x,y,z = 4.2426407 4.2426407 4.2426407
Created orthogonal box = (-3181.9805 -50 -50) to (3181.9805 50 50)
  2 by 1 by 1 MPI processor grid
Created 1500 atoms
  using lattice units in orthogonal box = (-3181.9805 -50 -50) to (3181.9805 50 50)
  create_atoms CPU = 0.001 seconds
Lattice spacing in x,y,z = 3 3 3
Created 1001 atoms
  using lattice units in orthogonal box = (-3181.9805 -50 -50) to (3181.9805 50 50)
  create_atoms CPU = 0.001 seconds
Setting atom values ...
  1500 settings made for diameter
Setting atom values ...
  1500 settings made for mass
Setting atom values ...
  1001 settings made for diameter
Setting atom values ...
  1001 settings made for mass
1500 atoms in group substrate
1001 atoms in group slider1
2501 atoms in group substrate_slider
  1 rigid bodies with 1001 atoms
Generated 0 of 1 mixed pair_coeff terms from geometric mixing rule
Neighbor list info ...
  update every 1 steps, delay 0 steps, check yes
  max neighbors/atom: 2000, page size: 100000
  master list distance cutoff = 3.1
  ghost atom cutoff = 3.1
  binsize = 1.55, bins = 4106 65 65
  1 neighbor lists, perpetual/occasional/extra = 1 0 0
  (1) pair granular, perpetual
      attributes: half, newton on, size, history
      pair build: half/size/bin/newton
      stencil: half/bin/3d
      bin: standard
Setting up Verlet run ...
  Unit style    : micro
  Current step  : 0
  Time step     : 1e-05
Per MPI rank memory allocation (min/avg/max) = 51.25 | 51.25 | 51.25 Mbytes
   Step           Lx             Ly             Lz           Press           Pxx            Pyy            Pzz           KinEng         PotEng          Temp          c_1[1]         c_1[2]         c_1[3]    
         0   6363.961       100            100            0              0              0              0              0              0              0              1.1965779e-13  0              6            
    100000   6363.961       100            100            0.0059754875   5.391794e-39   0              0.017926463    176828.39      0              1.707682e+10   1.1965779e-13  0              3.7515755    
    200000   6363.961       100            100            0.0076508778  -3.0463539e-34  0              0.022952633    308520.51      0              2.9794703e+10  1.1965779e-13  0              3.0438237    
    300000   6363.961       100            100            0.10205989    -0.038398489    0              0.34457816     75771.426      0              7.317462e+09   1.1965779e-13  0              2.9871015    
    400000   6363.961       100            100            0.0978518     -0.039306737    0              0.33286214     3274.1716      0              3.1619606e+08  1.1965779e-13  0              2.9871318    
    500000   6363.961       100            100            0.024997668   -0.027031837    0              0.10202484     2438.3016      0              2.3547372e+08  1.1965779e-13  0              2.9928698    
    600000   6363.961       100            100            0.028462398   -0.021479912    0              0.10686711     269.45166      0              26021713       1.1965779e-13  0              2.9927548    
    700000   6363.961       100            100            0.021371346   -0.021649138    0              0.085763175    14.902312      0              1439158.7      1.1965779e-13  0              2.9935063    
    800000   6363.961       100            100            0.023265277   -0.021328072    0              0.091123901    2.2417888      0              216495.92      1.1965779e-13  0              2.9932996    
    900000   6363.961       100            100            0.024364791   -0.021567087    0              0.09466146     0.68148882     0              65813.312      1.1965779e-13  0              2.9931703    
   1000000   6363.961       100            100            0.024388855   -0.021515306    0              0.09468187     0.00026826645  0              25.907253      1.1965779e-13  0              2.9931703    
   1100000   6363.961       100            100            0.024243316   -0.021483364    0              0.094213311    0.013154494    0              1270.3669      1.1965779e-13  0              2.9931874    
   1200000   6363.961       100            100            0.024207842   -0.021479504    0              0.094103029    0.00059346258  0              57.312368      1.1965779e-13  0              2.9931914    
   1300000   6363.961       100            100            0.024219856   -0.021480884    0              0.094140451    9.5867124e-05  0              9.2581607      1.1965779e-13  0              2.99319      
   1400000   6363.961       100            100            0.024227419   -0.021481722    0              0.094163978    3.0792372e-05  0              2.9737069      1.1965779e-13  0              2.9931891    
   1500000   6363.961       100            100            0.024227554   -0.021481732    0              0.094164393    1.0244549e-09  0              9.893452e-05   1.1965779e-13  0              2.9931891    
   1600000   6363.961       100            100            0.024226567   -0.021481621    0              0.094161322    5.6913459e-07  0              0.054962945    1.1965779e-13  0              2.9931892    
   1700000   6363.961       100            100            0.02422632    -0.021481595    0              0.094160554    2.9083038e-08  0              0.0028086316   1.1965779e-13  0              2.9931893    
   1800000   6363.961       100            100            0.024226395   -0.021481603    0              0.09416079     3.8477939e-09  0              0.0003715924   1.1965779e-13  0              2.9931892    
   1900000   6363.961       100            100            0.024226446   -0.021481609    0              0.094160947    1.3937996e-09  0              0.00013460319  1.1965779e-13  0              2.9931892    
   2000000   6363.961       100            100            0.024226448   -0.021481609    0              0.094160952    9.1190663e-14  0              8.8065415e-09  1.1965779e-13  0              2.9931892    
   2100000   6363.961       100            100            0.024226441   -0.021481608    0              0.094160932    2.4556531e-11  0              2.371494e-06   1.1965779e-13  0              2.9931892    
   2200000   6363.961       100            100            0.02422644    -0.021481608    0              0.094160927    1.4141568e-12  0              1.3656914e-07  1.1965779e-13  0              2.9931892    
   2300000   6363.961       100            100            0.02422644    -0.021481608    0              0.094160928    1.5294655e-13  0              1.4770483e-08  1.1965779e-13  0              2.9931892    
   2400000   6363.961       100            100            0.02422644    -0.021481608    0              0.094160929    6.2920163e-14  0              6.076379e-09   1.1965779e-13  0              2.9931892    
   2500000   6363.961       100            100            0.02422644    -0.021481608    0              0.09416093     3.021698e-17   0              2.9181397e-12  1.1965779e-13  0              2.9931892    
   2600000   6363.961       100            100            0.02422644    -0.021481608    0              0.094160929    1.0803348e-15  0              1.04331e-10    1.1965779e-13  0              2.9931892    
   2700000   6363.961       100            100            0.02422644    -0.021481608    0              0.094160929    3.7973101e-17  0              3.6671703e-12  1.1965779e-13  0              2.9931892    
   2800000   6363.961       100            100            0.02422644    -0.021481608    0              0.094160929    4.196963e-18   0              4.0531265e-13  1.1965779e-13  0              2.9931892    
   2900000   6363.961       100            100            0.02422644    -0.021481608    0              0.094160929    3.1394194e-19  0              3.0318265e-14  1.1965779e-13  0              2.9931892    
   3000000   6363.961       100            100            0.02422644    -0.021481608    0              0.094160929    2.0460318e-18  0              1.975911e-13   1.1965779e-13  0              2.9931892    
Loop time of 343.392 on 2 procs for 3000000 steps with 2501 atoms

Performance: 7548216.959 ns/day, 0.000 hours/ns, 8736.362 timesteps/s
100.0% CPU use with 2 MPI tasks x 1 OpenMP threads

MPI task timing breakdown:
Section |  min time  |  avg time  |  max time  |%varavg| %total
---------------------------------------------------------------
Pair    | 85.237     | 85.507     | 85.777     |   2.9 | 24.90
Neigh   | 2.954      | 2.9542     | 2.9544     |   0.0 |  0.86
Comm    | 13.997     | 14.264     | 14.531     |   7.1 |  4.15
Output  | 0.26073    | 0.26076    | 0.26079    |   0.0 |  0.08
Modify  | 215.31     | 215.42     | 215.53     |   0.7 | 62.73
Other   |            | 24.99      |            |       |  7.28

Nlocal:         1250.5 ave        1251 max        1250 min
Histogram: 1 0 0 0 0 0 0 0 0 1
Nghost:            2.5 ave           3 max           2 min
Histogram: 1 0 0 0 0 0 0 0 0 1
Neighs:          687.5 ave         688 max         687 min
Histogram: 1 0 0 0 0 0 0 0 0 1

Total # of neighbors = 1375
Ave neighs/atom = 0.54978009
Neighbor list builds = 228
Dangerous builds = 0
  using 1 OpenMP thread(s) per MPI task
Total wall time: 3:45:39
