ITEM: TIMESTEP
200000
ITEM: NUMBER OF ATOMS
251
ITEM: BOX BOUNDS pp pp pp
-2.2500000000000000e+02 2.2500000000000000e+02
-1.0000000000000000e+02 1.0000000000000000e+02
-1.0000000000000000e+02 1.0000000000000000e+02
ITEM: ATOMS id type diameter mass xu yu zu
1 1 3 31.1018 -225 0 0
2 1 3 31.1018 -222 0 0
3 1 3 31.1018 -219 0 0
4 1 3 31.1018 -216 0 0
5 1 3 31.1018 -213 0 0
6 1 3 31.1018 -210 0 0
7 1 3 31.1018 -207 0 0
8 1 3 31.1018 -204 0 0
9 1 3 31.1018 -201 0 0
10 1 3 31.1018 -198 0 0
11 1 3 31.1018 -195 0 0
12 1 3 31.1018 -192 0 0
13 1 3 31.1018 -189 0 0
14 1 3 31.1018 -186 0 0
15 1 3 31.1018 -183 0 0
16 1 3 31.1018 -180 0 0
17 1 3 31.1018 -177 0 0
18 1 3 31.1018 -174 0 0
19 1 3 31.1018 -171 0 0
20 1 3 31.1018 -168 0 0
21 1 3 31.1018 -165 0 0
22 1 3 31.1018 -162 0 0
23 1 3 31.1018 -159 0 0
24 1 3 31.1018 -156 0 0
25 1 3 31.1018 -153 0 0
26 1 3 31.1018 -150 0 0
27 1 3 31.1018 -147 0 0
28 1 3 31.1018 -144 0 0
29 1 3 31.1018 -141 0 0
30 1 3 31.1018 -138 0 0
31 1 3 31.1018 -135 0 0
32 1 3 31.1018 -132 0 0
33 1 3 31.1018 -129 0 0
34 1 3 31.1018 -126 0 0
35 1 3 31.1018 -123 0 0
36 1 3 31.1018 -120 0 0
37 1 3 31.1018 -117 0 0
38 1 3 31.1018 -114 0 0
151 2 3 31.1018 -154.5 0 2.80923548905594656
152 2 3 31.1018 -151.5 0 2.80923548905594656
153 2 3 31.1018 -148.5 0 2.80923548905594656
154 2 3 31.1018 -145.5 0 2.80923548905594656
155 2 3 31.1018 -142.5 0 2.80923548905594656
156 2 3 31.1018 -139.5 0 2.80923548905594656
157 2 3 31.1018 -136.5 0 2.80923548905594656
158 2 3 31.1018 -133.5 0 2.80923548905594656
159 2 3 31.1018 -130.5 0 2.80923548905594656
160 2 3 31.1018 -127.5 0 2.80923548905594656
161 2 3 31.1018 -124.5 0 2.80923548905594656
162 2 3 31.1018 -121.5 0 2.80923548905594656
163 2 3 31.1018 -118.5 0 2.80923548905594656
164 2 3 31.1018 -115.5 0 2.80923548905594656
39 1 3 31.1018 -111 0 0
40 1 3 31.1018 -108 0 0
41 1 3 31.1018 -105 0 0
42 1 3 31.1018 -102 0 0
43 1 3 31.1018 -99 0 0
44 1 3 31.1018 -96 0 0
45 1 3 31.1018 -93 0 0
46 1 3 31.1018 -90 0 0
47 1 3 31.1018 -87 0 0
48 1 3 31.1018 -84 0 0
49 1 3 31.1018 -81 0 0
50 1 3 31.1018 -78 0 0
51 1 3 31.1018 -75 0 0
52 1 3 31.1018 -72 0 0
53 1 3 31.1018 -69 0 0
54 1 3 31.1018 -66 0 0
55 1 3 31.1018 -63 0 0
56 1 3 31.1018 -60 0 0
57 1 3 31.1018 -57 0 0
58 1 3 31.1018 -54 0 0
59 1 3 31.1018 -51 0 0
60 1 3 31.1018 -48 0 0
61 1 3 31.1018 -45 0 0
62 1 3 31.1018 -42 0 0
63 1 3 31.1018 -39 0 0
64 1 3 31.1018 -36 0 0
65 1 3 31.1018 -33 0 0
66 1 3 31.1018 -30 0 0
67 1 3 31.1018 -27 0 0
68 1 3 31.1018 -24 0 0
69 1 3 31.1018 -21 0 0
70 1 3 31.1018 -18 0 0
71 1 3 31.1018 -15 0 0
72 1 3 31.1018 -12 0 0
73 1 3 31.1018 -9 0 0
74 1 3 31.1018 -6 0 0
75 1 3 31.1018 -3 0 0
165 2 3 31.1018 -112.5 0 2.80923548905594656
166 2 3 31.1018 -109.5 0 2.80923548905594656
167 2 3 31.1018 -106.5 0 2.80923548905594656
168 2 3 31.1018 -103.5 0 2.80923548905594656
169 2 3 31.1018 -100.5 0 2.80923548905594656
170 2 3 31.1018 -97.5 0 2.80923548905594656
171 2 3 31.1018 -94.5 0 2.80923548905594656
172 2 3 31.1018 -91.5 0 2.80923548905594656
173 2 3 31.1018 -88.5 0 2.80923548905594656
174 2 3 31.1018 -85.5 0 2.80923548905594656
175 2 3 31.1018 -82.5 0 2.80923548905594656
176 2 3 31.1018 -79.5 0 2.80923548905594656
177 2 3 31.1018 -76.5 0 2.80923548905594656
178 2 3 31.1018 -73.5 0 2.80923548905594656
179 2 3 31.1018 -70.5 0 2.80923548905594656
180 2 3 31.1018 -67.5 0 2.80923548905594656
181 2 3 31.1018 -64.5 0 2.80923548905594656
182 2 3 31.1018 -61.5 0 2.80923548905594656
183 2 3 31.1018 -58.5 0 2.80923548905594656
184 2 3 31.1018 -55.5 0 2.80923548905594656
185 2 3 31.1018 -52.5 0 2.80923548905594656
186 2 3 31.1018 -49.5 0 2.80923548905594656
187 2 3 31.1018 -46.5 0 2.80923548905594656
188 2 3 31.1018 -43.5 0 2.80923548905594656
189 2 3 31.1018 -40.5 0 2.80923548905594656
190 2 3 31.1018 -37.5 0 2.80923548905594656
191 2 3 31.1018 -34.5 0 2.80923548905594656
192 2 3 31.1018 -31.5 0 2.80923548905594656
193 2 3 31.1018 -28.5 0 2.80923548905594656
194 2 3 31.1018 -25.5 0 2.80923548905594656
195 2 3 31.1018 -22.5 0 2.80923548905594656
196 2 3 31.1018 -19.5 0 2.80923548905594656
197 2 3 31.1018 -16.5 0 2.80923548905594656
198 2 3 31.1018 -13.5 0 2.80923548905594656
199 2 3 31.1018 -10.5 0 2.80923548905594656
200 2 3 31.1018 -7.5 0 2.80923548905594656
201 2 3 31.1018 -4.5 0 2.80923548905594656
202 2 3 31.1018 -1.5 0 2.80923548905594656
76 1 3 31.1018 0 0 0
77 1 3 31.1018 3 0 0
78 1 3 31.1018 6 0 0
79 1 3 31.1018 9 0 0
80 1 3 31.1018 12 0 0
81 1 3 31.1018 15 0 0
82 1 3 31.1018 18 0 0
83 1 3 31.1018 21 0 0
84 1 3 31.1018 24 0 0
85 1 3 31.1018 27 0 0
86 1 3 31.1018 30 0 0
87 1 3 31.1018 33 0 0
88 1 3 31.1018 36 0 0
89 1 3 31.1018 39 0 0
90 1 3 31.1018 42 0 0
91 1 3 31.1018 45 0 0
92 1 3 31.1018 48 0 0
93 1 3 31.1018 51 0 0
94 1 3 31.1018 54 0 0
95 1 3 31.1018 57 0 0
96 1 3 31.1018 60 0 0
97 1 3 31.1018 63 0 0
98 1 3 31.1018 66 0 0
99 1 3 31.1018 69 0 0
100 1 3 31.1018 72 0 0
101 1 3 31.1018 75 0 0
102 1 3 31.1018 78 0 0
103 1 3 31.1018 81 0 0
104 1 3 31.1018 84 0 0
105 1 3 31.1018 87 0 0
106 1 3 31.1018 90 0 0
107 1 3 31.1018 93 0 0
108 1 3 31.1018 96 0 0
109 1 3 31.1018 99 0 0
110 1 3 31.1018 102 0 0
111 1 3 31.1018 105 0 0
112 1 3 31.1018 108 0 0
113 1 3 31.1018 111 0 0
203 2 3 31.1018 1.5 0 2.80923548905594656
204 2 3 31.1018 4.5 0 2.80923548905594656
205 2 3 31.1018 7.5 0 2.80923548905594656
206 2 3 31.1018 10.5 0 2.80923548905594656
207 2 3 31.1018 13.5 0 2.80923548905594656
208 2 3 31.1018 16.5 0 2.80923548905594656
209 2 3 31.1018 19.5 0 2.80923548905594656
210 2 3 31.1018 22.5 0 2.80923548905594656
211 2 3 31.1018 25.5 0 2.80923548905594656
212 2 3 31.1018 28.5 0 2.80923548905594656
213 2 3 31.1018 31.5 0 2.80923548905594656
214 2 3 31.1018 34.5 0 2.80923548905594656
215 2 3 31.1018 37.5 0 2.80923548905594656
216 2 3 31.1018 40.5 0 2.80923548905594656
217 2 3 31.1018 43.5 0 2.80923548905594656
218 2 3 31.1018 46.5 0 2.80923548905594656
219 2 3 31.1018 49.5 0 2.80923548905594656
220 2 3 31.1018 52.5 0 2.80923548905594656
221 2 3 31.1018 55.5 0 2.80923548905594656
222 2 3 31.1018 58.5 0 2.80923548905594656
223 2 3 31.1018 61.5 0 2.80923548905594656
224 2 3 31.1018 64.5 0 2.80923548905594656
225 2 3 31.1018 67.5 0 2.80923548905594656
226 2 3 31.1018 70.5 0 2.80923548905594656
227 2 3 31.1018 73.5 0 2.80923548905594656
228 2 3 31.1018 76.5 0 2.80923548905594656
229 2 3 31.1018 79.5 0 2.80923548905594656
230 2 3 31.1018 82.5 0 2.80923548905594656
231 2 3 31.1018 85.5 0 2.80923548905594656
232 2 3 31.1018 88.5 0 2.80923548905594656
233 2 3 31.1018 91.5 0 2.80923548905594656
234 2 3 31.1018 94.5 0 2.80923548905594656
235 2 3 31.1018 97.5 0 2.80923548905594656
236 2 3 31.1018 100.5 0 2.80923548905594656
237 2 3 31.1018 103.5 0 2.80923548905594656
238 2 3 31.1018 106.5 0 2.80923548905594656
239 2 3 31.1018 109.5 0 2.80923548905594656
114 1 3 31.1018 114 0 0
115 1 3 31.1018 117 0 0
116 1 3 31.1018 120 0 0
117 1 3 31.1018 123 0 0
118 1 3 31.1018 126 0 0
119 1 3 31.1018 129 0 0
120 1 3 31.1018 132 0 0
121 1 3 31.1018 135 0 0
122 1 3 31.1018 138 0 0
123 1 3 31.1018 141 0 0
124 1 3 31.1018 144 0 0
125 1 3 31.1018 147 0 0
126 1 3 31.1018 150 0 0
127 1 3 31.1018 153 0 0
128 1 3 31.1018 156 0 0
129 1 3 31.1018 159 0 0
130 1 3 31.1018 162 0 0
131 1 3 31.1018 165 0 0
132 1 3 31.1018 168 0 0
133 1 3 31.1018 171 0 0
134 1 3 31.1018 174 0 0
135 1 3 31.1018 177 0 0
136 1 3 31.1018 180 0 0
137 1 3 31.1018 183 0 0
138 1 3 31.1018 186 0 0
139 1 3 31.1018 189 0 0
140 1 3 31.1018 192 0 0
141 1 3 31.1018 195 0 0
142 1 3 31.1018 198 0 0
143 1 3 31.1018 201 0 0
144 1 3 31.1018 204 0 0
145 1 3 31.1018 207 0 0
146 1 3 31.1018 210 0 0
147 1 3 31.1018 213 0 0
148 1 3 31.1018 216 0 0
149 1 3 31.1018 219 0 0
150 1 3 31.1018 222 0 0
240 2 3 31.1018 112.5 0 2.80923548905594656
241 2 3 31.1018 115.5 0 2.80923548905594656
242 2 3 31.1018 118.5 0 2.80923548905594656
243 2 3 31.1018 121.5 0 2.80923548905594656
244 2 3 31.1018 124.5 0 2.80923548905594656
245 2 3 31.1018 127.5 0 2.80923548905594656
246 2 3 31.1018 130.5 0 2.80923548905594656
247 2 3 31.1018 133.5 0 2.80923548905594656
248 2 3 31.1018 136.5 0 2.80923548905594656
249 2 3 31.1018 139.5 0 2.80923548905594656
250 2 3 31.1018 142.5 0 2.80923548905594656
251 2 3 31.1018 145.5 0 2.80923548905594656
