ITEM: TIMESTEP
2300000
ITEM: NUMBER OF ATOMS
1501
ITEM: BOX BOUNDS pp pp pp
-1.3500000000000000e+03 1.3500000000000000e+03
-1.0000000000000000e+02 1.0000000000000000e+02
-1.0000000000000000e+02 1.0000000000000000e+02
ITEM: ATOMS id type diameter mass xu yu zu
1 1 3 31.1018 -1350 0 0
2 1 3 31.1018 -1347 0 0
3 1 3 31.1018 -1344 0 0
4 1 3 31.1018 -1341 0 0
5 1 3 31.1018 -1338 0 0
6 1 3 31.1018 -1335 0 0
7 1 3 31.1018 -1332 0 0
8 1 3 31.1018 -1329 0 0
9 1 3 31.1018 -1326 0 0
10 1 3 31.1018 -1323 0 0
11 1 3 31.1018 -1320 0 0
12 1 3 31.1018 -1317 0 0
13 1 3 31.1018 -1314 0 0
14 1 3 31.1018 -1311 0 0
15 1 3 31.1018 -1308 0 0
16 1 3 31.1018 -1305 0 0
17 1 3 31.1018 -1302 0 0
18 1 3 31.1018 -1299 0 0
19 1 3 31.1018 -1296 0 0
20 1 3 31.1018 -1293 0 0
21 1 3 31.1018 -1290 0 0
22 1 3 31.1018 -1287 0 0
23 1 3 31.1018 -1284 0 0
24 1 3 31.1018 -1281 0 0
25 1 3 31.1018 -1278 0 0
26 1 3 31.1018 -1275 0 0
27 1 3 31.1018 -1272 0 0
28 1 3 31.1018 -1269 0 0
29 1 3 31.1018 -1266 0 0
30 1 3 31.1018 -1263 0 0
31 1 3 31.1018 -1260 0 0
32 1 3 31.1018 -1257 0 0
33 1 3 31.1018 -1254 0 0
34 1 3 31.1018 -1251 0 0
35 1 3 31.1018 -1248 0 0
36 1 3 31.1018 -1245 0 0
37 1 3 31.1018 -1242 0 0
38 1 3 31.1018 -1239 0 0
39 1 3 31.1018 -1236 0 0
40 1 3 31.1018 -1233 0 0
41 1 3 31.1018 -1230 0 0
42 1 3 31.1018 -1227 0 0
43 1 3 31.1018 -1224 0 0
44 1 3 31.1018 -1221 0 0
45 1 3 31.1018 -1218 0 0
46 1 3 31.1018 -1215 0 0
47 1 3 31.1018 -1212 0 0
48 1 3 31.1018 -1209 0 0
49 1 3 31.1018 -1206 0 0
50 1 3 31.1018 -1203 0 0
51 1 3 31.1018 -1200 0 0
52 1 3 31.1018 -1197 0 0
53 1 3 31.1018 -1194 0 0
54 1 3 31.1018 -1191 0 0
55 1 3 31.1018 -1188 0 0
56 1 3 31.1018 -1185 0 0
57 1 3 31.1018 -1182 0 0
58 1 3 31.1018 -1179 0 0
59 1 3 31.1018 -1176 0 0
60 1 3 31.1018 -1173 0 0
61 1 3 31.1018 -1170 0 0
62 1 3 31.1018 -1167 0 0
63 1 3 31.1018 -1164 0 0
64 1 3 31.1018 -1161 0 0
65 1 3 31.1018 -1158 0 0
66 1 3 31.1018 -1155 0 0
67 1 3 31.1018 -1152 0 0
68 1 3 31.1018 -1149 0 0
69 1 3 31.1018 -1146 0 0
70 1 3 31.1018 -1143 0 0
71 1 3 31.1018 -1140 0 0
72 1 3 31.1018 -1137 0 0
73 1 3 31.1018 -1134 0 0
74 1 3 31.1018 -1131 0 0
75 1 3 31.1018 -1128 0 0
76 1 3 31.1018 -1125 0 0
77 1 3 31.1018 -1122 0 0
78 1 3 31.1018 -1119 0 0
79 1 3 31.1018 -1116 0 0
80 1 3 31.1018 -1113 0 0
81 1 3 31.1018 -1110 0 0
82 1 3 31.1018 -1107 0 0
83 1 3 31.1018 -1104 0 0
84 1 3 31.1018 -1101 0 0
85 1 3 31.1018 -1098 0 0
86 1 3 31.1018 -1095 0 0
87 1 3 31.1018 -1092 0 0
88 1 3 31.1018 -1089 0 0
89 1 3 31.1018 -1086 0 0
90 1 3 31.1018 -1083 0 0
91 1 3 31.1018 -1080 0 0
92 1 3 31.1018 -1077 0 0
93 1 3 31.1018 -1074 0 0
94 1 3 31.1018 -1071 0 0
95 1 3 31.1018 -1068 0 0
96 1 3 31.1018 -1065 0 0
97 1 3 31.1018 -1062 0 0
98 1 3 31.1018 -1059 0 0
99 1 3 31.1018 -1056 0 0
100 1 3 31.1018 -1053 0 0
101 1 3 31.1018 -1050 0 0
102 1 3 31.1018 -1047 0 0
103 1 3 31.1018 -1044 0 0
104 1 3 31.1018 -1041 0 0
105 1 3 31.1018 -1038 0 0
106 1 3 31.1018 -1035 0 0
107 1 3 31.1018 -1032 0 0
108 1 3 31.1018 -1029 0 0
109 1 3 31.1018 -1026 0 0
110 1 3 31.1018 -1023 0 0
111 1 3 31.1018 -1020 0 0
112 1 3 31.1018 -1017 0 0
113 1 3 31.1018 -1014 0 0
114 1 3 31.1018 -1011 0 0
115 1 3 31.1018 -1008 0 0
116 1 3 31.1018 -1005 0 0
117 1 3 31.1018 -1002 0 0
118 1 3 31.1018 -999 0 0
119 1 3 31.1018 -996 0 0
120 1 3 31.1018 -993 0 0
121 1 3 31.1018 -990 0 0
122 1 3 31.1018 -987 0 0
123 1 3 31.1018 -984 0 0
124 1 3 31.1018 -981 0 0
125 1 3 31.1018 -978 0 0
126 1 3 31.1018 -975 0 0
127 1 3 31.1018 -972 0 0
128 1 3 31.1018 -969 0 0
129 1 3 31.1018 -966 0 0
130 1 3 31.1018 -963 0 0
131 1 3 31.1018 -960 0 0
132 1 3 31.1018 -957 0 0
133 1 3 31.1018 -954 0 0
134 1 3 31.1018 -951 0 0
135 1 3 31.1018 -948 0 0
136 1 3 31.1018 -945 0 0
137 1 3 31.1018 -942 0 0
138 1 3 31.1018 -939 0 0
139 1 3 31.1018 -936 0 0
140 1 3 31.1018 -933 0 0
141 1 3 31.1018 -930 0 0
142 1 3 31.1018 -927 0 0
143 1 3 31.1018 -924 0 0
144 1 3 31.1018 -921 0 0
145 1 3 31.1018 -918 0 0
146 1 3 31.1018 -915 0 0
147 1 3 31.1018 -912 0 0
148 1 3 31.1018 -909 0 0
149 1 3 31.1018 -906 0 0
150 1 3 31.1018 -903 0 0
151 1 3 31.1018 -900 0 0
152 1 3 31.1018 -897 0 0
153 1 3 31.1018 -894 0 0
154 1 3 31.1018 -891 0 0
155 1 3 31.1018 -888 0 0
156 1 3 31.1018 -885 0 0
157 1 3 31.1018 -882 0 0
158 1 3 31.1018 -879 0 0
159 1 3 31.1018 -876 0 0
160 1 3 31.1018 -873 0 0
161 1 3 31.1018 -870 0 0
162 1 3 31.1018 -867 0 0
163 1 3 31.1018 -864 0 0
164 1 3 31.1018 -861 0 0
165 1 3 31.1018 -858 0 0
166 1 3 31.1018 -855 0 0
167 1 3 31.1018 -852 0 0
168 1 3 31.1018 -849 0 0
169 1 3 31.1018 -846 0 0
170 1 3 31.1018 -843 0 0
171 1 3 31.1018 -840 0 0
172 1 3 31.1018 -837 0 0
173 1 3 31.1018 -834 0 0
174 1 3 31.1018 -831 0 0
175 1 3 31.1018 -828 0 0
176 1 3 31.1018 -825 0 0
177 1 3 31.1018 -822 0 0
178 1 3 31.1018 -819 0 0
179 1 3 31.1018 -816 0 0
180 1 3 31.1018 -813 0 0
181 1 3 31.1018 -810 0 0
182 1 3 31.1018 -807 0 0
183 1 3 31.1018 -804 0 0
184 1 3 31.1018 -801 0 0
185 1 3 31.1018 -798 0 0
186 1 3 31.1018 -795 0 0
187 1 3 31.1018 -792 0 0
188 1 3 31.1018 -789 0 0
189 1 3 31.1018 -786 0 0
190 1 3 31.1018 -783 0 0
191 1 3 31.1018 -780 0 0
192 1 3 31.1018 -777 0 0
193 1 3 31.1018 -774 0 0
194 1 3 31.1018 -771 0 0
195 1 3 31.1018 -768 0 0
196 1 3 31.1018 -765 0 0
197 1 3 31.1018 -762 0 0
198 1 3 31.1018 -759 0 0
199 1 3 31.1018 -756 0 0
200 1 3 31.1018 -753 0 0
201 1 3 31.1018 -750 0 0
202 1 3 31.1018 -747 0 0
203 1 3 31.1018 -744 0 0
204 1 3 31.1018 -741 0 0
205 1 3 31.1018 -738 0 0
206 1 3 31.1018 -735 0 0
207 1 3 31.1018 -732 0 0
208 1 3 31.1018 -729 0 0
209 1 3 31.1018 -726 0 0
210 1 3 31.1018 -723 0 0
211 1 3 31.1018 -720 0 0
212 1 3 31.1018 -717 0 0
213 1 3 31.1018 -714 0 0
214 1 3 31.1018 -711 0 0
215 1 3 31.1018 -708 0 0
216 1 3 31.1018 -705 0 0
217 1 3 31.1018 -702 0 0
218 1 3 31.1018 -699 0 0
219 1 3 31.1018 -696 0 0
220 1 3 31.1018 -693 0 0
221 1 3 31.1018 -690 0 0
222 1 3 31.1018 -687 0 0
223 1 3 31.1018 -684 0 0
224 1 3 31.1018 -681 0 0
225 1 3 31.1018 -678 0 0
901 2 3 31.1018 -904.5 0 2.59757290910522531
902 2 3 31.1018 -901.5 0 2.59757290910522531
903 2 3 31.1018 -898.5 0 2.59757290910522531
904 2 3 31.1018 -895.5 0 2.59757290910522531
905 2 3 31.1018 -892.5 0 2.59757290910522531
906 2 3 31.1018 -889.5 0 2.59757290910522531
907 2 3 31.1018 -886.5 0 2.59757290910522531
908 2 3 31.1018 -883.5 0 2.59757290910522531
909 2 3 31.1018 -880.5 0 2.59757290910522531
910 2 3 31.1018 -877.5 0 2.59757290910522531
911 2 3 31.1018 -874.5 0 2.59757290910522531
912 2 3 31.1018 -871.5 0 2.59757290910522531
913 2 3 31.1018 -868.5 0 2.59757290910522531
914 2 3 31.1018 -865.5 0 2.59757290910522531
915 2 3 31.1018 -862.5 0 2.59757290910522531
916 2 3 31.1018 -859.5 0 2.59757290910522531
917 2 3 31.1018 -856.5 0 2.59757290910522531
918 2 3 31.1018 -853.5 0 2.59757290910522531
919 2 3 31.1018 -850.5 0 2.59757290910522531
920 2 3 31.1018 -847.5 0 2.59757290910522531
921 2 3 31.1018 -844.5 0 2.59757290910522531
922 2 3 31.1018 -841.5 0 2.59757290910522531
923 2 3 31.1018 -838.5 0 2.59757290910522531
924 2 3 31.1018 -835.5 0 2.59757290910522531
925 2 3 31.1018 -832.5 0 2.59757290910522531
926 2 3 31.1018 -829.5 0 2.59757290910522531
927 2 3 31.1018 -826.5 0 2.59757290910522531
928 2 3 31.1018 -823.5 0 2.59757290910522531
929 2 3 31.1018 -820.5 0 2.59757290910522531
930 2 3 31.1018 -817.5 0 2.59757290910522531
931 2 3 31.1018 -814.5 0 2.59757290910522531
932 2 3 31.1018 -811.5 0 2.59757290910522531
933 2 3 31.1018 -808.5 0 2.59757290910522531
934 2 3 31.1018 -805.5 0 2.59757290910522531
935 2 3 31.1018 -802.5 0 2.59757290910522531
936 2 3 31.1018 -799.5 0 2.59757290910522531
937 2 3 31.1018 -796.5 0 2.59757290910522531
938 2 3 31.1018 -793.5 0 2.59757290910522531
939 2 3 31.1018 -790.5 0 2.59757290910522531
940 2 3 31.1018 -787.5 0 2.59757290910522531
941 2 3 31.1018 -784.5 0 2.59757290910522531
942 2 3 31.1018 -781.5 0 2.59757290910522531
943 2 3 31.1018 -778.5 0 2.59757290910522531
944 2 3 31.1018 -775.5 0 2.59757290910522531
945 2 3 31.1018 -772.5 0 2.59757290910522531
946 2 3 31.1018 -769.5 0 2.59757290910522531
947 2 3 31.1018 -766.5 0 2.59757290910522531
948 2 3 31.1018 -763.5 0 2.59757290910522531
949 2 3 31.1018 -760.5 0 2.59757290910522531
950 2 3 31.1018 -757.5 0 2.59757290910522531
951 2 3 31.1018 -754.5 0 2.59757290910522531
952 2 3 31.1018 -751.5 0 2.59757290910522531
953 2 3 31.1018 -748.5 0 2.59757290910522531
954 2 3 31.1018 -745.5 0 2.59757290910522531
955 2 3 31.1018 -742.5 0 2.59757290910522531
956 2 3 31.1018 -739.5 0 2.59757290910522531
957 2 3 31.1018 -736.5 0 2.59757290910522531
958 2 3 31.1018 -733.5 0 2.59757290910522531
959 2 3 31.1018 -730.5 0 2.59757290910522531
960 2 3 31.1018 -727.5 0 2.59757290910522531
961 2 3 31.1018 -724.5 0 2.59757290910522531
962 2 3 31.1018 -721.5 0 2.59757290910522531
963 2 3 31.1018 -718.5 0 2.59757290910522531
964 2 3 31.1018 -715.5 0 2.59757290910522531
965 2 3 31.1018 -712.5 0 2.59757290910522531
966 2 3 31.1018 -709.5 0 2.59757290910522531
967 2 3 31.1018 -706.5 0 2.59757290910522531
968 2 3 31.1018 -703.5 0 2.59757290910522531
969 2 3 31.1018 -700.5 0 2.59757290910522531
970 2 3 31.1018 -697.5 0 2.59757290910522531
971 2 3 31.1018 -694.5 0 2.59757290910522531
972 2 3 31.1018 -691.5 0 2.59757290910522531
973 2 3 31.1018 -688.5 0 2.59757290910522531
974 2 3 31.1018 -685.5 0 2.59757290910522531
975 2 3 31.1018 -682.5 0 2.59757290910522531
976 2 3 31.1018 -679.5 0 2.59757290910522531
977 2 3 31.1018 -676.5 0 2.59757290910522531
226 1 3 31.1018 -675 0 0
227 1 3 31.1018 -672 0 0
228 1 3 31.1018 -669 0 0
229 1 3 31.1018 -666 0 0
230 1 3 31.1018 -663 0 0
231 1 3 31.1018 -660 0 0
232 1 3 31.1018 -657 0 0
233 1 3 31.1018 -654 0 0
234 1 3 31.1018 -651 0 0
235 1 3 31.1018 -648 0 0
236 1 3 31.1018 -645 0 0
237 1 3 31.1018 -642 0 0
238 1 3 31.1018 -639 0 0
239 1 3 31.1018 -636 0 0
240 1 3 31.1018 -633 0 0
241 1 3 31.1018 -630 0 0
242 1 3 31.1018 -627 0 0
243 1 3 31.1018 -624 0 0
244 1 3 31.1018 -621 0 0
245 1 3 31.1018 -618 0 0
246 1 3 31.1018 -615 0 0
247 1 3 31.1018 -612 0 0
248 1 3 31.1018 -609 0 0
249 1 3 31.1018 -606 0 0
250 1 3 31.1018 -603 0 0
251 1 3 31.1018 -600 0 0
252 1 3 31.1018 -597 0 0
253 1 3 31.1018 -594 0 0
254 1 3 31.1018 -591 0 0
255 1 3 31.1018 -588 0 0
256 1 3 31.1018 -585 0 0
257 1 3 31.1018 -582 0 0
258 1 3 31.1018 -579 0 0
259 1 3 31.1018 -576 0 0
260 1 3 31.1018 -573 0 0
261 1 3 31.1018 -570 0 0
262 1 3 31.1018 -567 0 0
263 1 3 31.1018 -564 0 0
264 1 3 31.1018 -561 0 0
265 1 3 31.1018 -558 0 0
266 1 3 31.1018 -555 0 0
267 1 3 31.1018 -552 0 0
268 1 3 31.1018 -549 0 0
269 1 3 31.1018 -546 0 0
270 1 3 31.1018 -543 0 0
271 1 3 31.1018 -540 0 0
272 1 3 31.1018 -537 0 0
273 1 3 31.1018 -534 0 0
274 1 3 31.1018 -531 0 0
275 1 3 31.1018 -528 0 0
276 1 3 31.1018 -525 0 0
277 1 3 31.1018 -522 0 0
278 1 3 31.1018 -519 0 0
279 1 3 31.1018 -516 0 0
280 1 3 31.1018 -513 0 0
281 1 3 31.1018 -510 0 0
282 1 3 31.1018 -507 0 0
283 1 3 31.1018 -504 0 0
284 1 3 31.1018 -501 0 0
285 1 3 31.1018 -498 0 0
286 1 3 31.1018 -495 0 0
287 1 3 31.1018 -492 0 0
288 1 3 31.1018 -489 0 0
289 1 3 31.1018 -486 0 0
290 1 3 31.1018 -483 0 0
291 1 3 31.1018 -480 0 0
292 1 3 31.1018 -477 0 0
293 1 3 31.1018 -474 0 0
294 1 3 31.1018 -471 0 0
295 1 3 31.1018 -468 0 0
296 1 3 31.1018 -465 0 0
297 1 3 31.1018 -462 0 0
298 1 3 31.1018 -459 0 0
299 1 3 31.1018 -456 0 0
300 1 3 31.1018 -453 0 0
301 1 3 31.1018 -450 0 0
302 1 3 31.1018 -447 0 0
303 1 3 31.1018 -444 0 0
304 1 3 31.1018 -441 0 0
305 1 3 31.1018 -438 0 0
306 1 3 31.1018 -435 0 0
307 1 3 31.1018 -432 0 0
308 1 3 31.1018 -429 0 0
309 1 3 31.1018 -426 0 0
310 1 3 31.1018 -423 0 0
311 1 3 31.1018 -420 0 0
312 1 3 31.1018 -417 0 0
313 1 3 31.1018 -414 0 0
314 1 3 31.1018 -411 0 0
315 1 3 31.1018 -408 0 0
316 1 3 31.1018 -405 0 0
317 1 3 31.1018 -402 0 0
318 1 3 31.1018 -399 0 0
319 1 3 31.1018 -396 0 0
320 1 3 31.1018 -393 0 0
321 1 3 31.1018 -390 0 0
322 1 3 31.1018 -387 0 0
323 1 3 31.1018 -384 0 0
324 1 3 31.1018 -381 0 0
325 1 3 31.1018 -378 0 0
326 1 3 31.1018 -375 0 0
327 1 3 31.1018 -372 0 0
328 1 3 31.1018 -369 0 0
329 1 3 31.1018 -366 0 0
330 1 3 31.1018 -363 0 0
331 1 3 31.1018 -360 0 0
332 1 3 31.1018 -357 0 0
333 1 3 31.1018 -354 0 0
334 1 3 31.1018 -351 0 0
335 1 3 31.1018 -348 0 0
336 1 3 31.1018 -345 0 0
337 1 3 31.1018 -342 0 0
338 1 3 31.1018 -339 0 0
339 1 3 31.1018 -336 0 0
340 1 3 31.1018 -333 0 0
341 1 3 31.1018 -330 0 0
342 1 3 31.1018 -327 0 0
343 1 3 31.1018 -324 0 0
344 1 3 31.1018 -321 0 0
345 1 3 31.1018 -318 0 0
346 1 3 31.1018 -315 0 0
347 1 3 31.1018 -312 0 0
348 1 3 31.1018 -309 0 0
349 1 3 31.1018 -306 0 0
350 1 3 31.1018 -303 0 0
351 1 3 31.1018 -300 0 0
352 1 3 31.1018 -297 0 0
353 1 3 31.1018 -294 0 0
354 1 3 31.1018 -291 0 0
355 1 3 31.1018 -288 0 0
356 1 3 31.1018 -285 0 0
357 1 3 31.1018 -282 0 0
358 1 3 31.1018 -279 0 0
359 1 3 31.1018 -276 0 0
360 1 3 31.1018 -273 0 0
361 1 3 31.1018 -270 0 0
362 1 3 31.1018 -267 0 0
363 1 3 31.1018 -264 0 0
364 1 3 31.1018 -261 0 0
365 1 3 31.1018 -258 0 0
366 1 3 31.1018 -255 0 0
367 1 3 31.1018 -252 0 0
368 1 3 31.1018 -249 0 0
369 1 3 31.1018 -246 0 0
370 1 3 31.1018 -243 0 0
371 1 3 31.1018 -240 0 0
372 1 3 31.1018 -237 0 0
373 1 3 31.1018 -234 0 0
374 1 3 31.1018 -231 0 0
375 1 3 31.1018 -228 0 0
376 1 3 31.1018 -225 0 0
377 1 3 31.1018 -222 0 0
378 1 3 31.1018 -219 0 0
379 1 3 31.1018 -216 0 0
380 1 3 31.1018 -213 0 0
381 1 3 31.1018 -210 0 0
382 1 3 31.1018 -207 0 0
383 1 3 31.1018 -204 0 0
384 1 3 31.1018 -201 0 0
385 1 3 31.1018 -198 0 0
386 1 3 31.1018 -195 0 0
387 1 3 31.1018 -192 0 0
388 1 3 31.1018 -189 0 0
389 1 3 31.1018 -186 0 0
390 1 3 31.1018 -183 0 0
391 1 3 31.1018 -180 0 0
392 1 3 31.1018 -177 0 0
393 1 3 31.1018 -174 0 0
394 1 3 31.1018 -171 0 0
395 1 3 31.1018 -168 0 0
396 1 3 31.1018 -165 0 0
397 1 3 31.1018 -162 0 0
398 1 3 31.1018 -159 0 0
399 1 3 31.1018 -156 0 0
400 1 3 31.1018 -153 0 0
401 1 3 31.1018 -150 0 0
402 1 3 31.1018 -147 0 0
403 1 3 31.1018 -144 0 0
404 1 3 31.1018 -141 0 0
405 1 3 31.1018 -138 0 0
406 1 3 31.1018 -135 0 0
407 1 3 31.1018 -132 0 0
408 1 3 31.1018 -129 0 0
409 1 3 31.1018 -126 0 0
410 1 3 31.1018 -123 0 0
411 1 3 31.1018 -120 0 0
412 1 3 31.1018 -117 0 0
413 1 3 31.1018 -114 0 0
414 1 3 31.1018 -111 0 0
415 1 3 31.1018 -108 0 0
416 1 3 31.1018 -105 0 0
417 1 3 31.1018 -102 0 0
418 1 3 31.1018 -99 0 0
419 1 3 31.1018 -96 0 0
420 1 3 31.1018 -93 0 0
421 1 3 31.1018 -90 0 0
422 1 3 31.1018 -87 0 0
423 1 3 31.1018 -84 0 0
424 1 3 31.1018 -81 0 0
425 1 3 31.1018 -78 0 0
426 1 3 31.1018 -75 0 0
427 1 3 31.1018 -72 0 0
428 1 3 31.1018 -69 0 0
429 1 3 31.1018 -66 0 0
430 1 3 31.1018 -63 0 0
431 1 3 31.1018 -60 0 0
432 1 3 31.1018 -57 0 0
433 1 3 31.1018 -54 0 0
434 1 3 31.1018 -51 0 0
435 1 3 31.1018 -48 0 0
436 1 3 31.1018 -45 0 0
437 1 3 31.1018 -42 0 0
438 1 3 31.1018 -39 0 0
439 1 3 31.1018 -36 0 0
440 1 3 31.1018 -33 0 0
441 1 3 31.1018 -30 0 0
442 1 3 31.1018 -27 0 0
443 1 3 31.1018 -24 0 0
444 1 3 31.1018 -21 0 0
445 1 3 31.1018 -18 0 0
446 1 3 31.1018 -15 0 0
447 1 3 31.1018 -12 0 0
448 1 3 31.1018 -9 0 0
449 1 3 31.1018 -6 0 0
450 1 3 31.1018 -3 0 0
978 2 3 31.1018 -673.5 0 2.59757290910522531
979 2 3 31.1018 -670.5 0 2.59757290910522531
980 2 3 31.1018 -667.5 0 2.59757290910522531
981 2 3 31.1018 -664.5 0 2.59757290910522531
982 2 3 31.1018 -661.5 0 2.59757290910522531
983 2 3 31.1018 -658.5 0 2.59757290910522531
984 2 3 31.1018 -655.5 0 2.59757290910522531
985 2 3 31.1018 -652.5 0 2.59757290910522531
986 2 3 31.1018 -649.5 0 2.59757290910522531
987 2 3 31.1018 -646.5 0 2.59757290910522531
988 2 3 31.1018 -643.5 0 2.59757290910522531
989 2 3 31.1018 -640.5 0 2.59757290910522531
990 2 3 31.1018 -637.5 0 2.59757290910522531
991 2 3 31.1018 -634.5 0 2.59757290910522531
992 2 3 31.1018 -631.5 0 2.59757290910522531
993 2 3 31.1018 -628.5 0 2.59757290910522531
994 2 3 31.1018 -625.5 0 2.59757290910522531
995 2 3 31.1018 -622.5 0 2.59757290910522531
996 2 3 31.1018 -619.5 0 2.59757290910522531
997 2 3 31.1018 -616.5 0 2.59757290910522531
998 2 3 31.1018 -613.5 0 2.59757290910522531
999 2 3 31.1018 -610.5 0 2.59757290910522531
1000 2 3 31.1018 -607.5 0 2.59757290910522531
1001 2 3 31.1018 -604.5 0 2.59757290910522531
1002 2 3 31.1018 -601.5 0 2.59757290910522531
1003 2 3 31.1018 -598.5 0 2.59757290910522531
1004 2 3 31.1018 -595.5 0 2.59757290910522531
1005 2 3 31.1018 -592.5 0 2.59757290910522531
1006 2 3 31.1018 -589.5 0 2.59757290910522531
1007 2 3 31.1018 -586.5 0 2.59757290910522531
1008 2 3 31.1018 -583.5 0 2.59757290910522531
1009 2 3 31.1018 -580.5 0 2.59757290910522531
1010 2 3 31.1018 -577.5 0 2.59757290910522531
1011 2 3 31.1018 -574.5 0 2.59757290910522531
1012 2 3 31.1018 -571.5 0 2.59757290910522531
1013 2 3 31.1018 -568.5 0 2.59757290910522531
1014 2 3 31.1018 -565.5 0 2.59757290910522531
1015 2 3 31.1018 -562.5 0 2.59757290910522531
1016 2 3 31.1018 -559.5 0 2.59757290910522531
1017 2 3 31.1018 -556.5 0 2.59757290910522531
1018 2 3 31.1018 -553.5 0 2.59757290910522531
1019 2 3 31.1018 -550.5 0 2.59757290910522531
1020 2 3 31.1018 -547.5 0 2.59757290910522531
1021 2 3 31.1018 -544.5 0 2.59757290910522531
1022 2 3 31.1018 -541.5 0 2.59757290910522531
1023 2 3 31.1018 -538.5 0 2.59757290910522531
1024 2 3 31.1018 -535.5 0 2.59757290910522531
1025 2 3 31.1018 -532.5 0 2.59757290910522531
1026 2 3 31.1018 -529.5 0 2.59757290910522531
1027 2 3 31.1018 -526.5 0 2.59757290910522531
1028 2 3 31.1018 -523.5 0 2.59757290910522531
1029 2 3 31.1018 -520.5 0 2.59757290910522531
1030 2 3 31.1018 -517.5 0 2.59757290910522531
1031 2 3 31.1018 -514.5 0 2.59757290910522531
1032 2 3 31.1018 -511.5 0 2.59757290910522531
1033 2 3 31.1018 -508.5 0 2.59757290910522531
1034 2 3 31.1018 -505.5 0 2.59757290910522531
1035 2 3 31.1018 -502.5 0 2.59757290910522531
1036 2 3 31.1018 -499.5 0 2.59757290910522531
1037 2 3 31.1018 -496.5 0 2.59757290910522531
1038 2 3 31.1018 -493.5 0 2.59757290910522531
1039 2 3 31.1018 -490.5 0 2.59757290910522531
1040 2 3 31.1018 -487.5 0 2.59757290910522531
1041 2 3 31.1018 -484.5 0 2.59757290910522531
1042 2 3 31.1018 -481.5 0 2.59757290910522531
1043 2 3 31.1018 -478.5 0 2.59757290910522531
1044 2 3 31.1018 -475.5 0 2.59757290910522531
1045 2 3 31.1018 -472.5 0 2.59757290910522531
1046 2 3 31.1018 -469.5 0 2.59757290910522531
1047 2 3 31.1018 -466.5 0 2.59757290910522531
1048 2 3 31.1018 -463.5 0 2.59757290910522531
1049 2 3 31.1018 -460.5 0 2.59757290910522531
1050 2 3 31.1018 -457.5 0 2.59757290910522531
1051 2 3 31.1018 -454.5 0 2.59757290910522531
1052 2 3 31.1018 -451.5 0 2.59757290910522531
1053 2 3 31.1018 -448.5 0 2.59757290910522531
1054 2 3 31.1018 -445.5 0 2.59757290910522531
1055 2 3 31.1018 -442.5 0 2.59757290910522531
1056 2 3 31.1018 -439.5 0 2.59757290910522531
1057 2 3 31.1018 -436.5 0 2.59757290910522531
1058 2 3 31.1018 -433.5 0 2.59757290910522531
1059 2 3 31.1018 -430.5 0 2.59757290910522531
1060 2 3 31.1018 -427.5 0 2.59757290910522531
1061 2 3 31.1018 -424.5 0 2.59757290910522531
1062 2 3 31.1018 -421.5 0 2.59757290910522531
1063 2 3 31.1018 -418.5 0 2.59757290910522531
1064 2 3 31.1018 -415.5 0 2.59757290910522531
1065 2 3 31.1018 -412.5 0 2.59757290910522531
1066 2 3 31.1018 -409.5 0 2.59757290910522531
1067 2 3 31.1018 -406.5 0 2.59757290910522531
1068 2 3 31.1018 -403.5 0 2.59757290910522531
1069 2 3 31.1018 -400.5 0 2.59757290910522531
1070 2 3 31.1018 -397.5 0 2.59757290910522531
1071 2 3 31.1018 -394.5 0 2.59757290910522531
1072 2 3 31.1018 -391.5 0 2.59757290910522531
1073 2 3 31.1018 -388.5 0 2.59757290910522531
1074 2 3 31.1018 -385.5 0 2.59757290910522531
1075 2 3 31.1018 -382.5 0 2.59757290910522531
1076 2 3 31.1018 -379.5 0 2.59757290910522531
1077 2 3 31.1018 -376.5 0 2.59757290910522531
1078 2 3 31.1018 -373.5 0 2.59757290910522531
1079 2 3 31.1018 -370.5 0 2.59757290910522531
1080 2 3 31.1018 -367.5 0 2.59757290910522531
1081 2 3 31.1018 -364.5 0 2.59757290910522531
1082 2 3 31.1018 -361.5 0 2.59757290910522531
1083 2 3 31.1018 -358.5 0 2.59757290910522531
1084 2 3 31.1018 -355.5 0 2.59757290910522531
1085 2 3 31.1018 -352.5 0 2.59757290910522531
1086 2 3 31.1018 -349.5 0 2.59757290910522531
1087 2 3 31.1018 -346.5 0 2.59757290910522531
1088 2 3 31.1018 -343.5 0 2.59757290910522531
1089 2 3 31.1018 -340.5 0 2.59757290910522531
1090 2 3 31.1018 -337.5 0 2.59757290910522531
1091 2 3 31.1018 -334.5 0 2.59757290910522531
1092 2 3 31.1018 -331.5 0 2.59757290910522531
1093 2 3 31.1018 -328.5 0 2.59757290910522531
1094 2 3 31.1018 -325.5 0 2.59757290910522531
1095 2 3 31.1018 -322.5 0 2.59757290910522531
1096 2 3 31.1018 -319.5 0 2.59757290910522531
1097 2 3 31.1018 -316.5 0 2.59757290910522531
1098 2 3 31.1018 -313.5 0 2.59757290910522531
1099 2 3 31.1018 -310.5 0 2.59757290910522531
1100 2 3 31.1018 -307.5 0 2.59757290910522531
1101 2 3 31.1018 -304.5 0 2.59757290910522531
1102 2 3 31.1018 -301.5 0 2.59757290910522531
1103 2 3 31.1018 -298.5 0 2.59757290910522531
1104 2 3 31.1018 -295.5 0 2.59757290910522531
1105 2 3 31.1018 -292.5 0 2.59757290910522531
1106 2 3 31.1018 -289.5 0 2.59757290910522531
1107 2 3 31.1018 -286.5 0 2.59757290910522531
1108 2 3 31.1018 -283.5 0 2.59757290910522531
1109 2 3 31.1018 -280.5 0 2.59757290910522531
1110 2 3 31.1018 -277.5 0 2.59757290910522531
1111 2 3 31.1018 -274.5 0 2.59757290910522531
1112 2 3 31.1018 -271.5 0 2.59757290910522531
1113 2 3 31.1018 -268.5 0 2.59757290910522531
1114 2 3 31.1018 -265.5 0 2.59757290910522531
1115 2 3 31.1018 -262.5 0 2.59757290910522531
1116 2 3 31.1018 -259.5 0 2.59757290910522531
1117 2 3 31.1018 -256.5 0 2.59757290910522531
1118 2 3 31.1018 -253.5 0 2.59757290910522531
1119 2 3 31.1018 -250.5 0 2.59757290910522531
1120 2 3 31.1018 -247.5 0 2.59757290910522531
1121 2 3 31.1018 -244.5 0 2.59757290910522531
1122 2 3 31.1018 -241.5 0 2.59757290910522531
1123 2 3 31.1018 -238.5 0 2.59757290910522531
1124 2 3 31.1018 -235.5 0 2.59757290910522531
1125 2 3 31.1018 -232.5 0 2.59757290910522531
1126 2 3 31.1018 -229.5 0 2.59757290910522531
1127 2 3 31.1018 -226.5 0 2.59757290910522531
1128 2 3 31.1018 -223.5 0 2.59757290910522531
1129 2 3 31.1018 -220.5 0 2.59757290910522531
1130 2 3 31.1018 -217.5 0 2.59757290910522531
1131 2 3 31.1018 -214.5 0 2.59757290910522531
1132 2 3 31.1018 -211.5 0 2.59757290910522531
1133 2 3 31.1018 -208.5 0 2.59757290910522531
1134 2 3 31.1018 -205.5 0 2.59757290910522531
1135 2 3 31.1018 -202.5 0 2.59757290910522531
1136 2 3 31.1018 -199.5 0 2.59757290910522531
1137 2 3 31.1018 -196.5 0 2.59757290910522531
1138 2 3 31.1018 -193.5 0 2.59757290910522531
1139 2 3 31.1018 -190.5 0 2.59757290910522531
1140 2 3 31.1018 -187.5 0 2.59757290910522531
1141 2 3 31.1018 -184.5 0 2.59757290910522531
1142 2 3 31.1018 -181.5 0 2.59757290910522531
1143 2 3 31.1018 -178.5 0 2.59757290910522531
1144 2 3 31.1018 -175.5 0 2.59757290910522531
1145 2 3 31.1018 -172.5 0 2.59757290910522531
1146 2 3 31.1018 -169.5 0 2.59757290910522531
1147 2 3 31.1018 -166.5 0 2.59757290910522531
1148 2 3 31.1018 -163.5 0 2.59757290910522531
1149 2 3 31.1018 -160.5 0 2.59757290910522531
1150 2 3 31.1018 -157.5 0 2.59757290910522531
1151 2 3 31.1018 -154.5 0 2.59757290910522531
1152 2 3 31.1018 -151.5 0 2.59757290910522531
1153 2 3 31.1018 -148.5 0 2.59757290910522531
1154 2 3 31.1018 -145.5 0 2.59757290910522531
1155 2 3 31.1018 -142.5 0 2.59757290910522531
1156 2 3 31.1018 -139.5 0 2.59757290910522531
1157 2 3 31.1018 -136.5 0 2.59757290910522531
1158 2 3 31.1018 -133.5 0 2.59757290910522531
1159 2 3 31.1018 -130.5 0 2.59757290910522531
1160 2 3 31.1018 -127.5 0 2.59757290910522531
1161 2 3 31.1018 -124.5 0 2.59757290910522531
1162 2 3 31.1018 -121.5 0 2.59757290910522531
1163 2 3 31.1018 -118.5 0 2.59757290910522531
1164 2 3 31.1018 -115.5 0 2.59757290910522531
1165 2 3 31.1018 -112.5 0 2.59757290910522531
1166 2 3 31.1018 -109.5 0 2.59757290910522531
1167 2 3 31.1018 -106.5 0 2.59757290910522531
1168 2 3 31.1018 -103.5 0 2.59757290910522531
1169 2 3 31.1018 -100.5 0 2.59757290910522531
1170 2 3 31.1018 -97.5 0 2.59757290910522531
1171 2 3 31.1018 -94.5 0 2.59757290910522531
1172 2 3 31.1018 -91.5 0 2.59757290910522531
1173 2 3 31.1018 -88.5 0 2.59757290910522531
1174 2 3 31.1018 -85.5 0 2.59757290910522531
1175 2 3 31.1018 -82.5 0 2.59757290910522531
1176 2 3 31.1018 -79.5 0 2.59757290910522531
1177 2 3 31.1018 -76.5 0 2.59757290910522531
1178 2 3 31.1018 -73.5 0 2.59757290910522531
1179 2 3 31.1018 -70.5 0 2.59757290910522531
1180 2 3 31.1018 -67.5 0 2.59757290910522531
1181 2 3 31.1018 -64.5 0 2.59757290910522531
1182 2 3 31.1018 -61.5 0 2.59757290910522531
1183 2 3 31.1018 -58.5 0 2.59757290910522531
1184 2 3 31.1018 -55.5 0 2.59757290910522531
1185 2 3 31.1018 -52.5 0 2.59757290910522531
1186 2 3 31.1018 -49.5 0 2.59757290910522531
1187 2 3 31.1018 -46.5 0 2.59757290910522531
1188 2 3 31.1018 -43.5 0 2.59757290910522531
1189 2 3 31.1018 -40.5 0 2.59757290910522531
1190 2 3 31.1018 -37.5 0 2.59757290910522531
1191 2 3 31.1018 -34.5 0 2.59757290910522531
1192 2 3 31.1018 -31.5 0 2.59757290910522531
1193 2 3 31.1018 -28.5 0 2.59757290910522531
1194 2 3 31.1018 -25.5 0 2.59757290910522531
1195 2 3 31.1018 -22.5 0 2.59757290910522531
1196 2 3 31.1018 -19.5 0 2.59757290910522531
1197 2 3 31.1018 -16.5 0 2.59757290910522531
1198 2 3 31.1018 -13.5 0 2.59757290910522531
1199 2 3 31.1018 -10.5 0 2.59757290910522531
1200 2 3 31.1018 -7.5 0 2.59757290910522531
1201 2 3 31.1018 -4.5 0 2.59757290910522531
1202 2 3 31.1018 -1.5 0 2.59757290910522531
451 1 3 31.1018 0 0 0
452 1 3 31.1018 3 0 0
453 1 3 31.1018 6 0 0
454 1 3 31.1018 9 0 0
455 1 3 31.1018 12 0 0
456 1 3 31.1018 15 0 0
457 1 3 31.1018 18 0 0
458 1 3 31.1018 21 0 0
459 1 3 31.1018 24 0 0
460 1 3 31.1018 27 0 0
461 1 3 31.1018 30 0 0
462 1 3 31.1018 33 0 0
463 1 3 31.1018 36 0 0
464 1 3 31.1018 39 0 0
465 1 3 31.1018 42 0 0
466 1 3 31.1018 45 0 0
467 1 3 31.1018 48 0 0
468 1 3 31.1018 51 0 0
469 1 3 31.1018 54 0 0
470 1 3 31.1018 57 0 0
471 1 3 31.1018 60 0 0
472 1 3 31.1018 63 0 0
473 1 3 31.1018 66 0 0
474 1 3 31.1018 69 0 0
475 1 3 31.1018 72 0 0
476 1 3 31.1018 75 0 0
477 1 3 31.1018 78 0 0
478 1 3 31.1018 81 0 0
479 1 3 31.1018 84 0 0
480 1 3 31.1018 87 0 0
481 1 3 31.1018 90 0 0
482 1 3 31.1018 93 0 0
483 1 3 31.1018 96 0 0
484 1 3 31.1018 99 0 0
485 1 3 31.1018 102 0 0
486 1 3 31.1018 105 0 0
487 1 3 31.1018 108 0 0
488 1 3 31.1018 111 0 0
489 1 3 31.1018 114 0 0
490 1 3 31.1018 117 0 0
491 1 3 31.1018 120 0 0
492 1 3 31.1018 123 0 0
493 1 3 31.1018 126 0 0
494 1 3 31.1018 129 0 0
495 1 3 31.1018 132 0 0
496 1 3 31.1018 135 0 0
497 1 3 31.1018 138 0 0
498 1 3 31.1018 141 0 0
499 1 3 31.1018 144 0 0
500 1 3 31.1018 147 0 0
501 1 3 31.1018 150 0 0
502 1 3 31.1018 153 0 0
503 1 3 31.1018 156 0 0
504 1 3 31.1018 159 0 0
505 1 3 31.1018 162 0 0
506 1 3 31.1018 165 0 0
507 1 3 31.1018 168 0 0
508 1 3 31.1018 171 0 0
509 1 3 31.1018 174 0 0
510 1 3 31.1018 177 0 0
511 1 3 31.1018 180 0 0
512 1 3 31.1018 183 0 0
513 1 3 31.1018 186 0 0
514 1 3 31.1018 189 0 0
515 1 3 31.1018 192 0 0
516 1 3 31.1018 195 0 0
517 1 3 31.1018 198 0 0
518 1 3 31.1018 201 0 0
519 1 3 31.1018 204 0 0
520 1 3 31.1018 207 0 0
521 1 3 31.1018 210 0 0
522 1 3 31.1018 213 0 0
523 1 3 31.1018 216 0 0
524 1 3 31.1018 219 0 0
525 1 3 31.1018 222 0 0
526 1 3 31.1018 225 0 0
527 1 3 31.1018 228 0 0
528 1 3 31.1018 231 0 0
529 1 3 31.1018 234 0 0
530 1 3 31.1018 237 0 0
531 1 3 31.1018 240 0 0
532 1 3 31.1018 243 0 0
533 1 3 31.1018 246 0 0
534 1 3 31.1018 249 0 0
535 1 3 31.1018 252 0 0
536 1 3 31.1018 255 0 0
537 1 3 31.1018 258 0 0
538 1 3 31.1018 261 0 0
539 1 3 31.1018 264 0 0
540 1 3 31.1018 267 0 0
541 1 3 31.1018 270 0 0
542 1 3 31.1018 273 0 0
543 1 3 31.1018 276 0 0
544 1 3 31.1018 279 0 0
545 1 3 31.1018 282 0 0
546 1 3 31.1018 285 0 0
547 1 3 31.1018 288 0 0
548 1 3 31.1018 291 0 0
549 1 3 31.1018 294 0 0
550 1 3 31.1018 297 0 0
551 1 3 31.1018 300 0 0
552 1 3 31.1018 303 0 0
553 1 3 31.1018 306 0 0
554 1 3 31.1018 309 0 0
555 1 3 31.1018 312 0 0
556 1 3 31.1018 315 0 0
557 1 3 31.1018 318 0 0
558 1 3 31.1018 321 0 0
559 1 3 31.1018 324 0 0
560 1 3 31.1018 327 0 0
561 1 3 31.1018 330 0 0
562 1 3 31.1018 333 0 0
563 1 3 31.1018 336 0 0
564 1 3 31.1018 339 0 0
565 1 3 31.1018 342 0 0
566 1 3 31.1018 345 0 0
567 1 3 31.1018 348 0 0
568 1 3 31.1018 351 0 0
569 1 3 31.1018 354 0 0
570 1 3 31.1018 357 0 0
571 1 3 31.1018 360 0 0
572 1 3 31.1018 363 0 0
573 1 3 31.1018 366 0 0
574 1 3 31.1018 369 0 0
575 1 3 31.1018 372 0 0
576 1 3 31.1018 375 0 0
577 1 3 31.1018 378 0 0
578 1 3 31.1018 381 0 0
579 1 3 31.1018 384 0 0
580 1 3 31.1018 387 0 0
581 1 3 31.1018 390 0 0
582 1 3 31.1018 393 0 0
583 1 3 31.1018 396 0 0
584 1 3 31.1018 399 0 0
585 1 3 31.1018 402 0 0
586 1 3 31.1018 405 0 0
587 1 3 31.1018 408 0 0
588 1 3 31.1018 411 0 0
589 1 3 31.1018 414 0 0
590 1 3 31.1018 417 0 0
591 1 3 31.1018 420 0 0
592 1 3 31.1018 423 0 0
593 1 3 31.1018 426 0 0
594 1 3 31.1018 429 0 0
595 1 3 31.1018 432 0 0
596 1 3 31.1018 435 0 0
597 1 3 31.1018 438 0 0
598 1 3 31.1018 441 0 0
599 1 3 31.1018 444 0 0
600 1 3 31.1018 447 0 0
601 1 3 31.1018 450 0 0
602 1 3 31.1018 453 0 0
603 1 3 31.1018 456 0 0
604 1 3 31.1018 459 0 0
605 1 3 31.1018 462 0 0
606 1 3 31.1018 465 0 0
607 1 3 31.1018 468 0 0
608 1 3 31.1018 471 0 0
609 1 3 31.1018 474 0 0
610 1 3 31.1018 477 0 0
611 1 3 31.1018 480 0 0
612 1 3 31.1018 483 0 0
613 1 3 31.1018 486 0 0
614 1 3 31.1018 489 0 0
615 1 3 31.1018 492 0 0
616 1 3 31.1018 495 0 0
617 1 3 31.1018 498 0 0
618 1 3 31.1018 501 0 0
619 1 3 31.1018 504 0 0
620 1 3 31.1018 507 0 0
621 1 3 31.1018 510 0 0
622 1 3 31.1018 513 0 0
623 1 3 31.1018 516 0 0
624 1 3 31.1018 519 0 0
625 1 3 31.1018 522 0 0
626 1 3 31.1018 525 0 0
627 1 3 31.1018 528 0 0
628 1 3 31.1018 531 0 0
629 1 3 31.1018 534 0 0
630 1 3 31.1018 537 0 0
631 1 3 31.1018 540 0 0
632 1 3 31.1018 543 0 0
633 1 3 31.1018 546 0 0
634 1 3 31.1018 549 0 0
635 1 3 31.1018 552 0 0
636 1 3 31.1018 555 0 0
637 1 3 31.1018 558 0 0
638 1 3 31.1018 561 0 0
639 1 3 31.1018 564 0 0
640 1 3 31.1018 567 0 0
641 1 3 31.1018 570 0 0
642 1 3 31.1018 573 0 0
643 1 3 31.1018 576 0 0
644 1 3 31.1018 579 0 0
645 1 3 31.1018 582 0 0
646 1 3 31.1018 585 0 0
647 1 3 31.1018 588 0 0
648 1 3 31.1018 591 0 0
649 1 3 31.1018 594 0 0