ITEM: TIMESTEP
200000
ITEM: NUMBER OF ATOMS
5001
ITEM: BOX BOUNDS pp pp pp
-4.5000000000000000e+03 4.5000000000000000e+03
-1.0000000000000000e+02 1.0000000000000000e+02
-1.0000000000000000e+02 1.0000000000000000e+02
ITEM: ATOMS id type diameter mass xu yu zu
1 1 3 31.1018 -4500 0 0
2 1 3 31.1018 -4497 0 0
3 1 3 31.1018 -4494 0 0
4 1 3 31.1018 -4491 0 0
5 1 3 31.1018 -4488 0 0
6 1 3 31.1018 -4485 0 0
7 1 3 31.1018 -4482 0 0
8 1 3 31.1018 -4479 0 0
9 1 3 31.1018 -4476 0 0
10 1 3 31.1018 -4473 0 0
11 1 3 31.1018 -4470 0 0
12 1 3 31.1018 -4467 0 0
13 1 3 31.1018 -4464 0 0
14 1 3 31.1018 -4461 0 0
15 1 3 31.1018 -4458 0 0
16 1 3 31.1018 -4455 0 0
17 1 3 31.1018 -4452 0 0
18 1 3 31.1018 -4449 0 0
19 1 3 31.1018 -4446 0 0
20 1 3 31.1018 -4443 0 0
21 1 3 31.1018 -4440 0 0
22 1 3 31.1018 -4437 0 0
23 1 3 31.1018 -4434 0 0
24 1 3 31.1018 -4431 0 0
25 1 3 31.1018 -4428 0 0
26 1 3 31.1018 -4425 0 0
27 1 3 31.1018 -4422 0 0
28 1 3 31.1018 -4419 0 0
29 1 3 31.1018 -4416 0 0
30 1 3 31.1018 -4413 0 0
31 1 3 31.1018 -4410 0 0
32 1 3 31.1018 -4407 0 0
33 1 3 31.1018 -4404 0 0
34 1 3 31.1018 -4401 0 0
35 1 3 31.1018 -4398 0 0
36 1 3 31.1018 -4395 0 0
37 1 3 31.1018 -4392 0 0
38 1 3 31.1018 -4389 0 0
39 1 3 31.1018 -4386 0 0
40 1 3 31.1018 -4383 0 0
41 1 3 31.1018 -4380 0 0
42 1 3 31.1018 -4377 0 0
43 1 3 31.1018 -4374 0 0
44 1 3 31.1018 -4371 0 0
45 1 3 31.1018 -4368 0 0
46 1 3 31.1018 -4365 0 0
47 1 3 31.1018 -4362 0 0
48 1 3 31.1018 -4359 0 0
49 1 3 31.1018 -4356 0 0
50 1 3 31.1018 -4353 0 0
51 1 3 31.1018 -4350 0 0
52 1 3 31.1018 -4347 0 0
53 1 3 31.1018 -4344 0 0
54 1 3 31.1018 -4341 0 0
55 1 3 31.1018 -4338 0 0
56 1 3 31.1018 -4335 0 0
57 1 3 31.1018 -4332 0 0
58 1 3 31.1018 -4329 0 0
59 1 3 31.1018 -4326 0 0
60 1 3 31.1018 -4323 0 0
61 1 3 31.1018 -4320 0 0
62 1 3 31.1018 -4317 0 0
63 1 3 31.1018 -4314 0 0
64 1 3 31.1018 -4311 0 0
65 1 3 31.1018 -4308 0 0
66 1 3 31.1018 -4305 0 0
67 1 3 31.1018 -4302 0 0
68 1 3 31.1018 -4299 0 0
69 1 3 31.1018 -4296 0 0
70 1 3 31.1018 -4293 0 0
71 1 3 31.1018 -4290 0 0
72 1 3 31.1018 -4287 0 0
73 1 3 31.1018 -4284 0 0
74 1 3 31.1018 -4281 0 0
75 1 3 31.1018 -4278 0 0
76 1 3 31.1018 -4275 0 0
77 1 3 31.1018 -4272 0 0
78 1 3 31.1018 -4269 0 0
79 1 3 31.1018 -4266 0 0
80 1 3 31.1018 -4263 0 0
81 1 3 31.1018 -4260 0 0
82 1 3 31.1018 -4257 0 0
83 1 3 31.1018 -4254 0 0
84 1 3 31.1018 -4251 0 0
85 1 3 31.1018 -4248 0 0
86 1 3 31.1018 -4245 0 0
87 1 3 31.1018 -4242 0 0
88 1 3 31.1018 -4239 0 0
89 1 3 31.1018 -4236 0 0
90 1 3 31.1018 -4233 0 0
91 1 3 31.1018 -4230 0 0
92 1 3 31.1018 -4227 0 0
93 1 3 31.1018 -4224 0 0
94 1 3 31.1018 -4221 0 0
95 1 3 31.1018 -4218 0 0
96 1 3 31.1018 -4215 0 0
97 1 3 31.1018 -4212 0 0
98 1 3 31.1018 -4209 0 0
99 1 3 31.1018 -4206 0 0
100 1 3 31.1018 -4203 0 0
101 1 3 31.1018 -4200 0 0
102 1 3 31.1018 -4197 0 0
103 1 3 31.1018 -4194 0 0
104 1 3 31.1018 -4191 0 0
105 1 3 31.1018 -4188 0 0
106 1 3 31.1018 -4185 0 0
107 1 3 31.1018 -4182 0 0
108 1 3 31.1018 -4179 0 0
109 1 3 31.1018 -4176 0 0
110 1 3 31.1018 -4173 0 0
111 1 3 31.1018 -4170 0 0
112 1 3 31.1018 -4167 0 0
113 1 3 31.1018 -4164 0 0
114 1 3 31.1018 -4161 0 0
115 1 3 31.1018 -4158 0 0
116 1 3 31.1018 -4155 0 0
117 1 3 31.1018 -4152 0 0
118 1 3 31.1018 -4149 0 0
119 1 3 31.1018 -4146 0 0
120 1 3 31.1018 -4143 0 0
121 1 3 31.1018 -4140 0 0
122 1 3 31.1018 -4137 0 0
123 1 3 31.1018 -4134 0 0
124 1 3 31.1018 -4131 0 0
125 1 3 31.1018 -4128 0 0
126 1 3 31.1018 -4125 0 0
127 1 3 31.1018 -4122 0 0
128 1 3 31.1018 -4119 0 0
129 1 3 31.1018 -4116 0 0
130 1 3 31.1018 -4113 0 0
131 1 3 31.1018 -4110 0 0
132 1 3 31.1018 -4107 0 0
133 1 3 31.1018 -4104 0 0
134 1 3 31.1018 -4101 0 0
135 1 3 31.1018 -4098 0 0
136 1 3 31.1018 -4095 0 0
137 1 3 31.1018 -4092 0 0
138 1 3 31.1018 -4089 0 0
139 1 3 31.1018 -4086 0 0
140 1 3 31.1018 -4083 0 0
141 1 3 31.1018 -4080 0 0
142 1 3 31.1018 -4077 0 0
143 1 3 31.1018 -4074 0 0
144 1 3 31.1018 -4071 0 0
145 1 3 31.1018 -4068 0 0
146 1 3 31.1018 -4065 0 0
147 1 3 31.1018 -4062 0 0
148 1 3 31.1018 -4059 0 0
149 1 3 31.1018 -4056 0 0
150 1 3 31.1018 -4053 0 0
151 1 3 31.1018 -4050 0 0
152 1 3 31.1018 -4047 0 0
153 1 3 31.1018 -4044 0 0
154 1 3 31.1018 -4041 0 0
155 1 3 31.1018 -4038 0 0
156 1 3 31.1018 -4035 0 0
157 1 3 31.1018 -4032 0 0
158 1 3 31.1018 -4029 0 0
159 1 3 31.1018 -4026 0 0
160 1 3 31.1018 -4023 0 0
161 1 3 31.1018 -4020 0 0
162 1 3 31.1018 -4017 0 0
163 1 3 31.1018 -4014 0 0
164 1 3 31.1018 -4011 0 0
165 1 3 31.1018 -4008 0 0
166 1 3 31.1018 -4005 0 0
167 1 3 31.1018 -4002 0 0
168 1 3 31.1018 -3999 0 0
169 1 3 31.1018 -3996 0 0
170 1 3 31.1018 -3993 0 0
171 1 3 31.1018 -3990 0 0
172 1 3 31.1018 -3987 0 0
173 1 3 31.1018 -3984 0 0
174 1 3 31.1018 -3981 0 0
175 1 3 31.1018 -3978 0 0
176 1 3 31.1018 -3975 0 0
177 1 3 31.1018 -3972 0 0
178 1 3 31.1018 -3969 0 0
179 1 3 31.1018 -3966 0 0
180 1 3 31.1018 -3963 0 0
181 1 3 31.1018 -3960 0 0
182 1 3 31.1018 -3957 0 0
183 1 3 31.1018 -3954 0 0
184 1 3 31.1018 -3951 0 0
185 1 3 31.1018 -3948 0 0
186 1 3 31.1018 -3945 0 0
187 1 3 31.1018 -3942 0 0
188 1 3 31.1018 -3939 0 0
189 1 3 31.1018 -3936 0 0
190 1 3 31.1018 -3933 0 0
191 1 3 31.1018 -3930 0 0
192 1 3 31.1018 -3927 0 0
193 1 3 31.1018 -3924 0 0
194 1 3 31.1018 -3921 0 0
195 1 3 31.1018 -3918 0 0
196 1 3 31.1018 -3915 0 0
197 1 3 31.1018 -3912 0 0
198 1 3 31.1018 -3909 0 0
199 1 3 31.1018 -3906 0 0
200 1 3 31.1018 -3903 0 0
201 1 3 31.1018 -3900 0 0
202 1 3 31.1018 -3897 0 0
203 1 3 31.1018 -3894 0 0
204 1 3 31.1018 -3891 0 0
205 1 3 31.1018 -3888 0 0
206 1 3 31.1018 -3885 0 0
207 1 3 31.1018 -3882 0 0
208 1 3 31.1018 -3879 0 0
209 1 3 31.1018 -3876 0 0
210 1 3 31.1018 -3873 0 0
211 1 3 31.1018 -3870 0 0
212 1 3 31.1018 -3867 0 0
213 1 3 31.1018 -3864 0 0
214 1 3 31.1018 -3861 0 0
215 1 3 31.1018 -3858 0 0
216 1 3 31.1018 -3855 0 0
217 1 3 31.1018 -3852 0 0
218 1 3 31.1018 -3849 0 0
219 1 3 31.1018 -3846 0 0
220 1 3 31.1018 -3843 0 0
221 1 3 31.1018 -3840 0 0
222 1 3 31.1018 -3837 0 0
223 1 3 31.1018 -3834 0 0
224 1 3 31.1018 -3831 0 0
225 1 3 31.1018 -3828 0 0
226 1 3 31.1018 -3825 0 0
227 1 3 31.1018 -3822 0 0
228 1 3 31.1018 -3819 0 0
229 1 3 31.1018 -3816 0 0
230 1 3 31.1018 -3813 0 0
231 1 3 31.1018 -3810 0 0
232 1 3 31.1018 -3807 0 0
233 1 3 31.1018 -3804 0 0
234 1 3 31.1018 -3801 0 0
235 1 3 31.1018 -3798 0 0
236 1 3 31.1018 -3795 0 0
237 1 3 31.1018 -3792 0 0
238 1 3 31.1018 -3789 0 0
239 1 3 31.1018 -3786 0 0
240 1 3 31.1018 -3783 0 0
241 1 3 31.1018 -3780 0 0
242 1 3 31.1018 -3777 0 0
243 1 3 31.1018 -3774 0 0
244 1 3 31.1018 -3771 0 0
245 1 3 31.1018 -3768 0 0
246 1 3 31.1018 -3765 0 0
247 1 3 31.1018 -3762 0 0
248 1 3 31.1018 -3759 0 0
249 1 3 31.1018 -3756 0 0
250 1 3 31.1018 -3753 0 0
251 1 3 31.1018 -3750 0 0
252 1 3 31.1018 -3747 0 0
253 1 3 31.1018 -3744 0 0
254 1 3 31.1018 -3741 0 0
255 1 3 31.1018 -3738 0 0
256 1 3 31.1018 -3735 0 0
257 1 3 31.1018 -3732 0 0
258 1 3 31.1018 -3729 0 0
259 1 3 31.1018 -3726 0 0
260 1 3 31.1018 -3723 0 0
261 1 3 31.1018 -3720 0 0
262 1 3 31.1018 -3717 0 0
263 1 3 31.1018 -3714 0 0
264 1 3 31.1018 -3711 0 0
265 1 3 31.1018 -3708 0 0
266 1 3 31.1018 -3705 0 0
267 1 3 31.1018 -3702 0 0
268 1 3 31.1018 -3699 0 0
269 1 3 31.1018 -3696 0 0
270 1 3 31.1018 -3693 0 0
271 1 3 31.1018 -3690 0 0
272 1 3 31.1018 -3687 0 0
273 1 3 31.1018 -3684 0 0
274 1 3 31.1018 -3681 0 0
275 1 3 31.1018 -3678 0 0
276 1 3 31.1018 -3675 0 0
277 1 3 31.1018 -3672 0 0
278 1 3 31.1018 -3669 0 0
279 1 3 31.1018 -3666 0 0
280 1 3 31.1018 -3663 0 0
281 1 3 31.1018 -3660 0 0
282 1 3 31.1018 -3657 0 0
283 1 3 31.1018 -3654 0 0
284 1 3 31.1018 -3651 0 0
285 1 3 31.1018 -3648 0 0
286 1 3 31.1018 -3645 0 0
287 1 3 31.1018 -3642 0 0
288 1 3 31.1018 -3639 0 0
289 1 3 31.1018 -3636 0 0
290 1 3 31.1018 -3633 0 0
291 1 3 31.1018 -3630 0 0
292 1 3 31.1018 -3627 0 0
293 1 3 31.1018 -3624 0 0
294 1 3 31.1018 -3621 0 0
295 1 3 31.1018 -3618 0 0
296 1 3 31.1018 -3615 0 0
297 1 3 31.1018 -3612 0 0
298 1 3 31.1018 -3609 0 0
299 1 3 31.1018 -3606 0 0
300 1 3 31.1018 -3603 0 0
301 1 3 31.1018 -3600 0 0
302 1 3 31.1018 -3597 0 0
303 1 3 31.1018 -3594 0 0
304 1 3 31.1018 -3591 0 0
305 1 3 31.1018 -3588 0 0
306 1 3 31.1018 -3585 0 0
307 1 3 31.1018 -3582 0 0
308 1 3 31.1018 -3579 0 0
309 1 3 31.1018 -3576 0 0
310 1 3 31.1018 -3573 0 0
311 1 3 31.1018 -3570 0 0
312 1 3 31.1018 -3567 0 0
313 1 3 31.1018 -3564 0 0
314 1 3 31.1018 -3561 0 0
315 1 3 31.1018 -3558 0 0
316 1 3 31.1018 -3555 0 0
317 1 3 31.1018 -3552 0 0
318 1 3 31.1018 -3549 0 0
319 1 3 31.1018 -3546 0 0
320 1 3 31.1018 -3543 0 0
321 1 3 31.1018 -3540 0 0
322 1 3 31.1018 -3537 0 0
323 1 3 31.1018 -3534 0 0
324 1 3 31.1018 -3531 0 0
325 1 3 31.1018 -3528 0 0
326 1 3 31.1018 -3525 0 0
327 1 3 31.1018 -3522 0 0
328 1 3 31.1018 -3519 0 0
329 1 3 31.1018 -3516 0 0
330 1 3 31.1018 -3513 0 0
331 1 3 31.1018 -3510 0 0
332 1 3 31.1018 -3507 0 0
333 1 3 31.1018 -3504 0 0
334 1 3 31.1018 -3501 0 0
335 1 3 31.1018 -3498 0 0
336 1 3 31.1018 -3495 0 0
337 1 3 31.1018 -3492 0 0
338 1 3 31.1018 -3489 0 0
339 1 3 31.1018 -3486 0 0
340 1 3 31.1018 -3483 0 0
341 1 3 31.1018 -3480 0 0
342 1 3 31.1018 -3477 0 0
343 1 3 31.1018 -3474 0 0
344 1 3 31.1018 -3471 0 0
345 1 3 31.1018 -3468 0 0
346 1 3 31.1018 -3465 0 0
347 1 3 31.1018 -3462 0 0
348 1 3 31.1018 -3459 0 0
349 1 3 31.1018 -3456 0 0
350 1 3 31.1018 -3453 0 0
351 1 3 31.1018 -3450 0 0
352 1 3 31.1018 -3447 0 0
353 1 3 31.1018 -3444 0 0
354 1 3 31.1018 -3441 0 0
355 1 3 31.1018 -3438 0 0
356 1 3 31.1018 -3435 0 0
357 1 3 31.1018 -3432 0 0
358 1 3 31.1018 -3429 0 0
359 1 3 31.1018 -3426 0 0
360 1 3 31.1018 -3423 0 0
361 1 3 31.1018 -3420 0 0
362 1 3 31.1018 -3417 0 0
363 1 3 31.1018 -3414 0 0
364 1 3 31.1018 -3411 0 0
365 1 3 31.1018 -3408 0 0
366 1 3 31.1018 -3405 0 0
367 1 3 31.1018 -3402 0 0
368 1 3 31.1018 -3399 0 0
369 1 3 31.1018 -3396 0 0
370 1 3 31.1018 -3393 0 0
371 1 3 31.1018 -3390 0 0
372 1 3 31.1018 -3387 0 0
373 1 3 31.1018 -3384 0 0
374 1 3 31.1018 -3381 0 0
375 1 3 31.1018 -3378 0 0
376 1 3 31.1018 -3375 0 0
377 1 3 31.1018 -3372 0 0
378 1 3 31.1018 -3369 0 0
379 1 3 31.1018 -3366 0 0
380 1 3 31.1018 -3363 0 0
381 1 3 31.1018 -3360 0 0
382 1 3 31.1018 -3357 0 0
383 1 3 31.1018 -3354 0 0
384 1 3 31.1018 -3351 0 0
385 1 3 31.1018 -3348 0 0
386 1 3 31.1018 -3345 0 0
387 1 3 31.1018 -3342 0 0
388 1 3 31.1018 -3339 0 0
389 1 3 31.1018 -3336 0 0
390 1 3 31.1018 -3333 0 0
391 1 3 31.1018 -3330 0 0
392 1 3 31.1018 -3327 0 0
393 1 3 31.1018 -3324 0 0
394 1 3 31.1018 -3321 0 0
395 1 3 31.1018 -3318 0 0
396 1 3 31.1018 -3315 0 0
397 1 3 31.1018 -3312 0 0
398 1 3 31.1018 -3309 0 0
399 1 3 31.1018 -3306 0 0
400 1 3 31.1018 -3303 0 0
401 1 3 31.1018 -3300 0 0
402 1 3 31.1018 -3297 0 0
403 1 3 31.1018 -3294 0 0
404 1 3 31.1018 -3291 0 0
405 1 3 31.1018 -3288 0 0
406 1 3 31.1018 -3285 0 0
407 1 3 31.1018 -3282 0 0
408 1 3 31.1018 -3279 0 0
409 1 3 31.1018 -3276 0 0
410 1 3 31.1018 -3273 0 0
411 1 3 31.1018 -3270 0 0
412 1 3 31.1018 -3267 0 0
413 1 3 31.1018 -3264 0 0
414 1 3 31.1018 -3261 0 0
415 1 3 31.1018 -3258 0 0
416 1 3 31.1018 -3255 0 0
417 1 3 31.1018 -3252 0 0
418 1 3 31.1018 -3249 0 0
419 1 3 31.1018 -3246 0 0
420 1 3 31.1018 -3243 0 0
421 1 3 31.1018 -3240 0 0
422 1 3 31.1018 -3237 0 0
423 1 3 31.1018 -3234 0 0
424 1 3 31.1018 -3231 0 0
425 1 3 31.1018 -3228 0 0
426 1 3 31.1018 -3225 0 0
427 1 3 31.1018 -3222 0 0
428 1 3 31.1018 -3219 0 0
429 1 3 31.1018 -3216 0 0
430 1 3 31.1018 -3213 0 0
431 1 3 31.1018 -3210 0 0
432 1 3 31.1018 -3207 0 0
433 1 3 31.1018 -3204 0 0
434 1 3 31.1018 -3201 0 0
435 1 3 31.1018 -3198 0 0
436 1 3 31.1018 -3195 0 0
437 1 3 31.1018 -3192 0 0
438 1 3 31.1018 -3189 0 0
439 1 3 31.1018 -3186 0 0
440 1 3 31.1018 -3183 0 0
441 1 3 31.1018 -3180 0 0
442 1 3 31.1018 -3177 0 0
443 1 3 31.1018 -3174 0 0
444 1 3 31.1018 -3171 0 0
445 1 3 31.1018 -3168 0 0
446 1 3 31.1018 -3165 0 0
447 1 3 31.1018 -3162 0 0
448 1 3 31.1018 -3159 0 0
449 1 3 31.1018 -3156 0 0
450 1 3 31.1018 -3153 0 0
451 1 3 31.1018 -3150 0 0
452 1 3 31.1018 -3147 0 0
453 1 3 31.1018 -3144 0 0
454 1 3 31.1018 -3141 0 0
455 1 3 31.1018 -3138 0 0
456 1 3 31.1018 -3135 0 0
457 1 3 31.1018 -3132 0 0
458 1 3 31.1018 -3129 0 0
459 1 3 31.1018 -3126 0 0
460 1 3 31.1018 -3123 0 0
461 1 3 31.1018 -3120 0 0
462 1 3 31.1018 -3117 0 0
463 1 3 31.1018 -3114 0 0
464 1 3 31.1018 -3111 0 0
465 1 3 31.1018 -3108 0 0
466 1 3 31.1018 -3105 0 0
467 1 3 31.1018 -3102 0 0
468 1 3 31.1018 -3099 0 0
469 1 3 31.1018 -3096 0 0
470 1 3 31.1018 -3093 0 0
471 1 3 31.1018 -3090 0 0
472 1 3 31.1018 -3087 0 0
473 1 3 31.1018 -3084 0 0
474 1 3 31.1018 -3081 0 0
475 1 3 31.1018 -3078 0 0
476 1 3 31.1018 -3075 0 0
477 1 3 31.1018 -3072 0 0
478 1 3 31.1018 -3069 0 0
479 1 3 31.1018 -3066 0 0
480 1 3 31.1018 -3063 0 0
481 1 3 31.1018 -3060 0 0
482 1 3 31.1018 -3057 0 0
483 1 3 31.1018 -3054 0 0
484 1 3 31.1018 -3051 0 0
485 1 3 31.1018 -3048 0 0
486 1 3 31.1018 -3045 0 0
487 1 3 31.1018 -3042 0 0
488 1 3 31.1018 -3039 0 0
489 1 3 31.1018 -3036 0 0
490 1 3 31.1018 -3033 0 0
491 1 3 31.1018 -3030 0 0
492 1 3 31.1018 -3027 0 0
493 1 3 31.1018 -3024 0 0
494 1 3 31.1018 -3021 0 0
495 1 3 31.1018 -3018 0 0
496 1 3 31.1018 -3015 0 0
497 1 3 31.1018 -3012 0 0
498 1 3 31.1018 -3009 0 0
499 1 3 31.1018 -3006 0 0
500 1 3 31.1018 -3003 0 0
501 1 3 31.1018 -3000 0 0
502 1 3 31.1018 -2997 0 0
503 1 3 31.1018 -2994 0 0
504 1 3 31.1018 -2991 0 0
505 1 3 31.1018 -2988 0 0
506 1 3 31.1018 -2985 0 0
507 1 3 31.1018 -2982 0 0
508 1 3 31.1018 -2979 0 0
509 1 3 31.1018 -2976 0 0
510 1 3 31.1018 -2973 0 0
511 1 3 31.1018 -2970 0 0
512 1 3 31.1018 -2967 0 0
513 1 3 31.1018 -2964 0 0
514 1 3 31.1018 -2961 0 0
515 1 3 31.1018 -2958 0 0
516 1 3 31.1018 -2955 0 0
517 1 3 31.1018 -2952 0 0
518 1 3 31.1018 -2949 0 0
519 1 3 31.1018 -2946 0 0
520 1 3 31.1018 -2943 0 0
521 1 3 31.1018 -2940 0 0
522 1 3 31.1018 -2937 0 0
523 1 3 31.1018 -2934 0 0
524 1 3 31.1018 -2931 0 0
525 1 3 31.1018 -2928 0 0
526 1 3 31.1018 -2925 0 0
527 1 3 31.1018 -2922 0 0
528 1 3 31.1018 -2919 0 0
529 1 3 31.1018 -2916 0 0
530 1 3 31.1018 -2913 0 0
531 1 3 31.1018 -2910 0 0
532 1 3 31.1018 -2907 0 0
533 1 3 31.1018 -2904 0 0
534 1 3 31.1018 -2901 0 0
535 1 3 31.1018 -2898 0 0
536 1 3 31.1018 -2895 0 0
537 1 3 31.1018 -2892 0 0
538 1 3 31.1018 -2889 0 0
539 1 3 31.1018 -2886 0 0
540 1 3 31.1018 -2883 0 0
541 1 3 31.1018 -2880 0 0
542 1 3 31.1018 -2877 0 0
543 1 3 31.1018 -2874 0 0
544 1 3 31.1018 -2871 0 0
545 1 3 31.1018 -2868 0 0
546 1 3 31.1018 -2865 0 0
547 1 3 31.1018 -2862 0 0
548 1 3 31.1018 -2859 0 0
549 1 3 31.1018 -2856 0 0
550 1 3 31.1018 -2853 0 0
551 1 3 31.1018 -2850 0 0
552 1 3 31.1018 -2847 0 0
553 1 3 31.1018 -2844 0 0
554 1 3 31.1018 -2841 0 0
555 1 3 31.1018 -2838 0 0
556 1 3 31.1018 -2835 0 0
557 1 3 31.1018 -2832 0 0
558 1 3 31.1018 -2829 0 0
559 1 3 31.1018 -2826 0 0
560 1 3 31.1018 -2823 0 0
561 1 3 31.1018 -2820 0 0
562 1 3 31.1018 -2817 0 0
563 1 3 31.1018 -2814 0 0
564 1 3 31.1018 -2811 0 0
565 1 3 31.1018 -2808 0 0
566 1 3 31.1018 -2805 0 0
567 1 3 31.1018 -2802 0 0
568 1 3 31.1018 -2799 0 0
569 1 3 31.1018 -2796 0 0
570 1 3 31.1018 -2793 0 0
571 1 3 31.1018 -2790 0 0
572 1 3 31.1018 -2787 0 0
573 1 3 31.1018 -2784 0 0
574 1 3 31.1018 -2781 0 0
575 1 3 31.1018 -2778 0 0
576 1 3 31.1018 -2775 0 0
577 1 3 31.1018 -2772 0 0
578 1 3 31.1018 -2769 0 0
579 1 3 31.1018 -2766 0 0
580 1 3 31.1018 -2763 0 0
581 1 3 31.1018 -2760 0 0
582 1 3 31.1018 -2757 0 0
583 1 3 31.1018 -2754 0 0
584 1 3 31.1018 -2751 0 0
585 1 3 31.1018 -2748 0 0
586 1 3 31.1018 -2745 0 0
587 1 3 31.1018 -2742 0 0
588 1 3 31.1018 -2739 0 0
589 1 3 31.1018 -2736 0 0
590 1 3 31.1018 -2733 0 0
591 1 3 31.1018 -2730 0 0
592 1 3 31.1018 -2727 0 0
593 1 3 31.1018 -2724 0 0
594 1 3 31.1018 -2721 0 0
595 1 3 31.1018 -2718 0 0
596 1 3 31.1018 -2715 0 0
597 1 3 31.1018 -2712 0 0
598 1 3 31.1018 -2709 0 0
599 1 3 31.1018 -2706 0 0
600 1 3 31.1018 -2703 0 0
601 1 3 31.1018 -2700 0 0
602 1 3 31.1018 -2697 0 0
603 1 3 31.1018 -2694 0 0
604 1 3 31.1018 -2691 0 0
605 1 3 31.1018 -2688 0 0
606 1 3 31.1018 -2685 0 0
607 1 3 31.1018 -2682 0 0
608 1 3 31.1018 -2679 0 0
609 1 3 31.1018 -2676 0 0
610 1 3 31.1018 -2673 0 0
611 1 3 31.1018 -2670 0 0
612 1 3 31.1018 -2667 0 0
613 1 3 31.1018 -2664 0 0
614 1 3 31.1018 -2661 0 0
615 1 3 31.1018 -2658 0 0
616 1 3 31.1018 -2655 0 0
617 1 3 31.1018 -2652 0 0
618 1 3 31.1018 -2649 0 0
619 1 3 31.1018 -2646 0 0
620 1 3 31.1018 -2643 0 0
621 1 3 31.1018 -2640 0 0
622 1 3 31.1018 -2637 0 0
623 1 3 31.1018 -2634 0 0
624 1 3 31.1018 -2631 0 0
625 1 3 31.1018 -2628 0 0
626 1 3 31.1018 -2625 0 0
627 1 3 31.1018 -2622 0 0
628 1 3 31.1018 -2619 0 0
629 1 3 31.1018 -2616 0 0
630 1 3 31.1018 -2613 0 0
631 1 3 31.1018 -2610 0 0
632 1 3 31.1018 -2607 0 0
633 1 3 31.1018 -2604 0 0
634 1 3 31.1018 -2601 0 0
635 1 3 31.1018 -2598 0 0
636 1 3 31.1018 -2595 0 0
637 1 3 31.1018 -2592 0 0
638 1 3 31.1018 -2589 0 0
639 1 3 31.1018 -2586 0 0
640 1 3 31.1018 -2583 0 0
641 1 3 31.1018 -2580 0 0
642 1 3 31.1018 -2577 0 0
643 1 3 31.1018 -2574 0 0
644 1 3 31.1018 -2571 0 0
645 1 3 31.1018 -2568 0 0
646 1 3 31.1018 -2565 0 0
647 1 3 31.1018 -2562 0 0
648 1 3 31.1018 -2559 0 0
649 1 3 31.1018 -2556 0 0
650 1 3 31.1018 -2553 0 0
651 1 3 31.1018 -2550 0 0
652 1 3 31.1018 -2547 0 0
653 1 3 31.1018 -2544 0 0
654 1 3 31.1018 -2541 0 0
655 1 3 31.1018 -2538 0 0
656 1 3 31.1018 -2535 0 0
657 1 3 31.1018 -2532 0 0
658 1 3 31.1018 -2529 0 0
659 1 3 31.1018 -2526 0 0
660 1 3 31.1018 -2523 0 0
661 1 3 31.1018 -2520 0 0
662 1 3 31.1018 -2517 0 0
663 1 3 31.1018 -2514 0 0
664 1 3 31.1018 -2511 0 0
665 1 3 31.1018 -2508 0 0
666 1 3 31.1018 -2505 0 0
667 1 3 31.1018 -2502 0 0
668 1 3 31.1018 -2499 0 0
669 1 3 31.1018 -2496 0 0
670 1 3 31.1018 -2493 0 0
671 1 3 31.1018 -2490 0 0
672 1 3 31.1018 -2487 0 0
673 1 3 31.1018 -2484 0 0
674 1 3 31.1018 -2481 0 0
675 1 3 31.1018 -2478 0 0
676 1 3 31.1018 -2475 0 0
677 1 3 31.1018 -2472 0 0
678 1 3 31.1018 -2469 0 0
679 1 3 31.1018 -2466 0 0
680 1 3 31.1018 -2463 0 0
681 1 3 31.1018 -2460 0 0
682 1 3 31.1018 -2457 0 0
683 1 3 31.1018 -2454 0 0
684 1 3 31.1018 -2451 0 0
685 1 3 31.1018 -2448 0 0
686 1 3 31.1018 -2445 0 0
687 1 3 31.1018 -2442 0 0
688 1 3 31.1018 -2439 0 0
689 1 3 31.1018 -2436 0 0
690 1 3 31.1018 -2433 0 0
691 1 3 31.1018 -2430 0 0
692 1 3 31.1018 -2427 0 0
693 1 3 31.1018 -2424 0 0
694 1 3 31.1018 -2421 0 0
695 1 3 31.1018 -2418 0 0
696 1 3 31.1018 -2415 0 0
697 1 3 31.1018 -2412 0 0
698 1 3 31.1018 -2409 0 0
699 1 3 31.1018 -2406 0 0
700 1 3 31.1018 -2403 0 0
701 1 3 31.1018 -2400 0 0
702 1 3 31.1018 -2397 0 0
703 1 3 31.1018 -2394 0 0
704 1 3 31.1018 -2391 0 0
705 1 3 31.1018 -2388 0 0
706 1 3 31.1018 -2385 0 0
707 1 3 31.1018 -2382 0 0
708 1 3 31.1018 -2379 0 0
709 1 3 31.1018 -2376 0 0
710 1 3 31.1018 -2373 0 0
711 1 3 31.1018 -2370 0 0
712 1 3 31.1018 -2367 0 0
713 1 3 31.1018 -2364 0 0
714 1 3 31.1018 -2361 0 0
715 1 3 31.1018 -2358 0 0
716 1 3 31.1018 -2355 0 0
717 1 3 31.1018 -2352 0 0
718 1 3 31.1018 -2349 0 0
719 1 3 31.1018 -2346 0 0
720 1 3 31.1018 -2343 0 0
721 1 3 31.1018 -2340 0 0
722 1 3 31.1018 -2337 0 0
723 1 3 31.1018 -2334 0 0
724 1 3 31.1018 -2331 0 0
725 1 3 31.1018 -2328 0 0
726 1 3 31.1018 -2325 0 0
727 1 3 31.1018 -2322 0 0
728 1 3 31.1018 -2319 0 0
729 1 3 31.1018 -2316 0 0
730 1 3 31.1018 -2313 0 0
731 1 3 31.1018 -2310 0 0
732 1 3 31.1018 -2307 0 0
733 1 3 31.1018 -2304 0 0
734 1 3 31.1018 -2301 0 0
735 1 3 31.1018 -2298 0 0
736 1 3 31.1018 -2295 0 0
737 1 3 31.1018 -2292 0 0
738 1 3 31.1018 -2289 0 0
739 1 3 31.1018 -2286 0 0
740 1 3 31.1018 -2283 0 0
741 1 3 31.1018 -2280 0 0
742 1 3 31.1018 -2277 0 0
743 1 3 31.1018 -2274 0 0
744 1 3 31.1018 -2271 0 0
745 1 3 31.1018 -2268 0 0
746 1 3 31.1018 -2265 0 0
747 1 3 31.1018 -2262 0 0
748 1 3 31.1018 -2259 0 0
749 1 3 31.1018 -2256 0 0
750 1 3 31.1018 -2253 0 0
3001 2 3 31.1018 -3004.5 0 2.80670972312983524
3002 2 3 31.1018 -3001.5 0 2.80670972312983524
3003 2 3 31.1018 -2998.5 0 2.80670972312983524
3004 2 3 31.1018 -2995.5 0 2.80670972312983524
3005 2 3 31.1018 -2992.5 0 2.80670972312983524
3006 2 3 31.1018 -2989.5 0 2.80670972312983524
3007 2 3 31.1018 -2986.5 0 2.80670972312983524
3008 2 3 31.1018 -2983.5 0 2.80670972312983524
3009 2 3 31.1018 -2980.5 0 2.80670972312983524
3010 2 3 31.1018 -2977.5 0 2.80670972312983524
3011 2 3 31.1018 -2974.5 0 2.80670972312983524
3012 2 3 31.1018 -2971.5 0 2.80670972312983524
3013 2 3 31.1018 -2968.5 0 2.80670972312983524
3014 2 3 31.1018 -2965.5 0 2.80670972312983524
3015 2 3 31.1018 -2962.5 0 2.80670972312983524
3016 2 3 31.1018 -2959.5 0 2.80670972312983524
3017 2 3 31.1018 -2956.5 0 2.80670972312983524
3018 2 3 31.1018 -2953.5 0 2.80670972312983524
3019 2 3 31.1018 -2950.5 0 2.80670972312983524
3020 2 3 31.1018 -2947.5 0 2.80670972312983524
3021 2 3 31.1018 -2944.5 0 2.80670972312983524
3022 2 3 31.1018 -2941.5 0 2.80670972312983524
3023 2 3 31.1018 -2938.5 0 2.80670972312983524
3024 2 3 31.1018 -2935.5 0 2.80670972312983524
3025 2 3 31.1018 -2932.5 0 2.80670972312983524
3026 2 3 31.1018 -2929.5 0 2.80670972312983524
3027 2 3 31.1018 -2926.5 0 2.80670972312983524
3028 2 3 31.1018 -2923.5 0 2.80670972312983524
3029 2 3 31.1018 -2920.5 0 2.80670972312983524
3030 2 3 31.1018 -2917.5 0 2.80670972312983524
3031 2 3 31.1018 -2914.5 0 2.80670972312983524
3032 2 3 31.1018 -2911.5 0 2.80670972312983524
3033 2 3 31.1018 -2908.5 0 2.80670972312983524
3034 2 3 31.1018 -2905.5 0 2.80670972312983524
3035 2 3 31.1018 -2902.5 0 2.80670972312983524
3036 2 3 31.1018 -2899.5 0 2.80670972312983524
3037 2 3 31.1018 -2896.5 0 2.80670972312983524
3038 2 3 31.1018 -2893.5 0 2.80670972312983524
3039 2 3 31.1018 -2890.5 0 2.80670972312983524
3040 2 3 31.1018 -2887.5 0 2.80670972312983524
3041 2 3 31.1018 -2884.5 0 2.80670972312983524
3042 2 3 31.1018 -2881.5 0 2.80670972312983524
3043 2 3 31.1018 -2878.5 0 2.80670972312983524
3044 2 3 31.1018 -2875.5 0 2.80670972312983524
3045 2 3 31.1018 -2872.5 0 2.80670972312983524
3046 2 3 31.1018 -2869.5 0 2.80670972312983524
3047 2 3 31.1018 -2866.5 0 2.80670972312983524
3048 2 3 31.1018 -2863.5 0 2.80670972312983524
3049 2 3 31.1018 -2860.5 0 2.80670972312983524
3050 2 3 31.1018 -2857.5 0 2.80670972312983524
3051 2 3 31.1018 -2854.5 0 2.80670972312983524
3052 2 3 31.1018 -2851.5 0 2.80670972312983524
3053 2 3 31.1018 -2848.5 0 2.80670972312983524
3054 2 3 31.1018 -2845.5 0 2.80670972312983524
3055 2 3 31.1018 -2842.5 0 2.80670972312983524
3056 2 3 31.1018 -2839.5 0 2.80670972312983524
3057 2 3 31.1018 -2836.5 0 2.80670972312983524
3058 2 3 31.1018 -2833.5 0 2.80670972312983524
3059 2 3 31.1018 -2830.5 0 2.80670972312983524
3060 2 3 31.1018 -2827.5 0 2.80670972312983524
3061 2 3 31.1018 -2824.5 0 2.80670972312983524
3062 2 3 31.1018 -2821.5 0 2.80670972312983524
3063 2 3 31.1018 -2818.5 0 2.80670972312983524
3064 2 3 31.1018 -2815.5 0 2.80670972312983524
3065 2 3 31.1018 -2812.5 0 2.80670972312983524
3066 2 3 31.1018 -2809.5 0 2.80670972312983524
3067 2 3 31.1018 -2806.5 0 2.80670972312983524
3068 2 3 31.1018 -2803.5 0 2.80670972312983524
3069 2 3 31.1018 -2800.5 0 2.80670972312983524
3070 2 3 31.1018 -2797.5 0 2.80670972312983524
3071 2 3 31.1018 -2794.5 0 2.80670972312983524
3072 2 3 31.1018 -2791.5 0 2.80670972312983524
3073 2 3 31.1018 -2788.5 0 2.80670972312983524
3074 2 3 31.1018 -2785.5 0 2.80670972312983524
3075 2 3 31.1018 -2782.5 0 2.80670972312983524
3076 2 3 31.1018 -2779.5 0 2.80670972312983524
3077 2 3 31.1018 -2776.5 0 2.80670972312983524
3078 2 3 31.1018 -2773.5 0 2.80670972312983524
3079 2 3 31.1018 -2770.5 0 2.80670972312983524
3080 2 3 31.1018 -2767.5 0 2.80670972312983524
3081 2 3 31.1018 -2764.5 0 2.80670972312983524
3082 2 3 31.1018 -2761.5 0 2.80670972312983524
3083 2 3 31.1018 -2758.5 0 2.80670972312983524
3084 2 3 31.1018 -2755.5 0 2.80670972312983524
3085 2 3 31.1018 -2752.5 0 2.80670972312983524
3086 2 3 31.1018 -2749.5 0 2.80670972312983524
3087 2 3 31.1018 -2746.5 0 2.80670972312983524
3088 2 3 31.1018 -2743.5 0 2.80670972312983524
3089 2 3 31.1018 -2740.5 0 2.80670972312983524
3090 2 3 31.1018 -2737.5 0 2.80670972312983524
3091 2 3 31.1018 -2734.5 0 2.80670972312983524
3092 2 3 31.1018 -2731.5 0 2.80670972312983524
3093 2 3 31.1018 -2728.5 0 2.80670972312983524
3094 2 3 31.1018 -2725.5 0 2.80670972312983524
3095 2 3 31.1018 -2722.5 0 2.80670972312983524
3096 2 3 31.1018 -2719.5 0 2.80670972312983524
3097 2 3 31.1018 -2716.5 0 2.80670972312983524
3098 2 3 31.1018 -2713.5 0 2.80670972312983524
3099 2 3 31.1018 -2710.5 0 2.80670972312983524
3100 2 3 31.1018 -2707.5 0 2.80670972312983524
3101 2 3 31.1018 -2704.5 0 2.80670972312983524
3102 2 3 31.1018 -2701.5 0 2.80670972312983524
3103 2 3 31.1018 -2698.5 0 2.80670972312983524
3104 2 3 31.1018 -2695.5 0 2.80670972312983524
3105 2 3 31.1018 -2692.5 0 2.80670972312983524
3106 2 3 31.1018 -2689.5 0 2.80670972312983524
3107 2 3 31.1018 -2686.5 0 2.80670972312983524
3108 2 3 31.1018 -2683.5 0 2.80670972312983524
3109 2 3 31.1018 -2680.5 0 2.80670972312983524
3110 2 3 31.1018 -2677.5 0 2.80670972312983524
3111 2 3 31.1018 -2674.5 0 2.80670972312983524
3112 2 3 31.1018 -2671.5 0 2.80670972312983524
3113 2 3 31.1018 -2668.5 0 2.80670972312983524
3114 2 3 31.1018 -2665.5 0 2.80670972312983524
3115 2 3 31.1018 -2662.5 0 2.80670972312983524
3116 2 3 31.1018 -2659.5 0 2.80670972312983524
3117 2 3 31.1018 -2656.5 0 2.80670972312983524
3118 2 3 31.1018 -2653.5 0 2.80670972312983524
3119 2 3 31.1018 -2650.5 0 2.80670972312983524
3120 2 3 31.1018 -2647.5 0 2.80670972312983524
3121 2 3 31.1018 -2644.5 0 2.80670972312983524
3122 2 3 31.1018 -2641.5 0 2.80670972312983524
3123 2 3 31.1018 -2638.5 0 2.80670972312983524
3124 2 3 31.1018 -2635.5 0 2.80670972312983524
3125 2 3 31.1018 -2632.5 0 2.80670972312983524
3126 2 3 31.1018 -2629.5 0 2.80670972312983524
3127 2 3 31.1018 -2626.5 0 2.80670972312983524
3128 2 3 31.1018 -2623.5 0 2.80670972312983524
3129 2 3 31.1018 -2620.5 0 2.80670972312983524
3130 2 3 31.1018 -2617.5 0 2.80670972312983524
3131 2 3 31.1018 -2614.5 0 2.80670972312983524
3132 2 3 31.1018 -2611.5 0 2.80670972312983524
3133 2 3 31.1018 -2608.5 0 2.80670972312983524
3134 2 3 31.1018 -2605.5 0 2.80670972312983524
3135 2 3 31.1018 -2602.5 0 2.80670972312983524
3136 2 3 31.1018 -2599.5 0 2.80670972312983524
3137 2 3 31.1018 -2596.5 0 2.80670972312983524
3138 2 3 31.1018 -2593.5 0 2.80670972312983524
3139 2 3 31.1018 -2590.5 0 2.80670972312983524
3140 2 3 31.1018 -2587.5 0 2.80670972312983524
3141 2 3 31.1018 -2584.5 0 2.80670972312983524
3142 2 3 31.1018 -2581.5 0 2.80670972312983524
3143 2 3 31.1018 -2578.5 0 2.80670972312983524
3144 2 3 31.1018 -2575.5 0 2.80670972312983524
3145 2 3 31.1018 -2572.5 0 2.80670972312983524
3146 2 3 31.1018 -2569.5 0 2.80670972312983524
3147 2 3 31.1018 -2566.5 0 2.80670972312983524
3148 2 3 31.1018 -2563.5 0 2.80670972312983524
3149 2 3 31.1018 -2560.5 0 2.80670972312983524
3150 2 3 31.1018 -2557.5 0 2.80670972312983524
3151 2 3 31.1018 -2554.5 0 2.80670972312983524
3152 2 3 31.1018 -2551.5 0 2.80670972312983524
3153 2 3 31.1018 -2548.5 0 2.80670972312983524
3154 2 3 31.1018 -2545.5 0 2.80670972312983524
3155 2 3 31.1018 -2542.5 0 2.80670972312983524
3156 2 3 31.1018 -2539.5 0 2.80670972312983524
3157 2 3 31.1018 -2536.5 0 2.80670972312983524
3158 2 3 31.1018 -2533.5 0 2.80670972312983524
3159 2 3 31.1018 -2530.5 0 2.80670972312983524
3160 2 3 31.1018 -2527.5 0 2.80670972312983524
3161 2 3 31.1018 -2524.5 0 2.80670972312983524
3162 2 3 31.1018 -2521.5 0 2.80670972312983524
3163 2 3 31.1018 -2518.5 0 2.80670972312983524
3164 2 3 31.1018 -2515.5 0 2.80670972312983524
3165 2 3 31.1018 -2512.5 0 2.80670972312983524
3166 2 3 31.1018 -2509.5 0 2.80670972312983524
3167 2 3 31.1018 -2506.5 0 2.80670972312983524
3168 2 3 31.1018 -2503.5 0 2.80670972312983524
3169 2 3 31.1018 -2500.5 0 2.80670972312983524
3170 2 3 31.1018 -2497.5 0 2.80670972312983524
3171 2 3 31.1018 -2494.5 0 2.80670972312983524
3172 2 3 31.1018 -2491.5 0 2.80670972312983524
3173 2 3 31.1018 -2488.5 0 2.80670972312983524
3174 2 3 31.1018 -2485.5 0 2.80670972312983524
3175 2 3 31.1018 -2482.5 0 2.80670972312983524
3176 2 3 31.1018 -2479.5 0 2.80670972312983524
3177 2 3 31.1018 -2476.5 0 2.80670972312983524
3178 2 3 31.1018 -2473.5 0 2.80670972312983524
3179 2 3 31.1018 -2470.5 0 2.80670972312983524
3180 2 3 31.1018 -2467.5 0 2.80670972312983524
3181 2 3 31.1018 -2464.5 0 2.80670972312983524
3182 2 3 31.1018 -2461.5 0 2.80670972312983524
3183 2 3 31.1018 -2458.5 0 2.80670972312983524
3184 2 3 31.1018 -2455.5 0 2.80670972312983524
3185 2 3 31.1018 -2452.5 0 2.80670972312983524
3186 2 3 31.1018 -2449.5 0 2.80670972312983524
3187 2 3 31.1018 -2446.5 0 2.80670972312983524
3188 2 3 31.1018 -2443.5 0 2.80670972312983524
3189 2 3 31.1018 -2440.5 0 2.80670972312983524
3190 2 3 31.1018 -2437.5 0 2.80670972312983524
3191 2 3 31.1018 -2434.5 0 2.80670972312983524
3192 2 3 31.1018 -2431.5 0 2.80670972312983524
3193 2 3 31.1018 -2428.5 0 2.80670972312983524
3194 2 3 31.1018 -2425.5 0 2.80670972312983524
3195 2 3 31.1018 -2422.5 0 2.80670972312983524
3196 2 3 31.1018 -2419.5 0 2.80670972312983524
3197 2 3 31.1018 -2416.5 0 2.80670972312983524
3198 2 3 31.1018 -2413.5 0 2.80670972312983524
3199 2 3 31.1018 -2410.5 0 2.80670972312983524
3200 2 3 31.1018 -2407.5 0 2.80670972312983524
3201 2 3 31.1018 -2404.5 0 2.80670972312983524
3202 2 3 31.1018 -2401.5 0 2.80670972312983524
3203 2 3 31.1018 -2398.5 0 2.80670972312983524
3204 2 3 31.1018 -2395.5 0 2.80670972312983524
3205 2 3 31.1018 -2392.5 0 2.80670972312983524
3206 2 3 31.1018 -2389.5 0 2.80670972312983524
3207 2 3 31.1018 -2386.5 0 2.80670972312983524
3208 2 3 31.1018 -2383.5 0 2.80670972312983524
3209 2 3 31.1018 -2380.5 0 2.80670972312983524
3210 2 3 31.1018 -2377.5 0 2.80670972312983524
3211 2 3 31.1018 -2374.5 0 2.80670972312983524
3212 2 3 31.1018 -2371.5 0 2.80670972312983524
3213 2 3 31.1018 -2368.5 0 2.80670972312983524
3214 2 3 31.1018 -2365.5 0 2.80670972312983524
3215 2 3 31.1018 -2362.5 0 2.80670972312983524
3216 2 3 31.1018 -2359.5 0 2.80670972312983524
3217 2 3 31.1018 -2356.5 0 2.80670972312983524
3218 2 3 31.1018 -2353.5 0 2.80670972312983524
3219 2 3 31.1018 -2350.5 0 2.80670972312983524
3220 2 3 31.1018 -2347.5 0 2.80670972312983524