ITEM: TIMESTEP
1000000
ITEM: NUMBER OF ATOMS
501
ITEM: BOX BOUNDS pp pp pp
-4.5000000000000000e+02 4.5000000000000000e+02
-1.0000000000000000e+02 1.0000000000000000e+02
-1.0000000000000000e+02 1.0000000000000000e+02
ITEM: ATOMS id type diameter mass xu yu zu
1 1 3 31.1018 -450 0 0
2 1 3 31.1018 -447 0 0
3 1 3 31.1018 -444 0 0
4 1 3 31.1018 -441 0 0
5 1 3 31.1018 -438 0 0
6 1 3 31.1018 -435 0 0
7 1 3 31.1018 -432 0 0
8 1 3 31.1018 -429 0 0
9 1 3 31.1018 -426 0 0
10 1 3 31.1018 -423 0 0
11 1 3 31.1018 -420 0 0
12 1 3 31.1018 -417 0 0
13 1 3 31.1018 -414 0 0
14 1 3 31.1018 -411 0 0
15 1 3 31.1018 -408 0 0
16 1 3 31.1018 -405 0 0
17 1 3 31.1018 -402 0 0
18 1 3 31.1018 -399 0 0
19 1 3 31.1018 -396 0 0
20 1 3 31.1018 -393 0 0
21 1 3 31.1018 -390 0 0
22 1 3 31.1018 -387 0 0
23 1 3 31.1018 -384 0 0
24 1 3 31.1018 -381 0 0
25 1 3 31.1018 -378 0 0
26 1 3 31.1018 -375 0 0
27 1 3 31.1018 -372 0 0
28 1 3 31.1018 -369 0 0
29 1 3 31.1018 -366 0 0
30 1 3 31.1018 -363 0 0
31 1 3 31.1018 -360 0 0
32 1 3 31.1018 -357 0 0
33 1 3 31.1018 -354 0 0
34 1 3 31.1018 -351 0 0
35 1 3 31.1018 -348 0 0
36 1 3 31.1018 -345 0 0
37 1 3 31.1018 -342 0 0
38 1 3 31.1018 -339 0 0
39 1 3 31.1018 -336 0 0
40 1 3 31.1018 -333 0 0
41 1 3 31.1018 -330 0 0
42 1 3 31.1018 -327 0 0
43 1 3 31.1018 -324 0 0
44 1 3 31.1018 -321 0 0
45 1 3 31.1018 -318 0 0
46 1 3 31.1018 -315 0 0
47 1 3 31.1018 -312 0 0
48 1 3 31.1018 -309 0 0
49 1 3 31.1018 -306 0 0
50 1 3 31.1018 -303 0 0
51 1 3 31.1018 -300 0 0
52 1 3 31.1018 -297 0 0
53 1 3 31.1018 -294 0 0
54 1 3 31.1018 -291 0 0
55 1 3 31.1018 -288 0 0
56 1 3 31.1018 -285 0 0
57 1 3 31.1018 -282 0 0
58 1 3 31.1018 -279 0 0
59 1 3 31.1018 -276 0 0
60 1 3 31.1018 -273 0 0
61 1 3 31.1018 -270 0 0
62 1 3 31.1018 -267 0 0
63 1 3 31.1018 -264 0 0
64 1 3 31.1018 -261 0 0
65 1 3 31.1018 -258 0 0
66 1 3 31.1018 -255 0 0
67 1 3 31.1018 -252 0 0
68 1 3 31.1018 -249 0 0
69 1 3 31.1018 -246 0 0
70 1 3 31.1018 -243 0 0
71 1 3 31.1018 -240 0 0
72 1 3 31.1018 -237 0 0
73 1 3 31.1018 -234 0 0
74 1 3 31.1018 -231 0 0
75 1 3 31.1018 -228 0 0
301 2 3 31.1018 -304.5 0 2.59757312748702462
302 2 3 31.1018 -301.5 0 2.59757312748702462
303 2 3 31.1018 -298.5 0 2.59757312748702462
304 2 3 31.1018 -295.5 0 2.59757312748702462
305 2 3 31.1018 -292.5 0 2.59757312748702462
306 2 3 31.1018 -289.5 0 2.59757312748702462
307 2 3 31.1018 -286.5 0 2.59757312748702462
308 2 3 31.1018 -283.5 0 2.59757312748702462
309 2 3 31.1018 -280.5 0 2.59757312748702462
310 2 3 31.1018 -277.5 0 2.59757312748702462
311 2 3 31.1018 -274.5 0 2.59757312748702462
312 2 3 31.1018 -271.5 0 2.59757312748702462
313 2 3 31.1018 -268.5 0 2.59757312748702462
314 2 3 31.1018 -265.5 0 2.59757312748702462
315 2 3 31.1018 -262.5 0 2.59757312748702462
316 2 3 31.1018 -259.5 0 2.59757312748702462
317 2 3 31.1018 -256.5 0 2.59757312748702462
318 2 3 31.1018 -253.5 0 2.59757312748702462
319 2 3 31.1018 -250.5 0 2.59757312748702462
320 2 3 31.1018 -247.5 0 2.59757312748702462
321 2 3 31.1018 -244.5 0 2.59757312748702462
322 2 3 31.1018 -241.5 0 2.59757312748702462
323 2 3 31.1018 -238.5 0 2.59757312748702462
324 2 3 31.1018 -235.5 0 2.59757312748702462
325 2 3 31.1018 -232.5 0 2.59757312748702462
326 2 3 31.1018 -229.5 0 2.59757312748702462
327 2 3 31.1018 -226.5 0 2.59757312748702462
76 1 3 31.1018 -225 0 0
77 1 3 31.1018 -222 0 0
78 1 3 31.1018 -219 0 0
79 1 3 31.1018 -216 0 0
80 1 3 31.1018 -213 0 0
81 1 3 31.1018 -210 0 0
82 1 3 31.1018 -207 0 0
83 1 3 31.1018 -204 0 0
84 1 3 31.1018 -201 0 0
85 1 3 31.1018 -198 0 0
86 1 3 31.1018 -195 0 0
87 1 3 31.1018 -192 0 0
88 1 3 31.1018 -189 0 0
89 1 3 31.1018 -186 0 0
90 1 3 31.1018 -183 0 0
91 1 3 31.1018 -180 0 0
92 1 3 31.1018 -177 0 0
93 1 3 31.1018 -174 0 0
94 1 3 31.1018 -171 0 0
95 1 3 31.1018 -168 0 0
96 1 3 31.1018 -165 0 0
97 1 3 31.1018 -162 0 0
98 1 3 31.1018 -159 0 0
99 1 3 31.1018 -156 0 0
100 1 3 31.1018 -153 0 0
101 1 3 31.1018 -150 0 0
102 1 3 31.1018 -147 0 0
103 1 3 31.1018 -144 0 0
104 1 3 31.1018 -141 0 0
105 1 3 31.1018 -138 0 0
106 1 3 31.1018 -135 0 0
107 1 3 31.1018 -132 0 0
108 1 3 31.1018 -129 0 0
109 1 3 31.1018 -126 0 0
110 1 3 31.1018 -123 0 0
111 1 3 31.1018 -120 0 0
112 1 3 31.1018 -117 0 0
113 1 3 31.1018 -114 0 0
114 1 3 31.1018 -111 0 0
115 1 3 31.1018 -108 0 0
116 1 3 31.1018 -105 0 0
117 1 3 31.1018 -102 0 0
118 1 3 31.1018 -99 0 0
119 1 3 31.1018 -96 0 0
120 1 3 31.1018 -93 0 0
121 1 3 31.1018 -90 0 0
122 1 3 31.1018 -87 0 0
123 1 3 31.1018 -84 0 0
124 1 3 31.1018 -81 0 0
125 1 3 31.1018 -78 0 0
126 1 3 31.1018 -75 0 0
127 1 3 31.1018 -72 0 0
128 1 3 31.1018 -69 0 0
129 1 3 31.1018 -66 0 0
130 1 3 31.1018 -63 0 0
131 1 3 31.1018 -60 0 0
132 1 3 31.1018 -57 0 0
133 1 3 31.1018 -54 0 0
134 1 3 31.1018 -51 0 0
135 1 3 31.1018 -48 0 0
136 1 3 31.1018 -45 0 0
137 1 3 31.1018 -42 0 0
138 1 3 31.1018 -39 0 0
139 1 3 31.1018 -36 0 0
140 1 3 31.1018 -33 0 0
141 1 3 31.1018 -30 0 0
142 1 3 31.1018 -27 0 0
143 1 3 31.1018 -24 0 0
144 1 3 31.1018 -21 0 0
145 1 3 31.1018 -18 0 0
146 1 3 31.1018 -15 0 0
147 1 3 31.1018 -12 0 0
148 1 3 31.1018 -9 0 0
149 1 3 31.1018 -6 0 0
150 1 3 31.1018 -3 0 0
328 2 3 31.1018 -223.5 0 2.59757312748702462
329 2 3 31.1018 -220.5 0 2.59757312748702462
330 2 3 31.1018 -217.5 0 2.59757312748702462
331 2 3 31.1018 -214.5 0 2.59757312748702462
332 2 3 31.1018 -211.5 0 2.59757312748702462
333 2 3 31.1018 -208.5 0 2.59757312748702462
334 2 3 31.1018 -205.5 0 2.59757312748702462
335 2 3 31.1018 -202.5 0 2.59757312748702462
336 2 3 31.1018 -199.5 0 2.59757312748702462
337 2 3 31.1018 -196.5 0 2.59757312748702462
338 2 3 31.1018 -193.5 0 2.59757312748702462
339 2 3 31.1018 -190.5 0 2.59757312748702462
340 2 3 31.1018 -187.5 0 2.59757312748702462
341 2 3 31.1018 -184.5 0 2.59757312748702462
342 2 3 31.1018 -181.5 0 2.59757312748702462
343 2 3 31.1018 -178.5 0 2.59757312748702462
344 2 3 31.1018 -175.5 0 2.59757312748702462
345 2 3 31.1018 -172.5 0 2.59757312748702462
346 2 3 31.1018 -169.5 0 2.59757312748702462
347 2 3 31.1018 -166.5 0 2.59757312748702462
348 2 3 31.1018 -163.5 0 2.59757312748702462
349 2 3 31.1018 -160.5 0 2.59757312748702462
350 2 3 31.1018 -157.5 0 2.59757312748702462
351 2 3 31.1018 -154.5 0 2.59757312748702462
352 2 3 31.1018 -151.5 0 2.59757312748702462
353 2 3 31.1018 -148.5 0 2.59757312748702462
354 2 3 31.1018 -145.5 0 2.59757312748702462
355 2 3 31.1018 -142.5 0 2.59757312748702462
356 2 3 31.1018 -139.5 0 2.59757312748702462
357 2 3 31.1018 -136.5 0 2.59757312748702462
358 2 3 31.1018 -133.5 0 2.59757312748702462
359 2 3 31.1018 -130.5 0 2.59757312748702462
360 2 3 31.1018 -127.5 0 2.59757312748702462
361 2 3 31.1018 -124.5 0 2.59757312748702462
362 2 3 31.1018 -121.5 0 2.59757312748702462
363 2 3 31.1018 -118.5 0 2.59757312748702462
364 2 3 31.1018 -115.5 0 2.59757312748702462
365 2 3 31.1018 -112.5 0 2.59757312748702462
366 2 3 31.1018 -109.5 0 2.59757312748702462
367 2 3 31.1018 -106.5 0 2.59757312748702462
368 2 3 31.1018 -103.5 0 2.59757312748702462
369 2 3 31.1018 -100.5 0 2.59757312748702462
370 2 3 31.1018 -97.5 0 2.59757312748702462
371 2 3 31.1018 -94.5 0 2.59757312748702462
372 2 3 31.1018 -91.5 0 2.59757312748702462
373 2 3 31.1018 -88.5 0 2.59757312748702462
374 2 3 31.1018 -85.5 0 2.59757312748702462
375 2 3 31.1018 -82.5 0 2.59757312748702462
376 2 3 31.1018 -79.5 0 2.59757312748702462
377 2 3 31.1018 -76.5 0 2.59757312748702462
378 2 3 31.1018 -73.5 0 2.59757312748702462
379 2 3 31.1018 -70.5 0 2.59757312748702462
380 2 3 31.1018 -67.5 0 2.59757312748702462
381 2 3 31.1018 -64.5 0 2.59757312748702462
382 2 3 31.1018 -61.5 0 2.59757312748702462
383 2 3 31.1018 -58.5 0 2.59757312748702462
384 2 3 31.1018 -55.5 0 2.59757312748702462
385 2 3 31.1018 -52.5 0 2.59757312748702462
386 2 3 31.1018 -49.5 0 2.59757312748702462
387 2 3 31.1018 -46.5 0 2.59757312748702462
388 2 3 31.1018 -43.5 0 2.59757312748702462
389 2 3 31.1018 -40.5 0 2.59757312748702462
390 2 3 31.1018 -37.5 0 2.59757312748702462
391 2 3 31.1018 -34.5 0 2.59757312748702462
392 2 3 31.1018 -31.5 0 2.59757312748702462
393 2 3 31.1018 -28.5 0 2.59757312748702462
394 2 3 31.1018 -25.5 0 2.59757312748702462
395 2 3 31.1018 -22.5 0 2.59757312748702462
396 2 3 31.1018 -19.5 0 2.59757312748702462
397 2 3 31.1018 -16.5 0 2.59757312748702462
398 2 3 31.1018 -13.5 0 2.59757312748702462
399 2 3 31.1018 -10.5 0 2.59757312748702462
400 2 3 31.1018 -7.5 0 2.59757312748702462
401 2 3 31.1018 -4.5 0 2.59757312748702462
402 2 3 31.1018 -1.5 0 2.59757312748702462
151 1 3 31.1018 0 0 0
152 1 3 31.1018 3 0 0
153 1 3 31.1018 6 0 0
154 1 3 31.1018 9 0 0
155 1 3 31.1018 12 0 0
156 1 3 31.1018 15 0 0
157 1 3 31.1018 18 0 0
158 1 3 31.1018 21 0 0
159 1 3 31.1018 24 0 0
160 1 3 31.1018 27 0 0
161 1 3 31.1018 30 0 0
162 1 3 31.1018 33 0 0
163 1 3 31.1018 36 0 0
164 1 3 31.1018 39 0 0
165 1 3 31.1018 42 0 0
166 1 3 31.1018 45 0 0
167 1 3 31.1018 48 0 0
168 1 3 31.1018 51 0 0
169 1 3 31.1018 54 0 0
170 1 3 31.1018 57 0 0
171 1 3 31.1018 60 0 0
172 1 3 31.1018 63 0 0
173 1 3 31.1018 66 0 0
174 1 3 31.1018 69 0 0
175 1 3 31.1018 72 0 0
176 1 3 31.1018 75 0 0
177 1 3 31.1018 78 0 0
178 1 3 31.1018 81 0 0
179 1 3 31.1018 84 0 0
180 1 3 31.1018 87 0 0
181 1 3 31.1018 90 0 0
182 1 3 31.1018 93 0 0
183 1 3 31.1018 96 0 0
184 1 3 31.1018 99 0 0
185 1 3 31.1018 102 0 0
186 1 3 31.1018 105 0 0
187 1 3 31.1018 108 0 0
188 1 3 31.1018 111 0 0
189 1 3 31.1018 114 0 0
190 1 3 31.1018 117 0 0
191 1 3 31.1018 120 0 0
192 1 3 31.1018 123 0 0
193 1 3 31.1018 126 0 0
194 1 3 31.1018 129 0 0
195 1 3 31.1018 132 0 0
196 1 3 31.1018 135 0 0
197 1 3 31.1018 138 0 0
198 1 3 31.1018 141 0 0
199 1 3 31.1018 144 0 0
200 1 3 31.1018 147 0 0
201 1 3 31.1018 150 0 0
202 1 3 31.1018 153 0 0
203 1 3 31.1018 156 0 0
204 1 3 31.1018 159 0 0
205 1 3 31.1018 162 0 0
206 1 3 31.1018 165 0 0
207 1 3 31.1018 168 0 0
208 1 3 31.1018 171 0 0
209 1 3 31.1018 174 0 0
210 1 3 31.1018 177 0 0
211 1 3 31.1018 180 0 0
212 1 3 31.1018 183 0 0
213 1 3 31.1018 186 0 0
214 1 3 31.1018 189 0 0
215 1 3 31.1018 192 0 0
216 1 3 31.1018 195 0 0
217 1 3 31.1018 198 0 0
218 1 3 31.1018 201 0 0
219 1 3 31.1018 204 0 0
220 1 3 31.1018 207 0 0
221 1 3 31.1018 210 0 0
222 1 3 31.1018 213 0 0
223 1 3 31.1018 216 0 0
224 1 3 31.1018 219 0 0
225 1 3 31.1018 222 0 0
403 2 3 31.1018 1.5 0 2.59757312748702462
404 2 3 31.1018 4.5 0 2.59757312748702462
405 2 3 31.1018 7.5 0 2.59757312748702462
406 2 3 31.1018 10.5 0 2.59757312748702462
407 2 3 31.1018 13.4999999999999982 0 2.59757312748702462
408 2 3 31.1018 16.5 0 2.59757312748702462
409 2 3 31.1018 19.5 0 2.59757312748702462
410 2 3 31.1018 22.5 0 2.59757312748702462
411 2 3 31.1018 25.5 0 2.59757312748702462
412 2 3 31.1018 28.5 0 2.59757312748702462
413 2 3 31.1018 31.5 0 2.59757312748702462
414 2 3 31.1018 34.5 0 2.59757312748702462
415 2 3 31.1018 37.5 0 2.59757312748702462
416 2 3 31.1018 40.5 0 2.59757312748702462
417 2 3 31.1018 43.5 0 2.59757312748702462
418 2 3 31.1018 46.5 0 2.59757312748702462
419 2 3 31.1018 49.5 0 2.59757312748702462
420 2 3 31.1018 52.5 0 2.59757312748702462
421 2 3 31.1018 55.5 0 2.59757312748702462
422 2 3 31.1018 58.5 0 2.59757312748702462
423 2 3 31.1018 61.5 0 2.59757312748702462
424 2 3 31.1018 64.5 0 2.59757312748702462
425 2 3 31.1018 67.5 0 2.59757312748702462
426 2 3 31.1018 70.5 0 2.59757312748702462
427 2 3 31.1018 73.5 0 2.59757312748702462
428 2 3 31.1018 76.5 0 2.59757312748702462
429 2 3 31.1018 79.5 0 2.59757312748702462
430 2 3 31.1018 82.5 0 2.59757312748702462
431 2 3 31.1018 85.5 0 2.59757312748702462
432 2 3 31.1018 88.5 0 2.59757312748702462
433 2 3 31.1018 91.5 0 2.59757312748702462
434 2 3 31.1018 94.5 0 2.59757312748702462
435 2 3 31.1018 97.5 0 2.59757312748702462
436 2 3 31.1018 100.5 0 2.59757312748702462
437 2 3 31.1018 103.5 0 2.59757312748702462
438 2 3 31.1018 106.5 0 2.59757312748702462
439 2 3 31.1018 109.5 0 2.59757312748702462
440 2 3 31.1018 112.5 0 2.59757312748702462
441 2 3 31.1018 115.5 0 2.59757312748702462
442 2 3 31.1018 118.5 0 2.59757312748702462
443 2 3 31.1018 121.5 0 2.59757312748702462
444 2 3 31.1018 124.500000000000014 0 2.59757312748702462
445 2 3 31.1018 127.500000000000014 0 2.59757312748702462
446 2 3 31.1018 130.5 0 2.59757312748702462
447 2 3 31.1018 133.5 0 2.59757312748702462
448 2 3 31.1018 136.5 0 2.59757312748702462
449 2 3 31.1018 139.5 0 2.59757312748702462
450 2 3 31.1018 142.5 0 2.59757312748702462
451 2 3 31.1018 145.5 0 2.59757312748702462
452 2 3 31.1018 148.5 0 2.59757312748702462
453 2 3 31.1018 151.5 0 2.59757312748702462
454 2 3 31.1018 154.5 0 2.59757312748702462
455 2 3 31.1018 157.5 0 2.59757312748702462
456 2 3 31.1018 160.5 0 2.59757312748702462
457 2 3 31.1018 163.5 0 2.59757312748702462
458 2 3 31.1018 166.5 0 2.59757312748702462
459 2 3 31.1018 169.5 0 2.59757312748702462
460 2 3 31.1018 172.5 0 2.59757312748702462
461 2 3 31.1018 175.5 0 2.59757312748702462
462 2 3 31.1018 178.5 0 2.59757312748702462
463 2 3 31.1018 181.5 0 2.59757312748702462
464 2 3 31.1018 184.5 0 2.59757312748702462
465 2 3 31.1018 187.5 0 2.59757312748702462
466 2 3 31.1018 190.5 0 2.59757312748702462
467 2 3 31.1018 193.5 0 2.59757312748702462
468 2 3 31.1018 196.5 0 2.59757312748702462
469 2 3 31.1018 199.5 0 2.59757312748702462
470 2 3 31.1018 202.5 0 2.59757312748702462
471 2 3 31.1018 205.5 0 2.59757312748702462
472 2 3 31.1018 208.5 0 2.59757312748702462
473 2 3 31.1018 211.5 0 2.59757312748702462
474 2 3 31.1018 214.5 0 2.59757312748702462
475 2 3 31.1018 217.5 0 2.59757312748702462
476 2 3 31.1018 220.5 0 2.59757312748702462
477 2 3 31.1018 223.5 0 2.59757312748702462
226 1 3 31.1018 225 0 0
227 1 3 31.1018 228 0 0
228 1 3 31.1018 231 0 0
229 1 3 31.1018 234 0 0
230 1 3 31.1018 237 0 0
231 1 3 31.1018 240 0 0
232 1 3 31.1018 243 0 0
233 1 3 31.1018 246 0 0
234 1 3 31.1018 249 0 0
235 1 3 31.1018 252 0 0
236 1 3 31.1018 255 0 0
237 1 3 31.1018 258 0 0
238 1 3 31.1018 261 0 0
239 1 3 31.1018 264 0 0
240 1 3 31.1018 267 0 0
241 1 3 31.1018 270 0 0
242 1 3 31.1018 273 0 0
243 1 3 31.1018 276 0 0
244 1 3 31.1018 279 0 0
245 1 3 31.1018 282 0 0
246 1 3 31.1018 285 0 0
247 1 3 31.1018 288 0 0
248 1 3 31.1018 291 0 0
249 1 3 31.1018 294 0 0
250 1 3 31.1018 297 0 0
251 1 3 31.1018 300 0 0
252 1 3 31.1018 303 0 0
253 1 3 31.1018 306 0 0
254 1 3 31.1018 309 0 0
255 1 3 31.1018 312 0 0
256 1 3 31.1018 315 0 0
257 1 3 31.1018 318 0 0
258 1 3 31.1018 321 0 0
259 1 3 31.1018 324 0 0
260 1 3 31.1018 327 0 0
261 1 3 31.1018 330 0 0
262 1 3 31.1018 333 0 0
263 1 3 31.1018 336 0 0
264 1 3 31.1018 339 0 0
265 1 3 31.1018 342 0 0
266 1 3 31.1018 345 0 0
267 1 3 31.1018 348 0 0
268 1 3 31.1018 351 0 0
269 1 3 31.1018 354 0 0
270 1 3 31.1018 357 0 0
271 1 3 31.1018 360 0 0
272 1 3 31.1018 363 0 0
273 1 3 31.1018 366 0 0
274 1 3 31.1018 369 0 0
275 1 3 31.1018 372 0 0
276 1 3 31.1018 375 0 0
277 1 3 31.1018 378 0 0
278 1 3 31.1018 381 0 0
279 1 3 31.1018 384 0 0
280 1 3 31.1018 387 0 0
281 1 3 31.1018 390 0 0
282 1 3 31.1018 393 0 0
283 1 3 31.1018 396 0 0
284 1 3 31.1018 399 0 0
285 1 3 31.1018 402 0 0
286 1 3 31.1018 405 0 0
287 1 3 31.1018 408 0 0
288 1 3 31.1018 411 0 0
289 1 3 31.1018 414 0 0
290 1 3 31.1018 417 0 0
291 1 3 31.1018 420 0 0
292 1 3 31.1018 423 0 0
293 1 3 31.1018 426 0 0
294 1 3 31.1018 429 0 0
295 1 3 31.1018 432 0 0
296 1 3 31.1018 435 0 0
297 1 3 31.1018 438 0 0
298 1 3 31.1018 441 0 0
299 1 3 31.1018 444 0 0
300 1 3 31.1018 447 0 0
478 2 3 31.1018 226.5 0 2.59757312748702462
479 2 3 31.1018 229.5 0 2.59757312748702462
480 2 3 31.1018 232.5 0 2.59757312748702462
481 2 3 31.1018 235.5 0 2.59757312748702462
482 2 3 31.1018 238.5 0 2.59757312748702462
483 2 3 31.1018 241.5 0 2.59757312748702462
484 2 3 31.1018 244.5 0 2.59757312748702462
485 2 3 31.1018 247.5 0 2.59757312748702462
486 2 3 31.1018 250.5 0 2.59757312748702462
487 2 3 31.1018 253.5 0 2.59757312748702462
488 2 3 31.1018 256.5 0 2.59757312748702462
489 2 3 31.1018 259.5 0 2.59757312748702462
490 2 3 31.1018 262.5 0 2.59757312748702462
491 2 3 31.1018 265.5 0 2.59757312748702462
492 2 3 31.1018 268.5 0 2.59757312748702462
493 2 3 31.1018 271.5 0 2.59757312748702462
494 2 3 31.1018 274.5 0 2.59757312748702462
495 2 3 31.1018 277.5 0 2.59757312748702462
496 2 3 31.1018 280.5 0 2.59757312748702462
497 2 3 31.1018 283.5 0 2.59757312748702462
498 2 3 31.1018 286.5 0 2.59757312748702462
499 2 3 31.1018 289.5 0 2.59757312748702462
500 2 3 31.1018 292.5 0 2.59757312748702462
501 2 3 31.1018 295.5 0 2.59757312748702462
