LAMMPS (23 Jun 2022 - Update 1)
  using 1 OpenMP thread(s) per MPI task
Lattice spacing in x,y,z = 3 3 3
Created orthogonal box = (-225 -100 -100) to (225 100 100)
  4 by 1 by 1 MPI processor grid
Created 150 atoms
  using lattice units in orthogonal box = (-225 -100 -100) to (225 100 100)
  create_atoms CPU = 0.003 seconds
Lattice spacing in x,y,z = 3 3 3
Created 101 atoms
  using lattice units in orthogonal box = (-225 -100 -100) to (225 100 100)
  create_atoms CPU = 0.000 seconds
Setting atom values ...
  150 settings made for diameter
Setting atom values ...
  150 settings made for mass
Setting atom values ...
  101 settings made for diameter
Setting atom values ...
  101 settings made for mass
150 atoms in group substrate
101 atoms in group slider1
251 atoms in group substrate_slider
Displacing atoms ...
  1 rigid bodies with 101 atoms
Generated 0 of 1 mixed pair_coeff terms from geometric mixing rule
Neighbor list info ...
  update every 1 steps, delay 0 steps, check yes
  max neighbors/atom: 2000, page size: 100000
  master list distance cutoff = 3.1
  ghost atom cutoff = 3.1
  binsize = 1.55, bins = 291 130 130
  1 neighbor lists, perpetual/occasional/extra = 1 0 0
  (1) pair granular, perpetual
      attributes: half, newton on, size, history
      pair build: half/size/bin/newton
      stencil: half/bin/3d
      bin: standard
Setting up Verlet run ...
  Unit style    : micro
  Current step  : 0
  Time step     : 1e-05
Per MPI rank memory allocation (min/avg/max) = 18.14 | 18.14 | 18.14 Mbytes
   Step           Lx             Ly             Lz           Press           Pxx            Pyy            Pzz           KinEng         PotEng          Temp          c_1[1]         c_1[2]         c_1[3]    
         0   450            200            200            0              0              0              0              0              0              0             -4.5            0              6            
    100000   450            200            200            0.0036397311  -1.3543416e-36  0              0.010919193    44189.452      0              4.267501e+10  -4.5            0              3.2460085    
    200000   450            200            200            0.00068601799 -1.3580551e-36  0              0.002058054    4161.2426      0              4.0186303e+09 -4.5            0              2.8092355    
    300000   450            200            200           -0.0001009163   1.698312e-38   0             -0.00030274889  192.24641      0              1.8565782e+08 -4.5            0              2.6517326    
    400000   450            200            200            0.00023717044 -8.1487879e-24  0              0.00071151132  751.43782      0              7.2568486e+08 -4.5            0              2.6025116    
    500000   450            200            200            0.022162918    0.016282991    0              0.050205763    110.09083      0              1.0631785e+08 -4.5            0              2.5969362    
    600000   450            200            200            0.0039853531   0.0029268075   0              0.0090292517   3.8164646      0              3685668.3     -4.5            0              2.5977131    
    700000   450            200            200            0.0063983781   0.00484752     0              0.014347614    0.00038108956  0              368.02902     -4.5            0              2.597577     
    800000   450            200            200            0.0064923638   0.0048600999   0              0.014616991    0.00038149233  0              368.41799     -4.5            0              2.5975722    
    900000   450            200            200            0.0064806936   0.0048585307   0              0.01458355     6.2137648e-05  0              60.008093     -4.5            0              2.5975728    
   1000000   450            200            200            0.0064742882   0.0048576921   0              0.014565173    2.5919158e-06  0              2.5030867     -4.5            0              2.5975731    
   1100000   450            200            200            0.0064793156   0.0048583564   0              0.01457959     3.8666124e-08  0              0.037340975   -4.5            0              2.5975728    
   1200000   450            200            200            0.0064774728   0.004858112    0              0.014574306    1.0443896e-07  0              0.10085968    -4.5            0              2.5975729    
   1300000   450            200            200            0.0064777868   0.004858154    0              0.014575206    2.1758092e-08  0              0.021012408   -4.5            0              2.5975729    
   1400000   450            200            200            0.0064778664   0.0048581643   0              0.014575435    1.2835279e-09  0              0.0012395394  -4.5            0              2.5975729    
   1500000   450            200            200            0.0064777811   0.0048581531   0              0.01457519     3.7455473e-13  0              3.6171815e-07 -4.5            0              2.5975729    
   1600000   450            200            200            0.0064778163   0.0048581578   0              0.014575291    2.6670512e-11  0              2.5756472e-05 -4.5            0              2.5975729    
   1700000   450            200            200            0.0064778089   0.0048581568   0              0.01457527     7.2825582e-12  0              7.0329734e-06 -4.5            0              2.5975729    
   1800000   450            200            200            0.0064778081   0.0048581567   0              0.014575268    5.7182485e-13  0              5.5222751e-07 -4.5            0              2.5975729    
   1900000   450            200            200            0.0064778095   0.0048581569   0              0.014575272    1.8520271e-15  0              1.7885553e-09 -4.5            0              2.5975729    
   2000000   450            200            200            0.0064778089   0.0048581568   0              0.01457527     6.2293927e-15  0              6.0159016e-09 -4.5            0              2.5975729    
   2100000   450            200            200            0.006477809    0.0048581568   0              0.01457527     2.3158019e-15  0              2.2364357e-09 -4.5            0              2.5975729    
   2200000   450            200            200            0.006477809    0.0048581568   0              0.01457527     2.3800192e-16  0              2.2984522e-10 -4.5            0              2.5975729    
   2300000   450            200            200            0.006477809    0.0048581568   0              0.01457527     1.3459105e-18  0              1.299784e-12  -4.5            0              2.5975729    
   2400000   450            200            200            0.006477809    0.0048581568   0              0.01457527     5.7367861e-20  0              5.5401774e-14 -4.5            0              2.5975729    
   2500000   450            200            200            0.006477809    0.0048581568   0              0.01457527     2.7763925e-19  0              2.6812411e-13 -4.5            0              2.5975729    
   2600000   450            200            200            0.006477809    0.0048581568   0              0.01457527     2.0557641e-19  0              1.9853098e-13 -4.5            0              2.5975729    
   2700000   450            200            200            0.006477809    0.0048581568   0              0.01457527     1.5314663e-20  0              1.4789805e-14 -4.5            0              2.5975729    
   2800000   450            200            200            0.006477809    0.0048581568   0              0.01457527     6.0187978e-22  0              5.8125241e-16 -4.5            0              2.5975729    
   2900000   450            200            200            0.006477809    0.0048581568   0              0.01457527     5.753131e-22   0              5.5559622e-16 -4.5            0              2.5975729    
   3000000   450            200            200            0.006477809    0.0048581568   0              0.01457527     1.4405877e-23  0              1.3912165e-17 -4.5            0              2.5975729    
Loop time of 81.0436 on 4 procs for 3000000 steps with 251 atoms

Performance: 31982800.490 ns/day, 0.000 hours/ns, 37017.130 timesteps/s
99.9% CPU use with 4 MPI tasks x 1 OpenMP threads

MPI task timing breakdown:
Section |  min time  |  avg time  |  max time  |%varavg| %total
---------------------------------------------------------------
Pair    | 10.476     | 16.927     | 23.244     | 141.5 | 20.89
Neigh   | 0.28489    | 0.28645    | 0.28806    |   0.2 |  0.35
Comm    | 22.427     | 27.99      | 34.538     | 100.4 | 34.54
Output  | 0.080826   | 0.0809     | 0.080956   |   0.0 |  0.10
Modify  | 24.059     | 25.953     | 27.079     |  23.1 | 32.02
Other   |            | 9.806      |            |       | 12.10

Nlocal:          62.75 ave          75 max          49 min
Histogram: 1 1 0 0 0 0 0 0 0 2
Nghost:            4.5 ave           5 max           4 min
Histogram: 2 0 0 0 0 0 0 0 0 2
Neighs:            113 ave         151 max          71 min
Histogram: 1 1 0 0 0 0 0 0 0 2

Total # of neighbors = 452
Ave neighs/atom = 1.8007968
Neighbor list builds = 184
Dangerous builds = 0
Generated 0 of 1 mixed pair_coeff terms from geometric mixing rule
Setting up Verlet run ...
  Unit style    : micro
  Current step  : 3000000
  Time step     : 1e-05
Per MPI rank memory allocation (min/avg/max) = 18.15 | 18.15 | 18.15 Mbytes
   Step           Lx             Ly             Lz           Press           Pxx            Pyy            Pzz           KinEng         PotEng          Temp          c_1[1]         c_1[2]         c_1[3]    
   3000000   450            200            200            0.0016193856   0.0048581568   0              1.600653e-30   1.4405877e-23  0              1.3912165e-17 -4.5            0              2.5975729    
   3100000   450            200            200            0.0065362994   0.0050539939   5.2500934e-34  0.014554904    8.8020663e-05  0              85.004056     -4.5001003      0              2.5975749    
   3200000   450            200            200            0.0065484071   0.0050587378   1.2680443e-35  0.014586484    3.5796038e-05  0              34.569251     -4.5001013      2.5112734e-34  2.5975743    
   3300000   450            200            200            0.0065428309   0.0050580981   3.398108e-32   0.014570395    3.620095e-06   0              3.4960286     -4.5001015      5.1430879e-31  2.5975746    
   3400000   450            200            200            0.0065451491   0.0050584105   2.9984041e-32  0.014577037    4.5176283e-08  0              0.043628021   -4.5001015     -2.5715439e-31  2.5975745    
   3500000   450            200            200            0.0065442029   0.0050581049   3.2361205e-32  0.014574504    5.8322737e-08  0              0.056323925   -4.5001015      5.1430879e-31  2.5975746    
   3600000   450            200            200            0.0065445703   0.0050581426   1.9554931e-35  0.014575568    9.1502593e-09  0              0.0088366655  -4.5001014     -5.0225468e-34  2.5975745    
   3700000   450            200            200            0.0065444355   0.005058122    3.1865682e-32  0.014575184    6.457848e-11   0              6.2365274e-05 -4.5001014      0              2.5975746    
   3800000   450            200            200            0.0065444843   0.0050581358   3.1824682e-32  0.014575317    1.1102344e-10  0              0.00010721849 -4.5001014      0              2.5975745    
   3900000   450            200            200            0.0065444693   0.0050581408   1.6014348e-35  0.014575267    2.8780124e-11  0              2.7793784e-05 -4.5001014     -2.5112734e-34  2.5975746    
   4000000   450            200            200            0.0065444743   0.0050581399   1.6021055e-35  0.014575283    1.2030654e-12  0              1.1618344e-06 -4.5001014      2.5112734e-34  2.5975746    
   4100000   450            200            200            0.0065444708   0.0050581342   3.1707607e-32  0.014575278    2.8562182e-13  0              2.7583311e-07 -4.5001014      0              2.5975746    
   4200000   450            200            200            0.0065444717   0.0050581353   3.1798215e-32  0.01457528     8.6330934e-14  0              8.3372237e-08 -4.5001014     -2.5715439e-31  2.5975746    
   4300000   450            200            200            0.0065444715   0.0050581352   1.6094742e-35  0.014575279    8.4376467e-15  0              8.1484752e-09 -4.5001014      2.5112734e-34  2.5975746    
   4400000   450            200            200            0.0065444718   0.0050581361   3.1925431e-32  0.014575279    7.0248246e-16  0              6.7840728e-10 -4.5001014      2.5715439e-31  2.5975746    
   4500000   450            200            200            0.0065444717   0.0050581356   2.9819142e-32  0.014575279    2.6227713e-16  0              2.5328848e-10 -4.5001014     -2.5715439e-31  2.5975746    
   4600000   450            200            200            0.0065444717   0.0050581356   2.952542e-32   0.014575279    1.7378341e-17  0              1.6782757e-11 -4.5001014     -2.5715439e-31  2.5975746    
   4700000   450            200            200            0.0065444716   0.0050581355   2.9909222e-32  0.014575279    4.9465926e-18  0              4.777065e-12  -4.5001014     -2.5715439e-31  2.5975746    
   4800000   450            200            200            0.0065444716   0.0050581355   2.9708976e-32  0.014575279    3.9359915e-19  0              3.8010989e-13 -4.5001014     -2.5715439e-31  2.5975746    
   4900000   450            200            200            0.0065444717   0.0050581355   2.9782258e-32  0.014575279    1.1644827e-19  0              1.124574e-13  -4.5001014     -2.5715439e-31  2.5975746    
   5000000   450            200            200            0.0065444717   0.0050581355   2.9763533e-32  0.014575279    3.0090053e-21  0              2.905882e-15  -4.5001014     -2.5715439e-31  2.5975746    
   5100000   450            200            200            0.0065444717   0.0050581355   2.9765323e-32  0.014575279    2.5810116e-21  0              2.4925562e-15 -4.5001014     -2.5715439e-31  2.5975746    
   5200000   450            200            200            0.0065444717   0.0050581355   2.9766737e-32  0.014575279    1.6008797e-23  0              1.546015e-17  -4.5001014     -2.5715439e-31  2.5975746    
   5300000   450            200            200            0.0065444717   0.0050581355   2.976561e-32   0.014575279    4.8124931e-23  0              4.6475613e-17 -4.5001014     -2.5715439e-31  2.5975746    
   5400000   450            200            200            0.0065444717   0.0050581355   2.9766124e-32  0.014575279    8.1283873e-25  0              7.8498147e-19 -4.5001014     -2.5715439e-31  2.5975746    
   5500000   450            200            200            0.0065444717   0.0050581355   2.9765955e-32  0.014575279    7.3538576e-25  0              7.1018293e-19 -4.5001014     -2.5715439e-31  2.5975746    
   5600000   450            200            200            0.0065444717   0.0050581355   2.9765991e-32  0.014575279    3.9925577e-26  0              3.8557265e-20 -4.5001014     -2.5715439e-31  2.5975746    
   5700000   450            200            200            0.0065444717   0.0050581355   2.9765991e-32  0.014575279    1.0272425e-26  0              9.9203732e-21 -4.5001014     -2.5715439e-31  2.5975746    
   5800000   450            200            200            0.0065444717   0.0050581355   2.9765986e-32  0.014575279    1.0311377e-27  0              9.9579902e-22 -4.5001014     -2.5715439e-31  2.5975746    
   5900000   450            200            200            0.0065444717   0.0050581355   2.976599e-32   0.014575279    1.7018612e-28  0              1.6435357e-22 -4.5001014     -2.5715439e-31  2.5975746    
   6000000   450            200            200            0.0065444717   0.0050581355   2.9765988e-32  0.014575279    1.8532147e-29  0              1.7897021e-23 -4.5001014     -2.5715439e-31  2.5975746    
   6100000   450            200            200            0.0065444717   0.0050581355   2.9765989e-32  0.014575279    3.24605e-30    0              3.1348028e-24 -4.5001014     -2.5715439e-31  2.5975746    
   6200000   450            200            200            0.0065444717   0.0050581355   2.9765989e-32  0.014575279    1.9970966e-31  0              1.928653e-25  -4.5001014     -2.5715439e-31  2.5975746    
   6300000   450            200            200            0.0065444717   0.0050581355   2.9765989e-32  0.014575279    6.8133555e-32  0              6.579851e-26  -4.5001014     -2.5715439e-31  2.5975746    
   6400000   450            200            200            0.0065444717   0.0050581355   2.9765989e-32  0.014575279    6.791759e-32   0              6.5589947e-26 -4.5001014     -2.5715439e-31  2.5975746    
   6500000   450            200            200            0.0065444717   0.0050581355   2.9765989e-32  0.014575279    3.8094954e-32  0              3.678938e-26  -4.5001014     -2.5715439e-31  2.5975746    
   6600000   450            200            200            0.0065444717   0.0050581355   2.9765989e-32  0.014575279    9.1668681e-33  0              8.852705e-27  -4.5001014     -2.5715439e-31  2.5975746    
   6700000   450            200            200            0.0065444717   0.0050581355   2.9765989e-32  0.014575279    4.7899248e-32  0              4.6257665e-26 -4.5001014     -2.5715439e-31  2.5975746    
   6800000   450            200            200            0.0065444717   0.0050581355   2.9765989e-32  0.014575279    5.1417877e-33  0              4.9655705e-27 -4.5001014     -2.5715439e-31  2.5975746    
   6900000   450            200            200            0.0065444717   0.0050581355   2.9765989e-32  0.014575279    1.5716261e-33  0              1.517764e-27  -4.5001014     -2.5715439e-31  2.5975746    
   7000000   450            200            200            0.0065444717   0.0050581355   2.9765989e-32  0.014575279    2.4522516e-32  0              2.3682091e-26 -4.5001014     -2.5715439e-31  2.5975746    
   7100000   450            200            200            0.0065444717   0.0050581355   2.9765989e-32  0.014575279    1.8325677e-32  0              1.7697628e-26 -4.5001014     -2.5715439e-31  2.5975746    
   7200000   450            200            200            0.0065444717   0.0050581355   2.9765989e-32  0.014575279    1.4958198e-32  0              1.4445557e-26 -4.5001014     -2.5715439e-31  2.5975746    
   7300000   450            200            200            0.0065444717   0.0050581355   2.9765989e-32  0.014575279    1.2602212e-32  0              1.2170314e-26 -4.5001014     -2.5715439e-31  2.5975746    
   7400000   450            200            200            0.0065444717   0.0050581355   2.9765989e-32  0.014575279    1.7277353e-32  0              1.6685231e-26 -4.5001014     -2.5715439e-31  2.5975746    
   7500000   450            200            200            0.0065444717   0.0050581355   2.9765989e-32  0.014575279    6.677021e-33   0              6.448189e-27  -4.5001014     -2.5715439e-31  2.5975746    
   7600000   450            200            200            0.0065444717   0.0050581355   2.9765989e-32  0.014575279    1.8712443e-32  0              1.8071138e-26 -4.5001014     -2.5715439e-31  2.5975746    
   7700000   450            200            200            0.0065444717   0.0050581355   2.9765989e-32  0.014575279    4.269937e-33   0              4.1235996e-27 -4.5001014     -2.5715439e-31  2.5975746    
   7800000   450            200            200            0.0065444717   0.0050581355   2.9765989e-32  0.014575279    2.7168043e-34  0              2.6236951e-28 -4.5001014     -2.5715439e-31  2.5975746    
   7900000   450            200            200            0.0065444717   0.0050581355   2.9765989e-32  0.014575279    5.8288537e-33  0              5.6290897e-27 -4.5001014     -2.5715439e-31  2.5975746    
   8000000   450            200            200            0.0065444717   0.0050581355   2.9765989e-32  0.014575279    1.274787e-33   0              1.2310981e-27 -4.5001014     -2.5715439e-31  2.5975746    
Loop time of 141.914 on 4 procs for 5000000 steps with 251 atoms

Performance: 30441061.135 ns/day, 0.000 hours/ns, 35232.710 timesteps/s
100.0% CPU use with 4 MPI tasks x 1 OpenMP threads

MPI task timing breakdown:
Section |  min time  |  avg time  |  max time  |%varavg| %total
---------------------------------------------------------------
Pair    | 18.789     | 31.038     | 43.064     | 198.1 | 21.87
Neigh   | 0          | 0          | 0          |   0.0 |  0.00
Comm    | 36.482     | 47.171     | 59.798     | 147.5 | 33.24
Output  | 0.14525    | 0.1454     | 0.14547    |   0.0 |  0.10
Modify  | 44.034     | 47.372     | 49.184     |  29.5 | 33.38
Other   |            | 16.19      |            |       | 11.41

Nlocal:          62.75 ave          75 max          49 min
Histogram: 1 1 0 0 0 0 0 0 0 2
Nghost:            4.5 ave           5 max           4 min
Histogram: 2 0 0 0 0 0 0 0 0 2
Neighs:            113 ave         151 max          71 min
Histogram: 1 1 0 0 0 0 0 0 0 2

Total # of neighbors = 452
Ave neighs/atom = 1.8007968
Neighbor list builds = 0
Dangerous builds = 0
  using 1 OpenMP thread(s) per MPI task
Lattice spacing in x,y,z = 3 3 3
Created orthogonal box = (-450 -100 -100) to (450 100 100)
  4 by 1 by 1 MPI processor grid
Created 300 atoms
  using lattice units in orthogonal box = (-450 -100 -100) to (450 100 100)
  create_atoms CPU = 0.001 seconds
Lattice spacing in x,y,z = 3 3 3
Created 201 atoms
  using lattice units in orthogonal box = (-450 -100 -100) to (450 100 100)
  create_atoms CPU = 0.000 seconds
Setting atom values ...
  300 settings made for diameter
Setting atom values ...
  300 settings made for mass
Setting atom values ...
  201 settings made for diameter
Setting atom values ...
  201 settings made for mass
300 atoms in group substrate
201 atoms in group slider1
501 atoms in group substrate_slider
Displacing atoms ...
  1 rigid bodies with 201 atoms
Generated 0 of 1 mixed pair_coeff terms from geometric mixing rule
Neighbor list info ...
  update every 1 steps, delay 0 steps, check yes
  max neighbors/atom: 2000, page size: 100000
  master list distance cutoff = 3.1
  ghost atom cutoff = 3.1
  binsize = 1.55, bins = 581 130 130
  1 neighbor lists, perpetual/occasional/extra = 1 0 0
  (1) pair granular, perpetual
      attributes: half, newton on, size, history
      pair build: half/size/bin/newton
      stencil: half/bin/3d
      bin: standard
Setting up Verlet run ...
  Unit style    : micro
  Current step  : 0
  Time step     : 1e-05
Per MPI rank memory allocation (min/avg/max) = 23.16 | 23.16 | 23.16 Mbytes
   Step           Lx             Ly             Lz           Press           Pxx            Pyy            Pzz           KinEng         PotEng          Temp          c_1[1]         c_1[2]         c_1[3]    
         0   900            200            200            0              0              0              0              0              0              0             -4.5            0              6            
    100000   900            200            200            0.0036217817  -6.3791176e-17  0              0.010865345    87945.644      0              4.2465804e+10 -4.5            0              3.2459139    
    200000   900            200            200            0.00068346392 -1.746569e-16   0              0.0020503918   8298.4647      0              4.0070316e+09 -4.5            0              2.8091035    
    300000   900            200            200           -9.8975323e-05 -3.4339515e-16  0             -0.00029692597  370.85157      0              1.7907095e+08 -4.5            0              2.6517736    
    400000   900            200            200            0.00023994331 -5.1414194e-16  0              0.00071982994  1540.6767      0              7.4393762e+08 -4.5            0              2.6022696    
    500000   900            200            200            0.026574865    0.019552904    0              0.06017169     133.21265      0              64323620      -4.5            0              2.596784     
    600000   900            200            200            0.0048104357   0.0035330985   0              0.010898208    10.692515      0              5163032.9     -4.5            0              2.5976632    
    700000   900            200            200            0.0063816247   0.0048254374   0              0.014319437    0.0029369912   0              1418.1679     -4.5            0              2.5975763    
    800000   900            200            200            0.0064495966   0.0048345621   0              0.014514228    0.00095450604  0              460.89681     -4.5            0              2.5975727    
    900000   900            200            200            0.0064522439   0.0048348839   0              0.014521848    8.6853904e-05  0              41.938642     -4.5            0              2.5975726    
   1000000   900            200            200            0.0064416764   0.0048334925   0              0.014491537    7.2970279e-07  0              0.35234736    -4.5            0              2.5975731    
   1100000   900            200            200            0.0064470068   0.0048341984   0              0.014506822    6.3132091e-07  0              0.30484227    -4.5            0              2.5975728    
   1200000   900            200            200            0.0064455622   0.0048340062   0              0.01450268     2.9406454e-07  0              0.14199324    -4.5            0              2.5975729    
   1300000   900            200            200            0.0064456218   0.0048340146   0              0.014502851    3.4122065e-08  0              0.016476324   -4.5            0              2.5975729    
   1400000   900            200            200            0.0064457841   0.0048340359   0              0.014503316    6.9536476e-10  0              0.00033576675 -4.5            0              2.5975729    
   1500000   900            200            200            0.0064456888   0.0048340233   0              0.014503043    1.1397663e-10  0              5.5035235e-05 -4.5            0              2.5975729    
   1600000   900            200            200            0.0064457182   0.0048340272   0              0.014503127    8.6316138e-11  0              4.1678974e-05 -4.5            0              2.5975729    
   1700000   900            200            200            0.0064457152   0.0048340268   0              0.014503119    1.2670217e-11  0              6.1179942e-06 -4.5            0              2.5975729    
   1800000   900            200            200            0.0064457129   0.0048340265   0              0.014503112    4.4220011e-13  0              2.1352261e-07 -4.5            0              2.5975729    
   1900000   900            200            200            0.0064457145   0.0048340267   0              0.014503117    1.4855557e-14  0              7.1732169e-09 -4.5            0              2.5975729    
   2000000   900            200            200            0.0064457139   0.0048340267   0              0.014503115    2.4006246e-14  0              1.1591757e-08 -4.5            0              2.5975729    
   2100000   900            200            200            0.006445714    0.0048340267   0              0.014503115    4.4569369e-15  0              2.1520953e-09 -4.5            0              2.5975729    
   2200000   900            200            200            0.0064457141   0.0048340267   0              0.014503116    2.3283469e-16  0              1.1242754e-10 -4.5            0              2.5975729    
   2300000   900            200            200            0.006445714    0.0048340267   0              0.014503115    4.8267232e-18  0              2.3306519e-12 -4.5            0              2.5975729    
   2400000   900            200            200            0.006445714    0.0048340267   0              0.014503115    1.2774649e-18  0              6.1684208e-13 -4.5            0              2.5975729    
   2500000   900            200            200            0.006445714    0.0048340267   0              0.014503115    2.8721784e-19  0              1.3868721e-13 -4.5            0              2.5975729    
   2600000   900            200            200            0.006445714    0.0048340267   0              0.014503115    1.9034865e-19  0              9.1912551e-14 -4.5            0              2.5975729    
   2700000   900            200            200            0.006445714    0.0048340267   0              0.014503115    5.2567278e-20  0              2.5382857e-14 -4.5            0              2.5975729    
   2800000   900            200            200            0.006445714    0.0048340267   0              0.014503115    8.2431268e-23  0              3.9803109e-17 -4.5            0              2.5975729    
   2900000   900            200            200            0.006445714    0.0048340267   0              0.014503115    7.9321803e-22  0              3.830166e-16  -4.5            0              2.5975729    
   3000000   900            200            200            0.006445714    0.0048340267   0              0.014503115    9.1681794e-23  0              4.4269857e-17 -4.5            0              2.5975729    
Loop time of 121.213 on 4 procs for 3000000 steps with 501 atoms

Performance: 21383925.394 ns/day, 0.000 hours/ns, 24749.914 timesteps/s
100.0% CPU use with 4 MPI tasks x 1 OpenMP threads

MPI task timing breakdown:
Section |  min time  |  avg time  |  max time  |%varavg| %total
---------------------------------------------------------------
Pair    | 19.258     | 32.732     | 46.102     | 225.1 | 27.00
Neigh   | 0.56353    | 0.56825    | 0.57279    |   0.5 |  0.47
Comm    | 23.562     | 35.834     | 48.439     | 203.4 | 29.56
Output  | 0.10319    | 0.10327    | 0.10336    |   0.0 |  0.09
Modify  | 35.445     | 38.884     | 42.85      |  51.8 | 32.08
Other   |            | 13.09      |            |       | 10.80

Nlocal:         125.25 ave         150 max          99 min
Histogram: 2 0 0 0 0 0 0 0 0 2
Nghost:            4.5 ave           5 max           4 min
Histogram: 2 0 0 0 0 0 0 0 0 2
Neighs:          225.5 ave         300 max         147 min
Histogram: 2 0 0 0 0 0 0 0 0 2

Total # of neighbors = 902
Ave neighs/atom = 1.8003992
Neighbor list builds = 184
Dangerous builds = 0
Generated 0 of 1 mixed pair_coeff terms from geometric mixing rule
Setting up Verlet run ...
  Unit style    : micro
  Current step  : 3000000
  Time step     : 1e-05
Per MPI rank memory allocation (min/avg/max) = 23.16 | 23.16 | 23.16 Mbytes
   Step           Lx             Ly             Lz           Press           Pxx            Pyy            Pzz           KinEng         PotEng          Temp          c_1[1]         c_1[2]         c_1[3]    
   3000000   900            200            200            0.0016113422   0.0048340267   0              2.0210993e-19  9.1681794e-23  0              4.4269857e-17 -4.5            0              2.5975729    
   3100000   900            200            200            0.0065140464   0.0050600784  -2.0074932e-34  0.014482061    0.00015291943  0              73.839322     -4.5001001      1.0095069e-33  2.597575     
   3200000   900            200            200            0.0065266343   0.0050648293   2.2730061e-31  0.014515074    4.8249235e-05  0              23.297829     -4.5001011     -5.1686754e-31  2.5975744    
   3300000   900            200            200            0.0065209204   0.0050643653   2.2960826e-31  0.014498396    1.0717418e-05  0              5.1750575     -4.5001014      0              2.5975747    
   3400000   900            200            200            0.0065232906   0.0050649188  -1.374004e-36   0.014504953    8.2994134e-07  0              0.40074897    -4.5001014      0              2.5975746    
   3500000   900            200            200            0.0065223261   0.0050646586   2.2570135e-31  0.01450232     5.264691e-09   0              0.0025421309  -4.5001014      0              2.5975746    
   3600000   900            200            200            0.006522694    0.0050646941  -1.6131741e-36  0.014503388    8.5793061e-09  0              0.0041426399  -4.5001014      0              2.5975746    
   3700000   900            200            200            0.0065225594   0.0050646555   2.2446609e-31  0.014503023    3.1230393e-09  0              0.0015080039  -4.5001014     -1.0337351e-30  2.5975746    
   3800000   900            200            200            0.0065226122   0.0050646753   2.2448244e-31  0.014503161    3.1793945e-10  0              0.00015352158 -4.5001014      5.1686754e-31  2.5975746    
   3900000   900            200            200            0.0065225906   0.0050646577   2.2440766e-31  0.014503114    9.8770481e-12  0              4.7692731e-06 -4.5001014      5.1686754e-31  2.5975746    
   4000000   900            200            200            0.0065225991   0.0050646684   2.2486766e-31  0.014503129    3.0136358e-12  0              1.4551769e-06 -4.5001014      0              2.5975746    
   4100000   900            200            200            0.0065225975   0.0050646686  -1.9295842e-36  0.014503124    1.143962e-12   0              5.5237831e-07 -4.5001014      0              2.5975746    
   4200000   900            200            200            0.006522598    0.0050646691  -2.2683379e-36  0.014503125    1.8435642e-13  0              8.9019116e-08 -4.5001014      0              2.5975746    
   4300000   900            200            200            0.0065225979   0.005064669   -2.3847821e-36  0.014503125    1.5225022e-14  0              7.3516182e-09 -4.5001014      0              2.5975746    
   4400000   900            200            200            0.0065225979   0.0050646689  -2.387343e-36   0.014503125    1.0440854e-15  0              5.0415148e-10 -4.5001014      0              2.5975746    
   4500000   900            200            200            0.0065225979   0.0050646689  -2.3726503e-36  0.014503125    2.1621898e-16  0              1.0440441e-10 -4.5001014      0              2.5975746    
   4600000   900            200            200            0.0065225979   0.0050646689  -2.3661951e-36  0.014503125    4.6121913e-17  0              2.2270621e-11 -4.5001014      0              2.5975746    
   4700000   900            200            200            0.0065225979   0.0050646689  -2.3654998e-36  0.014503125    6.5753702e-18  0              3.1750109e-12 -4.5001014      0              2.5975746    
   4800000   900            200            200            0.0065225979   0.0050646689  -2.3660847e-36  0.014503125    1.797369e-18   0              8.6788518e-13 -4.5001014      0              2.5975746    
   4900000   900            200            200            0.0065225979   0.0050646689  -2.3664219e-36  0.014503125    2.0982145e-20  0              1.0131527e-14 -4.5001014      0              2.5975746    
   5000000   900            200            200            0.0065225979   0.0050646689  -2.3664829e-36  0.014503125    3.1197522e-20  0              1.5064167e-14 -4.5001014      0              2.5975746    
   5100000   900            200            200            0.0065225979   0.0050646689  -2.3664626e-36  0.014503125    2.8938756e-21  0              1.3973489e-15 -4.5001014      0              2.5975746    
   5200000   900            200            200            0.0065225979   0.0050646689  -2.3664459e-36  0.014503125    9.7385374e-23  0              4.7023912e-17 -4.5001014      0              2.5975746    
   5300000   900            200            200            0.0065225979   0.0050646689  -2.3664417e-36  0.014503125    9.4668554e-23  0              4.5712057e-17 -4.5001014      0              2.5975746    
   5400000   900            200            200            0.0065225979   0.0050646689  -2.3664422e-36  0.014503125    2.3235969e-24  0              1.1219818e-18 -4.5001014      0              2.5975746    
   5500000   900            200            200            0.0065225979   0.0050646689  -2.366443e-36   0.014503125    9.6509874e-25  0              4.6601164e-19 -4.5001014      0              2.5975746    
   5600000   900            200            200            0.0065225979   0.0050646689  -2.3664433e-36  0.014503125    1.6086192e-25  0              7.7674462e-20 -4.5001014      0              2.5975746    
   5700000   900            200            200            0.0065225979   0.0050646689  -2.3664433e-36  0.014503125    9.577577e-27   0              4.6246692e-21 -4.5001014      0              2.5975746    
   5800000   900            200            200            0.0065225979   0.0050646689  -2.3664432e-36  0.014503125    2.7459047e-27  0              1.3258991e-21 -4.5001014      0              2.5975746    
   5900000   900            200            200            0.0065225979   0.0050646689  -2.3664432e-36  0.014503125    2.6086101e-28  0              1.2596045e-22 -4.5001014      0              2.5975746    
   6000000   900            200            200            0.0065225979   0.0050646689  -2.3664432e-36  0.014503125    4.9718693e-29  0              2.4007378e-23 -4.5001014      0              2.5975746    
   6100000   900            200            200            0.0065225979   0.0050646689  -2.3664432e-36  0.014503125    3.1898399e-30  0              1.5402595e-24 -4.5001014      0              2.5975746    
   6200000   900            200            200            0.0065225979   0.0050646689  -2.3664432e-36  0.014503125    8.0540682e-31  0              3.8890213e-25 -4.5001014      0              2.5975746    
   6300000   900            200            200            0.0065225979   0.0050646689  -2.3664432e-36  0.014503125    3.148583e-32   0              1.520338e-26  -4.5001014      0              2.5975746    
   6400000   900            200            200            0.0065225979   0.0050646689  -2.3664432e-36  0.014503125    7.4187723e-32  0              3.5822597e-26 -4.5001014      0              2.5975746    
   6500000   900            200            200            0.0065225979   0.0050646689  -2.3664432e-36  0.014503125    9.2683696e-33  0              4.475364e-27  -4.5001014      0              2.5975746    
   6600000   900            200            200            0.0065225979   0.0050646689  -2.3664432e-36  0.014503125    3.6638165e-33  0              1.7691259e-27 -4.5001014      0              2.5975746    
   6700000   900            200            200            0.0065225979   0.0050646689  -2.3664432e-36  0.014503125    1.4426283e-32  0              6.9659358e-27 -4.5001014      0              2.5975746    
   6800000   900            200            200            0.0065225979   0.0050646689  -2.3664432e-36  0.014503125    3.1187911e-32  0              1.5059526e-26 -4.5001014      0              2.5975746    
   6900000   900            200            200            0.0065225979   0.0050646689  -2.3664432e-36  0.014503125    6.1708548e-33  0              2.9796849e-27 -4.5001014      0              2.5975746    
   7000000   900            200            200            0.0065225979   0.0050646689  -2.3664432e-36  0.014503125    1.6287209e-32  0              7.8645105e-27 -4.5001014      0              2.5975746    
   7100000   900            200            200            0.0065225979   0.0050646689  -2.3664432e-36  0.014503125    1.4509267e-32  0              7.0060059e-27 -4.5001014      0              2.5975746    
   7200000   900            200            200            0.0065225979   0.0050646689  -2.3664432e-36  0.014503125    1.434462e-32   0              6.9265036e-27 -4.5001014      0              2.5975746    
   7300000   900            200            200            0.0065225979   0.0050646689  -2.3664432e-36  0.014503125    1.9100157e-32  0              9.2227824e-27 -4.5001014      0              2.5975746    
   7400000   900            200            200            0.0065225979   0.0050646689  -2.3664432e-36  0.014503125    2.6643386e-32  0              1.2865137e-26 -4.5001014      0              2.5975746    
   7500000   900            200            200            0.0065225979   0.0050646689  -2.3664432e-36  0.014503125    1.9833734e-32  0              9.5770002e-27 -4.5001014      0              2.5975746    
   7600000   900            200            200            0.0065225979   0.0050646689  -2.3664432e-36  0.014503125    1.4127847e-32  0              6.8218317e-27 -4.5001014      0              2.5975746    
   7700000   900            200            200            0.0065225979   0.0050646689  -2.3664432e-36  0.014503125    1.2993292e-32  0              6.2739957e-27 -4.5001014      0              2.5975746    
   7800000   900            200            200            0.0065225979   0.0050646689  -2.3664432e-36  0.014503125    2.4751758e-33  0              1.1951738e-27 -4.5001014      0              2.5975746    
   7900000   900            200            200            0.0065225979   0.0050646689  -2.3664432e-36  0.014503125    2.6443225e-33  0              1.2768487e-27 -4.5001014      0              2.5975746    
   8000000   900            200            200            0.0065225979   0.0050646689  -2.3664432e-36  0.014503125    2.8191999e-33  0              1.3612907e-27 -4.5001014      0              2.5975746    
Loop time of 214.007 on 4 procs for 5000000 steps with 501 atoms

Performance: 20186264.069 ns/day, 0.000 hours/ns, 23363.732 timesteps/s
100.0% CPU use with 4 MPI tasks x 1 OpenMP threads

MPI task timing breakdown:
Section |  min time  |  avg time  |  max time  |%varavg| %total
---------------------------------------------------------------
Pair    | 34.374     | 59.045     | 83.978     | 307.1 | 27.59
Neigh   | 0          | 0          | 0          |   0.0 |  0.00
Comm    | 37.653     | 60.395     | 82.894     | 285.9 | 28.22
Output  | 0.18385    | 0.18395    | 0.18409    |   0.0 |  0.09
Modify  | 66.483     | 72.602     | 79.149     |  61.5 | 33.92
Other   |            | 21.78      |            |       | 10.18

Nlocal:         125.25 ave         150 max          99 min
Histogram: 2 0 0 0 0 0 0 0 0 2
Nghost:            4.5 ave           5 max           4 min
Histogram: 2 0 0 0 0 0 0 0 0 2
Neighs:          225.5 ave         300 max         147 min
Histogram: 2 0 0 0 0 0 0 0 0 2

Total # of neighbors = 902
Ave neighs/atom = 1.8003992
Neighbor list builds = 0
Dangerous builds = 0
  using 1 OpenMP thread(s) per MPI task
Lattice spacing in x,y,z = 3 3 3
Created orthogonal box = (-675 -100 -100) to (675 100 100)
  4 by 1 by 1 MPI processor grid
Created 450 atoms
  using lattice units in orthogonal box = (-675 -100 -100) to (675 100 100)
  create_atoms CPU = 0.001 seconds
Lattice spacing in x,y,z = 3 3 3
Created 301 atoms
  using lattice units in orthogonal box = (-675 -100 -100) to (675 100 100)
  create_atoms CPU = 0.000 seconds
Setting atom values ...
  450 settings made for diameter
Setting atom values ...
  450 settings made for mass
Setting atom values ...
  301 settings made for diameter
Setting atom values ...
  301 settings made for mass
450 atoms in group substrate
301 atoms in group slider1
751 atoms in group substrate_slider
Displacing atoms ...
  1 rigid bodies with 301 atoms
Generated 0 of 1 mixed pair_coeff terms from geometric mixing rule
Neighbor list info ...
  update every 1 steps, delay 0 steps, check yes
  max neighbors/atom: 2000, page size: 100000
  master list distance cutoff = 3.1
  ghost atom cutoff = 3.1
  binsize = 1.55, bins = 871 130 130
  1 neighbor lists, perpetual/occasional/extra = 1 0 0
  (1) pair granular, perpetual
      attributes: half, newton on, size, history
      pair build: half/size/bin/newton
      stencil: half/bin/3d
      bin: standard
Setting up Verlet run ...
  Unit style    : micro
  Current step  : 0
  Time step     : 1e-05
Per MPI rank memory allocation (min/avg/max) = 28.24 | 28.24 | 28.24 Mbytes
   Step           Lx             Ly             Lz           Press           Pxx            Pyy            Pzz           KinEng         PotEng          Temp          c_1[1]         c_1[2]         c_1[3]    
         0   1350           200            200            0              0              0              0              0              0              0             -4.5            0              6            
    100000   1350           200            200            0.0036158444   2.8331859e-18  0              0.010847533    131706.07      0              4.2397433e+10 -4.5            0              3.2458194    
    200000   1350           200            200            0.00068317102  7.7696802e-18  0              0.0020495131   12452.796      0              4.0086731e+09 -4.5            0              2.8089714    
    300000   1350           200            200           -9.7370682e-05  1.5235415e-17  0             -0.00029211205  538.07449      0              1.7321127e+08 -4.5            0              2.6518137    
    400000   1350           200            200            0.00024349203  2.2830126e-17  0              0.0007304761   2375.8468      0              7.6480759e+08 -4.5            0              2.6020243    
    500000   1350           200            200            0.029961456    0.022069002    0              0.067815365    85.599077      0              27555154      -4.5            0              2.5966739    
    600000   1350           200            200            0.005813771    0.0042717895   0              0.013169524    18.798274      0              6051342.5     -4.5            0              2.5976069    
    700000   1350           200            200            0.006394248    0.0048206425   0              0.014362102    0.008123458    0              2615.0181     -4.5            0              2.5975751    
    800000   1350           200            200            0.0064279456   0.0048252024   0              0.014458634    0.0013642772   0              439.17375     -4.5            0              2.5975733    
    900000   1350           200            200            0.0064443479   0.004827348    0              0.014505696    5.9912059e-05  0              19.286259     -4.5            0              2.5975724    
   1000000   1350           200            200            0.0064310293   0.0048255898   0              0.014467498    6.4239008e-07  0              0.20679145    -4.5            0              2.5975731    
   1100000   1350           200            200            0.006435983    0.0048262471   0              0.014481702    2.1579937e-06  0              0.69467862    -4.5            0              2.5975729    
   1200000   1350           200            200            0.0064351099   0.0048261303   0              0.014479199    4.6418989e-07  0              0.14942712    -4.5            0              2.5975729    
   1300000   1350           200            200            0.006434914    0.0048261049   0              0.014478637    2.8476469e-08  0              0.0091668451  -4.5            0              2.5975729    
   1400000   1350           200            200            0.0064351364   0.0048261342   0              0.014479275    6.499157e-13   0              2.0921402e-07 -4.5            0              2.5975729    
   1500000   1350           200            200            0.0064350432   0.0048261219   0              0.014479008    5.325993e-10   0              0.00017144876 -4.5            0              2.5975729    
   1600000   1350           200            200            0.0064350634   0.0048261246   0              0.014479066    1.5092668e-10  0              4.8584728e-05 -4.5            0              2.5975729    
   1700000   1350           200            200            0.0064350651   0.0048261248   0              0.01447907     1.2253896e-11  0              3.9446453e-06 -4.5            0              2.5975729    
   1800000   1350           200            200            0.0064350615   0.0048261243   0              0.01447906     5.3478435e-14  0              1.7215215e-08 -4.5            0              2.5975729    
   1900000   1350           200            200            0.0064350632   0.0048261245   0              0.014479065    1.1929252e-13  0              3.8401391e-08 -4.5            0              2.5975729    
   2000000   1350           200            200            0.0064350627   0.0048261245   0              0.014479064    4.6752923e-14  0              1.5050209e-08 -4.5            0              2.5975729    
   2100000   1350           200            200            0.0064350627   0.0048261245   0              0.014479064    4.8981759e-15  0              1.5767692e-09 -4.5            0              2.5975729    
   2200000   1350           200            200            0.0064350628   0.0048261245   0              0.014479064    7.4539429e-17  0              2.3994948e-11 -4.5            0              2.5975729    
   2300000   1350           200            200            0.0064350628   0.0048261245   0              0.014479064    4.1017197e-17  0              1.3203824e-11 -4.5            0              2.5975729    
   2400000   1350           200            200            0.0064350628   0.0048261245   0              0.014479064    2.1713618e-19  0              6.9898195e-14 -4.5            0              2.5975729    
   2500000   1350           200            200            0.0064350628   0.0048261245   0              0.014479064    1.0884115e-18  0              3.5036999e-13 -4.5            0              2.5975729    
   2600000   1350           200            200            0.0064350628   0.0048261245   0              0.014479064    8.2177491e-20  0              2.6453713e-14 -4.5            0              2.5975729    
   2700000   1350           200            200            0.0064350628   0.0048261245   0              0.014479064    8.3265978e-20  0              2.6804107e-14 -4.5            0              2.5975729    
   2800000   1350           200            200            0.0064350628   0.0048261245   0              0.014479064    2.1866227e-21  0              7.0389457e-16 -4.5            0              2.5975729    
   2900000   1350           200            200            0.0064350628   0.0048261245   0              0.014479064    6.20322e-22    0              1.9968753e-16 -4.5            0              2.5975729    
   3000000   1350           200            200            0.0064350628   0.0048261245   0              0.014479064    1.8669479e-22  0              6.0098823e-17 -4.5            0              2.5975729    
Loop time of 153.121 on 4 procs for 3000000 steps with 751 atoms

Performance: 16927741.353 ns/day, 0.000 hours/ns, 19592.293 timesteps/s
100.0% CPU use with 4 MPI tasks x 1 OpenMP threads

MPI task timing breakdown:
Section |  min time  |  avg time  |  max time  |%varavg| %total
---------------------------------------------------------------
Pair    | 29.092     | 46.789     | 64.823     | 258.3 | 30.56
Neigh   | 0.84357    | 0.85032    | 0.85716    |   0.6 |  0.56
Comm    | 23.651     | 41.234     | 59.169     | 267.8 | 26.93
Output  | 0.11035    | 0.11045    | 0.11055    |   0.0 |  0.07
Modify  | 42.997     | 48.443     | 53.429     |  67.9 | 31.64
Other   |            | 15.69      |            |       | 10.25

Nlocal:         187.75 ave         225 max         149 min
Histogram: 2 0 0 0 0 0 0 0 0 2
Nghost:            4.5 ave           5 max           4 min
Histogram: 2 0 0 0 0 0 0 0 0 2
Neighs:            338 ave         451 max         221 min
Histogram: 2 0 0 0 0 0 0 0 0 2

Total # of neighbors = 1352
Ave neighs/atom = 1.8002663
Neighbor list builds = 184
Dangerous builds = 0
Generated 0 of 1 mixed pair_coeff terms from geometric mixing rule
Setting up Verlet run ...
  Unit style    : micro
  Current step  : 3000000
  Time step     : 1e-05
Per MPI rank memory allocation (min/avg/max) = 28.24 | 28.24 | 28.24 Mbytes
   Step           Lx             Ly             Lz           Press           Pxx            Pyy            Pzz           KinEng         PotEng          Temp          c_1[1]         c_1[2]         c_1[3]    
   3000000   1350           200            200            0.0016087082   0.0048261245   0             -1.6168795e-18  1.8669479e-22  0              6.0098823e-17 -4.5            0              2.5975729    
   3100000   1350           200            200            0.0065137391   0.0050833781  -4.1905725e-36  0.014457839    0.00023106097  0              74.380714     -4.5001001     -3.3706128e-34  2.597575     
   3200000   1350           200            200            0.0065264745   0.0050882659  -1.7461775e-37  0.014491158    6.4503593e-05  0              20.764318     -4.500101       2.106633e-35   2.5975744    
   3300000   1350           200            200            0.0065207069   0.005087742   -3.1719454e-37  0.014474379    1.5894259e-05  0              5.1165125     -4.5001013      2.106633e-35   2.5975747    
   3400000   1350           200            200            0.006523088    0.0050883395  -1.9037734e-37  0.014480924    1.5625887e-06  0              0.50301209    -4.5001014     -2.106633e-35   2.5975746    
   3500000   1350           200            200            0.0065221203   0.0050880902  -2.1621514e-37  0.014478271    2.9687884e-08  0              0.0095568111  -4.5001014     -2.106633e-35   2.5975746    
   3600000   1350           200            200            0.0065224846   0.0050881208  -1.6888686e-37  0.014479333    5.496363e-09   0              0.0017693313  -4.5001014     -2.106633e-35   2.5975746    
   3700000   1350           200            200            0.0065223438   0.0050880618  -1.540239e-37   0.01447897     3.9624431e-09  0              0.001275548   -4.5001014     -2.106633e-35   2.5975746    
   3800000   1350           200            200            0.006522383    0.0050880405  -1.3692458e-37  0.014479109    6.4050567e-10  0              0.00020618484 -4.5001014     -2.106633e-35   2.5975746    
   3900000   1350           200            200            0.0065223798   0.0050880767  -1.2936082e-37  0.014479063    3.771146e-11   0              1.2139676e-05 -4.5001014      0              2.5975746    
   4000000   1350           200            200            0.0065223834   0.005088073   -1.2331439e-37  0.014479077    2.5021296e-12  0              8.0545923e-07 -4.5001014     -2.106633e-35   2.5975746    
   4100000   1350           200            200            0.0065223863   0.0050880867  -1.2028569e-37  0.014479072    1.5222224e-12  0              4.9001782e-07 -4.5001014     -2.106633e-35   2.5975746    
   4200000   1350           200            200            0.0065223868   0.0050880869  -1.1947938e-37  0.014479074    2.9687295e-13  0              9.5566215e-08 -4.5001014      0              2.5975746    
   4300000   1350           200            200            0.0065223864   0.0050880859  -1.1911053e-37  0.014479073    3.4740948e-14  0              1.118344e-08  -4.5001014     -2.106633e-35   2.5975746    
   4400000   1350           200            200            0.0065223866   0.0050880864  -1.189564e-37   0.014479073    2.4664601e-15  0              7.9397687e-10 -4.5001014     -2.106633e-35   2.5975746    
   4500000   1350           200            200            0.0065223868   0.0050880871  -1.1889885e-37  0.014479073    6.836729e-16   0              2.2008078e-10 -4.5001014     -2.106633e-35   2.5975746    
   4600000   1350           200            200            0.0065223868   0.0050880871  -1.1888689e-37  0.014479073    3.7243862e-17  0              1.1989152e-11 -4.5001014     -2.106633e-35   2.5975746    
   4700000   1350           200            200            0.0065223867   0.005088087   -1.1887418e-37  0.014479073    1.1048097e-17  0              3.5564872e-12 -4.5001014     -2.106633e-35   2.5975746    
   4800000   1350           200            200            0.0065223867   0.005088087   -1.1886646e-37  0.014479073    1.1262042e-18  0              3.625358e-13  -4.5001014     -2.106633e-35   2.5975746    
   4900000   1350           200            200            0.0065223867   0.005088087   -1.1886178e-37  0.014479073    2.925513e-19   0              9.4175035e-14 -4.5001014     -2.106633e-35   2.5975746    
   5000000   1350           200            200            0.0065223867   0.005088087   -1.18859e-37    0.014479073    1.866378e-20   0              6.0080477e-15 -4.5001014     -2.106633e-35   2.5975746    
   5100000   1350           200            200            0.0065223867   0.005088087   -1.1885751e-37  0.014479073    4.4841583e-21  0              1.443493e-15  -4.5001014     -2.106633e-35   2.5975746    
   5200000   1350           200            200            0.0065223867   0.005088087   -1.1885668e-37  0.014479073    4.3422307e-22  0              1.3978052e-16 -4.5001014     -2.106633e-35   2.5975746    
   5300000   1350           200            200            0.0065223867   0.005088087   -1.1885621e-37  0.014479073    8.4639655e-23  0              2.7246307e-17 -4.5001014     -2.106633e-35   2.5975746    
   5400000   1350           200            200            0.0065223867   0.005088087   -1.1885595e-37  0.014479073    6.1270636e-24  0              1.9723598e-18 -4.5001014     -2.106633e-35   2.5975746    
   5500000   1350           200            200            0.0065223867   0.005088087   -1.1885581e-37  0.014479073    1.5216461e-24  0              4.8983229e-19 -4.5001014     -2.106633e-35   2.5975746    
   5600000   1350           200            200            0.0065223867   0.005088087   -1.1885574e-37  0.014479073    1.9772772e-25  0              6.3650426e-20 -4.5001014     -2.106633e-35   2.5975746    
   5700000   1350           200            200            0.0065223867   0.005088087   -1.188557e-37   0.014479073    7.739305e-27   0              2.4913556e-21 -4.5001014     -2.106633e-35   2.5975746    
   5800000   1350           200            200            0.0065223867   0.005088087   -1.1885568e-37  0.014479073    6.0618404e-27  0              1.9513639e-21 -4.5001014     -2.106633e-35   2.5975746    
   5900000   1350           200            200            0.0065223867   0.005088087   -1.1885566e-37  0.014479073    4.0378902e-29  0              1.2998351e-23 -4.5001014     -2.106633e-35   2.5975746    
   6000000   1350           200            200            0.0065223867   0.005088087   -1.1885566e-37  0.014479073    8.7135325e-29  0              2.8049687e-23 -4.5001014     -2.106633e-35   2.5975746    
   6100000   1350           200            200            0.0065223867   0.005088087   -1.1885566e-37  0.014479073    5.6612836e-30  0              1.8224208e-24 -4.5001014     -2.106633e-35   2.5975746    
   6200000   1350           200            200            0.0065223867   0.005088087   -1.1885565e-37  0.014479073    8.0554369e-31  0              2.5931214e-25 -4.5001014     -2.106633e-35   2.5975746    
   6300000   1350           200            200            0.0065223867   0.005088087   -1.1885565e-37  0.014479073    1.3551055e-31  0              4.3622131e-26 -4.5001014     -2.106633e-35   2.5975746    
   6400000   1350           200            200            0.0065223867   0.005088087   -1.1885565e-37  0.014479073    5.9025116e-32  0              1.9000744e-26 -4.5001014     -2.106633e-35   2.5975746    
   6500000   1350           200            200            0.0065223867   0.005088087   -1.1885565e-37  0.014479073    1.5108791e-32  0              4.8636628e-27 -4.5001014     -2.106633e-35   2.5975746    
   6600000   1350           200            200            0.0065223867   0.005088087   -1.1885565e-37  0.014479073    9.1228448e-33  0              2.9367302e-27 -4.5001014     -2.106633e-35   2.5975746    
   6700000   1350           200            200            0.0065223867   0.005088087   -1.1885565e-37  0.014479073    2.5082734e-32  0              8.0743699e-27 -4.5001014     -2.106633e-35   2.5975746    
   6800000   1350           200            200            0.0065223867   0.005088087   -1.1885565e-37  0.014479073    2.9721108e-32  0              9.5675063e-27 -4.5001014     -2.106633e-35   2.5975746    
   6900000   1350           200            200            0.0065223867   0.005088087   -1.1885565e-37  0.014479073    4.4314599e-32  0              1.4265289e-26 -4.5001014     -2.106633e-35   2.5975746    
   7000000   1350           200            200            0.0065223867   0.005088087   -1.1885565e-37  0.014479073    2.1536303e-32  0              6.93274e-27   -4.5001014     -2.106633e-35   2.5975746    
   7100000   1350           200            200            0.0065223867   0.005088087   -1.1885565e-37  0.014479073    2.9564333e-33  0              9.517039e-28  -4.5001014     -2.106633e-35   2.5975746    
   7200000   1350           200            200            0.0065223867   0.005088087   -1.1885565e-37  0.014479073    2.3451582e-32  0              7.5492864e-27 -4.5001014     -2.106633e-35   2.5975746    
   7300000   1350           200            200            0.0065223867   0.005088087   -1.1885565e-37  0.014479073    7.6277195e-33  0              2.4554352e-27 -4.5001014     -2.106633e-35   2.5975746    
   7400000   1350           200            200            0.0065223867   0.005088087   -1.1885565e-37  0.014479073    6.1885439e-33  0              1.9921509e-27 -4.5001014     -2.106633e-35   2.5975746    
   7500000   1350           200            200            0.0065223867   0.005088087   -1.1885565e-37  0.014479073    6.0211674e-32  0              1.9382708e-26 -4.5001014     -2.106633e-35   2.5975746    
   7600000   1350           200            200            0.0065223867   0.005088087   -1.1885565e-37  0.014479073    3.3365858e-33  0              1.0740786e-27 -4.5001014     -2.106633e-35   2.5975746    
   7700000   1350           200            200            0.0065223867   0.005088087   -1.1885565e-37  0.014479073    7.4893787e-33  0              2.410902e-27  -4.5001014     -2.106633e-35   2.5975746    
   7800000   1350           200            200            0.0065223867   0.005088087   -1.1885565e-37  0.014479073    4.4592246e-33  0              1.4354666e-27 -4.5001014     -2.106633e-35   2.5975746    
   7900000   1350           200            200            0.0065223867   0.005088087   -1.1885565e-37  0.014479073    1.5305532e-32  0              4.9269957e-27 -4.5001014     -2.106633e-35   2.5975746    
   8000000   1350           200            200            0.0065223867   0.005088087   -1.1885565e-37  0.014479073    1.2619897e-32  0              4.0624644e-27 -4.5001014     -2.106633e-35   2.5975746    
Loop time of 306.354 on 4 procs for 5000000 steps with 751 atoms

Performance: 14101349.917 ns/day, 0.000 hours/ns, 16321.007 timesteps/s
100.0% CPU use with 4 MPI tasks x 1 OpenMP threads

MPI task timing breakdown:
Section |  min time  |  avg time  |  max time  |%varavg| %total
---------------------------------------------------------------
Pair    | 63.644     | 107.91     | 151.78     | 421.8 | 35.22
Neigh   | 0          | 0          | 0          |   0.0 |  0.00
Comm    | 37.425     | 80.856     | 125.09     | 479.2 | 26.39
Output  | 0.22426    | 0.22436    | 0.22454    |   0.0 |  0.07
Modify  | 82.695     | 91.208     | 99.748     |  82.2 | 29.77
Other   |            | 26.15      |            |       |  8.54

Nlocal:         187.75 ave         225 max         149 min
Histogram: 2 0 0 0 0 0 0 0 0 2
Nghost:            4.5 ave           5 max           4 min
Histogram: 2 0 0 0 0 0 0 0 0 2
Neighs:            338 ave         451 max         221 min
Histogram: 2 0 0 0 0 0 0 0 0 2

Total # of neighbors = 1352
Ave neighs/atom = 1.8002663
Neighbor list builds = 0
Dangerous builds = 0
  using 1 OpenMP thread(s) per MPI task
Lattice spacing in x,y,z = 3 3 3
Created orthogonal box = (-900 -100 -100) to (900 100 100)
  4 by 1 by 1 MPI processor grid
Created 600 atoms
  using lattice units in orthogonal box = (-900 -100 -100) to (900 100 100)
  create_atoms CPU = 0.001 seconds
Lattice spacing in x,y,z = 3 3 3
Created 401 atoms
  using lattice units in orthogonal box = (-900 -100 -100) to (900 100 100)
  create_atoms CPU = 0.000 seconds
Setting atom values ...
  600 settings made for diameter
Setting atom values ...
  600 settings made for mass
Setting atom values ...
  401 settings made for diameter
Setting atom values ...
  401 settings made for mass
600 atoms in group substrate
401 atoms in group slider1
1001 atoms in group substrate_slider
Displacing atoms ...
  1 rigid bodies with 401 atoms
Generated 0 of 1 mixed pair_coeff terms from geometric mixing rule
Neighbor list info ...
  update every 1 steps, delay 0 steps, check yes
  max neighbors/atom: 2000, page size: 100000
  master list distance cutoff = 3.1
  ghost atom cutoff = 3.1
  binsize = 1.55, bins = 1162 130 130
  1 neighbor lists, perpetual/occasional/extra = 1 0 0
  (1) pair granular, perpetual
      attributes: half, newton on, size, history
      pair build: half/size/bin/newton
      stencil: half/bin/3d
      bin: standard
Setting up Verlet run ...
  Unit style    : micro
  Current step  : 0
  Time step     : 1e-05
Per MPI rank memory allocation (min/avg/max) = 33.32 | 33.35 | 33.39 Mbytes
   Step           Lx             Ly             Lz           Press           Pxx            Pyy            Pzz           KinEng         PotEng          Temp          c_1[1]         c_1[2]         c_1[3]    
         0   1800           200            200            0              0              0              0              0              0              0             -4.5            0              6            
    100000   1800           200            200            0.0036129101  -2.764231e-17   0              0.01083873     175470.74      0              4.2364271e+10 -4.5            0              3.2457248    
    200000   1800           200            200            0.00068344472 -7.5664373e-17  0              0.0020503342   16624.309      0              4.013642e+09  -4.5            0              2.808839     
    300000   1800           200            200           -9.5844821e-05 -1.4853751e-16  0             -0.00028753446  694.14459      0              1.6758879e+08 -4.5            0              2.651853     
    400000   1800           200            200            0.00024724418 -2.2258957e-16  0              0.00074173253  3257.9705      0              7.8657867e+08 -4.5            0              2.6017753    
    500000   1800           200            200            0.031887311    0.023508708    0              0.072153225    19.079476      0              4606398.2     -4.5            0              2.5966127    
    600000   1800           200            200            0.0069206509   0.0050879754   0              0.015673977    25.015344      0              6039507.1     -4.5            0              2.5975486    
    700000   1800           200            200            0.0064172928   0.0048205353   0              0.014431343    0.013892963    0              3354.2074     -4.5            0              2.5975736    
    800000   1800           200            200            0.0064126951   0.0048199998   0              0.014418085    0.0013040149   0              314.83107     -4.5            0              2.5975738    
    900000   1800           200            200            0.0064405671   0.0048236733   0              0.014498028    1.2941216e-05  0              3.124425      -4.5            0              2.5975724    
   1000000   1800           200            200            0.0064262504   0.0048217798   0              0.014456971    8.4424449e-06  0              2.0382773     -4.5            0              2.5975731    
   1100000   1800           200            200            0.0064301984   0.0048223051   0              0.01446829     4.1596139e-06  0              1.0042643     -4.5            0              2.5975729    
   1200000   1800           200            200            0.006429997    0.0048222771   0              0.014467714    4.9672753e-07  0              0.11992597    -4.5            0              2.5975729    
   1300000   1800           200            200            0.0064295767   0.0048222219   0              0.014466508    1.1025311e-08  0              0.0026618639  -4.5            0              2.5975729    
   1400000   1800           200            200            0.006429829    0.0048222552   0              0.014467232    1.4447774e-09  0              0.00034881565 -4.5            0              2.5975729    
   1500000   1800           200            200            0.0064297499   0.0048222447   0              0.014467005    1.1856424e-09  0              0.00028625215 -4.5            0              2.5975729    
   1600000   1800           200            200            0.0064297586   0.0048222459   0              0.01446703     1.7897001e-10  0              4.3209107e-05 -4.5            0              2.5975729    
   1700000   1800           200            200            0.0064297645   0.0048222467   0              0.014467047    6.5803419e-12  0              1.5887058e-06 -4.5            0              2.5975729    
   1800000   1800           200            200            0.0064297602   0.0048222461   0              0.014467034    1.7132779e-13  0              4.1364028e-08 -4.5            0              2.5975729    
   1900000   1800           200            200            0.0064297617   0.0048222463   0              0.014467039    3.1957692e-13  0              7.7156129e-08 -4.5            0              2.5975729    
   2000000   1800           200            200            0.0064297615   0.0048222463   0              0.014467038    6.1601587e-14  0              1.4872601e-08 -4.5            0              2.5975729    
   2100000   1800           200            200            0.0064297614   0.0048222463   0              0.014467038    3.3335068e-15  0              8.0481556e-10 -4.5            0              2.5975729    
   2200000   1800           200            200            0.0064297615   0.0048222463   0              0.014467038    1.0194725e-17  0              2.4613339e-12 -4.5            0              2.5975729    
   2300000   1800           200            200            0.0064297614   0.0048222463   0              0.014467038    1.0901617e-16  0              2.6320003e-11 -4.5            0              2.5975729    
   2400000   1800           200            200            0.0064297614   0.0048222463   0              0.014467038    8.8935637e-19  0              2.1471918e-13 -4.5            0              2.5975729    
   2500000   1800           200            200            0.0064297614   0.0048222463   0              0.014467038    3.6295048e-18  0              8.7627899e-13 -4.5            0              2.5975729    
   2600000   1800           200            200            0.0064297614   0.0048222463   0              0.014467038    7.9212307e-19  0              1.9124394e-13 -4.5            0              2.5975729    
   2700000   1800           200            200            0.0064297614   0.0048222463   0              0.014467038    1.5422695e-20  0              3.7235337e-15 -4.5            0              2.5975729    
   2800000   1800           200            200            0.0064297614   0.0048222463   0              0.014467038    6.7990628e-21  0              1.641512e-15  -4.5            0              2.5975729    
   2900000   1800           200            200            0.0064297614   0.0048222463   0              0.014467038    1.6769601e-21  0              4.04872e-16   -4.5            0              2.5975729    
   3000000   1800           200            200            0.0064297614   0.0048222463   0              0.014467038    1.1023745e-24  0              2.661486e-19  -4.5            0              2.5975729    
Loop time of 194.436 on 4 procs for 3000000 steps with 1001 atoms

Performance: 13330888.954 ns/day, 0.000 hours/ns, 15429.270 timesteps/s
100.0% CPU use with 4 MPI tasks x 1 OpenMP threads

MPI task timing breakdown:
Section |  min time  |  avg time  |  max time  |%varavg| %total
---------------------------------------------------------------
Pair    | 38.477     | 64.225     | 89.253     | 308.0 | 33.03
Neigh   | 1.1112     | 1.1172     | 1.1234     |   0.5 |  0.57
Comm    | 24.834     | 49.012     | 74.28      | 344.8 | 25.21
Output  | 0.12029    | 0.12037    | 0.12049    |   0.0 |  0.06
Modify  | 54.648     | 61.247     | 68.2       |  83.8 | 31.50
Other   |            | 18.71      |            |       |  9.63

Nlocal:         250.25 ave         300 max         199 min
Histogram: 2 0 0 0 0 0 0 0 0 2
Nghost:            4.5 ave           5 max           4 min
Histogram: 2 0 0 0 0 0 0 0 0 2
Neighs:          450.5 ave         600 max         297 min
Histogram: 2 0 0 0 0 0 0 0 0 2

Total # of neighbors = 1802
Ave neighs/atom = 1.8001998
Neighbor list builds = 184
Dangerous builds = 0
Generated 0 of 1 mixed pair_coeff terms from geometric mixing rule
Setting up Verlet run ...
  Unit style    : micro
  Current step  : 3000000
  Time step     : 1e-05
Per MPI rank memory allocation (min/avg/max) = 33.33 | 33.36 | 33.39 Mbytes
   Step           Lx             Ly             Lz           Press           Pxx            Pyy            Pzz           KinEng         PotEng          Temp          c_1[1]         c_1[2]         c_1[3]    
   3000000   1800           200            200            0.0016074154   0.0048222463   0             -2.2232093e-18  1.1023745e-24  0              2.661486e-19  -4.5            0              2.5975729    
   3100000   1800           200            200            0.006513653    0.0050951241   8.3007347e-31  0.014445835    0.00030878287  0              74.5501       -4.5001001     -2.0726259e-30  2.597575     
   3200000   1800           200            200            0.0065263931   0.0051000474  -5.5543833e-37  0.014479132    8.1865134e-05  0              19.764872     -4.500101       0              2.5975744    
   3300000   1800           200            200            0.0065206362   0.0050995217   8.7145225e-31  0.014462387    2.0855817e-05  0              5.0352639     -4.5001013     -1.036313e-30   2.5975747    
   3400000   1800           200            200            0.006523017    0.0051001532   8.8394933e-31  0.014468898    2.2119532e-06  0              0.53403653    -4.5001014      0              2.5975746    
   3500000   1800           200            200            0.0065220412   0.0050998727  -5.226858e-37   0.014466251    5.6091023e-08  0              0.013542174   -4.5001014      0              2.5975746    
   3600000   1800           200            200            0.0065224015   0.0050999     -5.5197694e-37  0.014467304    4.5418709e-09  0              0.0010965535  -4.5001014      0              2.5975746    
   3700000   1800           200            200            0.0065222727   0.005099874   -6.342747e-37   0.014466944    4.7069015e-09  0              0.0011363971  -4.5001014      0              2.5975746    
   3800000   1800           200            200            0.0065223227   0.0050998859   2.9486327e-37  0.014467082    8.9088989e-10  0              0.00021508942 -4.5001014      0              2.5975746    
   3900000   1800           200            200            0.0065223059   0.0050998808  -6.5128081e-37  0.014467037    6.6033908e-11  0              1.5942705e-05 -4.5001014      0              2.5975746    
   4000000   1800           200            200            0.0065223064   0.0050998678  -6.833721e-37   0.014467051    3.0720882e-12  0              7.4170071e-07 -4.5001014     -7.9064405e-36  2.5975746    
   4100000   1800           200            200            0.0065223044   0.0050998665  -7.2827858e-37  0.014467047    1.2771994e-12  0              3.0835694e-07 -4.5001014     -7.9064405e-36  2.5975746    
   4200000   1800           200            200            0.0065223049   0.005099867   -7.6601589e-37  0.014467048    3.5586603e-13  0              8.5917485e-08 -4.5001014     -7.9064405e-36  2.5975746    
   4300000   1800           200            200            0.0065223049   0.0050998672  -7.9512587e-37  0.014467047    4.6431474e-14  0              1.1210048e-08 -4.5001014     -7.9064405e-36  2.5975746    
   4400000   1800           200            200            0.0065223049   0.0050998672  -8.1715775e-37  0.014467047    3.1054596e-15  0              7.4975765e-10 -4.5001014     -7.9064405e-36  2.5975746    
   4500000   1800           200            200            0.0065223049   0.0050998672  -8.3375973e-37  0.014467047    2.8385076e-16  0              6.8530687e-11 -4.5001014     -7.9064405e-36  2.5975746    
   4600000   1800           200            200            0.0065223049   0.0050998672  -8.4625618e-37  0.014467047    9.8033685e-17  0              2.3668479e-11 -4.5001014     -7.9064405e-36  2.5975746    
   4700000   1800           200            200            0.0065223049   0.0050998672  -8.5565989e-37  0.014467047    4.7588413e-18  0              1.1489371e-12 -4.5001014     -7.9064405e-36  2.5975746    
   4800000   1800           200            200            0.0065223049   0.0050998672  -8.6273588e-37  0.014467047    2.3558082e-18  0              5.6876774e-13 -4.5001014     -7.9064405e-36  2.5975746    
   4900000   1800           200            200            0.0065223049   0.0050998672  -8.6806025e-37  0.014467047    2.8172858e-19  0              6.8018326e-14 -4.5001014     -7.9064405e-36  2.5975746    
   5000000   1800           200            200            0.0065223049   0.0050998672  -8.720666e-37   0.014467047    4.5627081e-20  0              1.1015842e-14 -4.5001014     -7.9064405e-36  2.5975746    
   5100000   1800           200            200            0.0065223049   0.0050998672  -8.7508118e-37  0.014467047    2.4922526e-21  0              6.0170979e-16 -4.5001014     -7.9064405e-36  2.5975746    
   5200000   1800           200            200            0.0065223049   0.0050998672  -8.7734951e-37  0.014467047    1.1902857e-21  0              2.8737318e-16 -4.5001014     -7.9064405e-36  2.5975746    
   5300000   1800           200            200            0.0065223049   0.0050998672  -8.7905633e-37  0.014467047    5.0639137e-23  0              1.2225913e-17 -4.5001014     -7.9064405e-36  2.5975746    
   5400000   1800           200            200            0.0065223049   0.0050998672  -8.8034062e-37  0.014467047    1.0354824e-23  0              2.4999869e-18 -4.5001014     -7.9064405e-36  2.5975746    
   5500000   1800           200            200            0.0065223049   0.0050998672  -8.81307e-37    0.014467047    3.0897285e-24  0              7.4595966e-19 -4.5001014     -7.9064405e-36  2.5975746    
   5600000   1800           200            200            0.0065223049   0.0050998672  -8.8203415e-37  0.014467047    5.161885e-27   0              1.2462448e-21 -4.5001014     -7.9064405e-36  2.5975746    
   5700000   1800           200            200            0.0065223049   0.0050998672  -8.8258129e-37  0.014467047    4.9905449e-26  0              1.2048778e-20 -4.5001014     -7.9064405e-36  2.5975746    
   5800000   1800           200            200            0.0065223049   0.0050998672  -8.8299299e-37  0.014467047    4.3819404e-27  0              1.0579411e-21 -4.5001014     -7.9064405e-36  2.5975746    
   5900000   1800           200            200            0.0065223049   0.0050998672  -8.8330278e-37  0.014467047    3.0604416e-28  0              7.3888886e-23 -4.5001014     -7.9064405e-36  2.5975746    
[...]
   6400000   13500          200            200            0.0065111452   0.0050976553  -4.3208276e-40  0.01443578     3.8782926e-31  0              1.2484591e-26 -4.5001014     -3.3014856e-38  2.5975746    
   6500000   13500          200            200            0.0065111452   0.0050976553  -4.4502162e-40  0.01443578     3.185208e-31   0              1.0253486e-26 -4.5001014     -3.3014856e-38  2.5975746    
   6600000   13500          200            200            0.0065111452   0.0050976553  -4.579041e-40   0.01443578     1.9498517e-31  0              6.2767574e-27 -4.5001014     -3.3014856e-38  2.5975746    
   6700000   13500          200            200            0.0065111452   0.0050976553  -4.7073045e-40  0.01443578     3.9989373e-31  0              1.2872958e-26 -4.5001014     -3.3014856e-38  2.5975746    
   6800000   13500          200            200            0.0065111452   0.0050976553  -4.8350091e-40  0.01443578     1.3857512e-31  0              4.4608643e-27 -4.5001014     -3.3014856e-38  2.5975746    
   6900000   13500          200            200            0.0065111452   0.0050976553  -4.9621573e-40  0.01443578     2.2659896e-31  0              7.2944353e-27 -4.5001014     -3.3014856e-38  2.5975746    
   7000000   13500          200            200            0.0065111452   0.0050976553  -5.0887514e-40  0.01443578     9.2649057e-32  0              2.9824609e-27 -4.5001014     -3.3014856e-38  2.5975746    
   7100000   13500          200            200            0.0065111452   0.0050976553  -5.214794e-40   0.01443578     3.5873364e-32  0              1.1547976e-27 -4.5001014     -3.3014856e-38  2.5975746    
   7200000   13500          200            200            0.0065111452   0.0050976553  -5.3402873e-40  0.01443578     1.0754676e-31  0              3.4620322e-27 -4.5001014     -3.3014856e-38  2.5975746    
   7300000   13500          200            200            0.0065111452   0.0050976553  -5.4652339e-40  0.01443578     1.8376287e-31  0              5.9155008e-27 -4.5001014     -3.3014856e-38  2.5975746    
   7400000   13500          200            200            0.0065111452   0.0050976553  -5.589636e-40   0.01443578     1.092485e-31   0              3.5168128e-27 -4.5001014     -3.3014856e-38  2.5975746    
   7500000   13500          200            200            0.0065111452   0.0050976553  -5.7134961e-40  0.01443578     1.8787156e-32  0              6.0477634e-28 -4.5001014     -3.3014856e-38  2.5975746    
   7600000   13500          200            200            0.0065111452   0.0050976553  -5.8368164e-40  0.01443578     8.7630361e-32  0              2.8209043e-27 -4.5001014     -3.3014856e-38  2.5975746    
   7700000   13500          200            200            0.0065111452   0.0050976553  -5.9595995e-40  0.01443578     1.0725521e-31  0              3.4526467e-27 -4.5001014     -3.3014856e-38  2.5975746    
   7800000   13500          200            200            0.0065111452   0.0050976553  -6.0818475e-40  0.01443578     5.1321914e-32  0              1.652101e-27  -4.5001014     -3.3014856e-38  2.5975746    
   7900000   13500          200            200            0.0065111452   0.0050976553  -6.2035629e-40  0.01443578     1.2647365e-31  0              4.0713065e-27 -4.5001014     -3.3014856e-38  2.5975746    
   8000000   13500          200            200            0.0065111452   0.0050976553  -6.3247479e-40  0.01443578     1.155396e-31   0              3.7193293e-27 -4.5001014     -3.3014856e-38  2.5975746    
Loop time of 2026.05 on 4 procs for 5000000 steps with 7501 atoms

Performance: 2132226.806 ns/day, 0.000 hours/ns, 2467.855 timesteps/s
100.0% CPU use with 4 MPI tasks x 1 OpenMP threads

MPI task timing breakdown:
Section |  min time  |  avg time  |  max time  |%varavg| %total
---------------------------------------------------------------
Pair    | 471.25     | 791.93     | 1118.7     |1129.3 | 39.09
Neigh   | 0          | 0          | 0          |   0.0 |  0.00
Comm    | 43.768     | 366.27     | 690.84     |1640.3 | 18.08
Output  | 1.1166     | 1.1175     | 1.1183     |   0.1 |  0.06
Modify  | 611.82     | 701.54     | 783.68     | 309.7 | 34.63
Other   |            | 165.2      |            |       |  8.15

Nlocal:        1875.25 ave        2250 max        1499 min
Histogram: 2 0 0 0 0 0 0 0 0 2
Nghost:            4.5 ave           5 max           4 min
Histogram: 2 0 0 0 0 0 0 0 0 2
Neighs:         3375.5 ave        4500 max        2247 min
Histogram: 2 0 0 0 0 0 0 0 0 2

Total # of neighbors = 13502
Ave neighs/atom = 1.8000267
Neighbor list builds = 0
Dangerous builds = 0
  using 1 OpenMP thread(s) per MPI task
Lattice spacing in x,y,z = 3 3 3
Created orthogonal box = (-6975 -100 -100) to (6975 100 100)
  4 by 1 by 1 MPI processor grid
Created 4650 atoms
  using lattice units in orthogonal box = (-6975 -100 -100) to (6975 100 100)
  create_atoms CPU = 0.001 seconds
Lattice spacing in x,y,z = 3 3 3
Created 3101 atoms
  using lattice units in orthogonal box = (-6975 -100 -100) to (6975 100 100)
  create_atoms CPU = 0.001 seconds
Setting atom values ...
  4650 settings made for diameter
Setting atom values ...
  4650 settings made for mass
Setting atom values ...
  3101 settings made for diameter
Setting atom values ...
  3101 settings made for mass
4650 atoms in group substrate
3101 atoms in group slider1
7751 atoms in group substrate_slider
Displacing atoms ...
  1 rigid bodies with 3101 atoms
Generated 0 of 1 mixed pair_coeff terms from geometric mixing rule
Neighbor list info ...
  update every 1 steps, delay 0 steps, check yes
  max neighbors/atom: 2000, page size: 100000
  master list distance cutoff = 3.1
  ghost atom cutoff = 3.1
  binsize = 1.55, bins = 9000 130 130
  1 neighbor lists, perpetual/occasional/extra = 1 0 0
  (1) pair granular, perpetual
      attributes: half, newton on, size, history
      pair build: half/size/bin/newton
      stencil: half/bin/3d
      bin: standard
Setting up Verlet run ...
  Unit style    : micro
  Current step  : 0
  Time step     : 1e-05
Per MPI rank memory allocation (min/avg/max) = 169.8 | 169.8 | 169.8 Mbytes
   Step           Lx             Ly             Lz           Press           Pxx            Pyy            Pzz           KinEng         PotEng          Temp          c_1[1]         c_1[2]         c_1[3]    
         0   13950          200            200            0              0              0              0              0              0              0             -4.5            0              6            
    100000   13950          200            200            0.0036069184  -4.1213699e-18  0              0.010820755    1358718.5      0              4.2327518e+10 -4.5            0              3.2431737    
    200000   13950          200            200            0.00070465612 -1.1259724e-17  0              0.0021139684   135819.24      0              4.231113e+09  -4.5            0              2.8052328    
    300000   13950          200            200           -5.5666805e-05 -2.1909534e-17  0             -0.00016700041  1713.4097      0              53377048      -4.5            0              2.6525775    
    400000   13950          200            200            0.081531391    0.060310569    0              0.1842836      152.26895      0              4743562.9     -4.5            0              2.5953336    
    500000   13950          200            200            1.646785e-05  -5.4500592e-17  0              4.9403549e-05  144.41576      0              4498916.2     -4.5            0              2.5993982    
    600000   13950          200            200            0.0099671579   0.0073472165   0              0.022554257    2.3186543      0              72231.946     -4.5            0              2.5974012    
    700000   13950          200            200            0.0064068792   0.0048113303   0              0.014409307    0.093711244    0              2919.3423     -4.5            0              2.5975734    
    800000   13950          200            200            0.0064366436   0.004815214    0              0.014494717    0.0049840208   0              155.26486     -4.5            0              2.5975718    
    900000   13950          200            200            0.0064065224   0.00481124     0              0.014408327    2.4534431e-06  0              0.07643096    -4.5            0              2.5975734    
   1000000   13950          200            200            0.0064183955   0.0048128153   0              0.014442371    9.1485309e-05  0              2.8499988     -4.5            0              2.5975728    
   1100000   13950          200            200            0.006416004    0.0048124966   0              0.014435515    2.2486415e-05  0              0.70050871    -4.5            0              2.5975729    
   1200000   13950          200            200            0.0064157651   0.0048124658   0              0.014434829    1.5895779e-06  0              0.049519374   -4.5            0              2.5975729    
   1300000   13950          200            200            0.0064161851   0.0048125213   0              0.014436034    3.8916881e-09  0              0.00012123593 -4.5            0              2.5975729    
   1400000   13950          200            200            0.006415998    0.0048124965   0              0.014435497    1.5432789e-08  0              0.00048077043 -4.5            0              2.5975729    
   1500000   13950          200            200            0.0064160424   0.0048125024   0              0.014435625    5.1633378e-09  0              0.00016085103 -4.5            0              2.5975729    
   1600000   13950          200            200            0.0064160427   0.0048125024   0              0.014435626    4.6985528e-10  0              1.4637181e-05 -4.5            0              2.5975729    
   1700000   13950          200            200            0.006416037    0.0048125017   0              0.014435609    5.1516738e-12  0              1.6048767e-07 -4.5            0              2.5975729    
   1800000   13950          200            200            0.0064160399   0.0048125021   0              0.014435618    2.2953452e-12  0              7.1505809e-08 -4.5            0              2.5975729    
   1900000   13950          200            200            0.0064160391   0.004812502    0              0.014435615    1.1352286e-12  0              3.5365244e-08 -4.5            0              2.5975729    
   2000000   13950          200            200            0.0064160392   0.004812502    0              0.014435616    1.3084366e-13  0              4.076111e-09  -4.5            0              2.5975729    
   2100000   13950          200            200            0.0064160393   0.004812502    0              0.014435616    3.1829807e-15  0              9.9157902e-11 -4.5            0              2.5975729    
   2200000   13950          200            200            0.0064160392   0.004812502    0              0.014435616    1.9741624e-16  0              6.1500154e-12 -4.5            0              2.5975729    
   2300000   13950          200            200            0.0064160392   0.004812502    0              0.014435616    2.9349525e-16  0              9.1431194e-12 -4.5            0              2.5975729    
   2400000   13950          200            200            0.0064160392   0.004812502    0              0.014435616    2.9045735e-18  0              9.0484813e-14 -4.5            0              2.5975729    
   2500000   13950          200            200            0.0064160392   0.004812502    0              0.014435616    9.3224024e-18  0              2.9041642e-13 -4.5            0              2.5975729    
   2600000   13950          200            200            0.0064160392   0.004812502    0              0.014435616    5.3407331e-19  0              1.6637735e-14 -4.5            0              2.5975729    
   2700000   13950          200            200            0.0064160392   0.004812502    0              0.014435616    2.9171731e-20  0              9.0877321e-16 -4.5            0              2.5975729    
   2800000   13950          200            200            0.0064160392   0.004812502    0              0.014435616    1.9400218e-20  0              6.0436586e-16 -4.5            0              2.5975729    
   2900000   13950          200            200            0.0064160392   0.004812502    0              0.014435616    3.4063719e-22  0              1.061171e-17  -4.5            0              2.5975729    
   3000000   13950          200            200            0.0064160392   0.004812502    0              0.014435616    1.4484354e-22  0              4.5122425e-18 -4.5            0              2.5975729    
Loop time of 1154.18 on 4 procs for 3000000 steps with 7751 atoms

Performance: 2245742.058 ns/day, 0.000 hours/ns, 2599.238 timesteps/s
100.0% CPU use with 4 MPI tasks x 1 OpenMP threads

MPI task timing breakdown:
Section |  min time  |  avg time  |  max time  |%varavg| %total
---------------------------------------------------------------
Pair    | 272.54     | 450.31     | 629.86     | 817.3 | 39.02
Neigh   | 8.6655     | 8.6962     | 8.7249     |   0.7 |  0.75
Comm    | 41.075     | 217.77     | 398.58     |1158.5 | 18.87
Output  | 0.45992    | 0.46042    | 0.46093    |   0.1 |  0.04
Modify  | 318.15     | 374.42     | 425.83     | 261.7 | 32.44
Other   |            | 102.5      |            |       |  8.88

Nlocal:        1937.75 ave        2325 max        1549 min
Histogram: 2 0 0 0 0 0 0 0 0 2
Nghost:            4.5 ave           5 max           4 min
Histogram: 2 0 0 0 0 0 0 0 0 2
Neighs:           3488 ave        4651 max        2321 min
Histogram: 2 0 0 0 0 0 0 0 0 2

Total # of neighbors = 13952
Ave neighs/atom = 1.8000258
Neighbor list builds = 184
Dangerous builds = 0
Generated 0 of 1 mixed pair_coeff terms from geometric mixing rule
Setting up Verlet run ...
  Unit style    : micro
  Current step  : 3000000
  Time step     : 1e-05
Per MPI rank memory allocation (min/avg/max) = 169.8 | 169.9 | 169.9 Mbytes
   Step           Lx             Ly             Lz           Press           Pxx            Pyy            Pzz           KinEng         PotEng          Temp          c_1[1]         c_1[2]         c_1[3]    
   3000000   13950          200            200            0.0016041673   0.004812502    0              4.143384e-16   1.4484354e-22  0              4.5122425e-18 -4.5            0              2.5975729    
   3100000   13950          200            200            0.0065021871   0.0050913302  -7.7095733e-40  0.014415231    0.0022335504   0              69.580744     -4.5001001      5.1120326e-37  2.597575     
   3200000   13950          200            200            0.0065135354   0.0050936902  -6.5808837e-41  0.014446916    0.00053196865  0              16.572169     -4.500101       0              2.5975744    
   3300000   13950          200            200            0.006511738    0.0051037194  -1.3902385e-40  0.014431495    0.00014138586  0              4.4045272     -4.5001013      0              2.5975747    
   3400000   13950          200            200            0.0065139288   0.0051045646  -5.0796133e-41  0.014437222    1.6265502e-05  0              0.50671154    -4.5001014      3.1950204e-38  2.5975746    
   3500000   13950          200            200            0.0065129063   0.0051037556  -1.8696675e-41  0.014434963    5.6228624e-07  0              0.017516639   -4.5001014      0              2.5975746    
   3600000   13950          200            200            0.0065133237   0.0051041444  -5.2658875e-43  0.014435827    1.0374519e-08  0              0.00032319252 -4.5001014     -1.5975102e-38  2.5975746    
   3700000   13950          200            200            0.0065131044   0.0051037687   4.7533102e-29  0.014435545    2.3824169e-08  0              0.00074218313 -4.5001014      0              2.5975746    
   3800000   13950          200            200            0.0065132768   0.0051041799   3.1376241e-41  0.01443565     5.4054881e-09  0              0.00016839463 -4.5001014      1.5975102e-38  2.5975746    
   3900000   13950          200            200            0.006513087    0.0051036433   4.7509131e-29  0.014435618    4.7939779e-10  0              1.4934454e-05 -4.5001014      0              2.5975746    
   4000000   13950          200            200            0.0065131282   0.0051037566   4.7487838e-29  0.014435628    1.6988202e-11  0              5.2922546e-07 -4.5001014      0              2.5975746    
   4100000   13950          200            200            0.0065131289   0.0051037622   4.7465193e-29  0.014435625    4.1009062e-12  0              1.277536e-07  -4.5001014      0              2.5975746    
   4200000   13950          200            200            0.0065131247   0.0051037489   4.7442431e-29  0.014435625    1.543828e-12   0              4.8094148e-08 -4.5001014      0              2.5975746    
   4300000   13950          200            200            0.006513124    0.0051037469   4.7419728e-29  0.014435625    2.2767952e-13  0              7.0927929e-09 -4.5001014      0              2.5975746    
   4400000   13950          200            200            0.0065131245   0.0051037484   4.739711e-29   0.014435625    1.4928793e-14  0              4.6506968e-10 -4.5001014      0              2.5975746    
   4500000   13950          200            200            0.0065131246   0.0051037487   4.7374584e-29  0.014435625    2.4963224e-16  0              7.7766759e-12 -4.5001014      0              2.5975746    
   4600000   13950          200            200            0.0065131246   0.0051037486   4.7352151e-29  0.014435625    3.9524073e-16  0              1.2312749e-11 -4.5001014      0              2.5975746    
   4700000   13950          200            200            0.0065131246   0.0051037485   4.7329809e-29  0.014435625    3.490348e-17   0              1.0873317e-12 -4.5001014      0              2.5975746    
   4800000   13950          200            200            0.0065131246   0.0051037486   4.7307558e-29  0.014435625    9.0278083e-19  0              2.8123907e-14 -4.5001014      0              2.5975746    
   4900000   13950          200            200            0.0065131246   0.0051037486   4.7285399e-29  0.014435625    1.0409653e-18  0              3.2428702e-14 -4.5001014      0              2.5975746    
   5000000   13950          200            200            0.0065131246   0.0051037486   4.7263329e-29  0.014435625    6.0611401e-20  0              1.8881985e-15 -4.5001014      0              2.5975746    
   5100000   13950          200            200            0.0065131246   0.0051037486   4.724135e-29   0.014435625    2.7637405e-21  0              8.6097507e-17 -4.5001014      0              2.5975746    
   5200000   13950          200            200            0.0065131246   0.0051037486   4.7219461e-29  0.014435625    2.3687194e-21  0              7.37916e-17   -4.5001014      0              2.5975746    
   5300000   13950          200            200            0.0065131246   0.0051037486   4.7197661e-29  0.014435625    1.023399e-22   0              3.1881468e-18 -4.5001014      0              2.5975746    
   5400000   13950          200            200            0.0065131246   0.0051037486   4.717595e-29   0.014435625    9.8639036e-24  0              3.0728555e-19 -4.5001014      0              2.5975746    
   5500000   13950          200            200            0.0065131246   0.0051037486   4.7154328e-29  0.014435625    5.1208237e-24  0              1.5952661e-19 -4.5001014      0              2.5975746    
   5600000   13950          200            200            0.0065131246   0.0051037486   4.7132794e-29  0.014435625    2.3687203e-25  0              7.3791631e-21 -4.5001014      0              2.5975746    
   5700000   13950      