ITEM: TIMESTEP
3900000
ITEM: NUMBER OF ATOMS
2501
ITEM: BOX BOUNDS pp pp pp
-2.2500000000000000e+03 2.2500000000000000e+03
-1.0000000000000000e+02 1.0000000000000000e+02
-1.0000000000000000e+02 1.0000000000000000e+02
ITEM: ATOMS id type diameter mass xu yu zu fx fy fz
1 1 3 31.1018 -2250 0 0 0 0 0
2 1 3 31.1018 -2247 0 0 0 0 0
3 1 3 31.1018 -2244 0 0 0 0 0
4 1 3 31.1018 -2241 0 0 0 0 0
5 1 3 31.1018 -2238 0 0 0 0 0
6 1 3 31.1018 -2235 0 0 0 0 0
7 1 3 31.1018 -2232 0 0 0 0 0
8 1 3 31.1018 -2229 0 0 0 0 0
9 1 3 31.1018 -2226 0 0 0 0 0
10 1 3 31.1018 -2223 0 0 0 0 0
11 1 3 31.1018 -2220 0 0 0 0 0
12 1 3 31.1018 -2217 0 0 0 0 0
13 1 3 31.1018 -2214 0 0 0 0 0
14 1 3 31.1018 -2211 0 0 0 0 0
15 1 3 31.1018 -2208 0 0 0 0 0
16 1 3 31.1018 -2205 0 0 0 0 0
17 1 3 31.1018 -2202 0 0 0 0 0
18 1 3 31.1018 -2199 0 0 0 0 0
19 1 3 31.1018 -2196 0 0 0 0 0
20 1 3 31.1018 -2193 0 0 0 0 0
21 1 3 31.1018 -2190 0 0 0 0 0
22 1 3 31.1018 -2187 0 0 0 0 0
23 1 3 31.1018 -2184 0 0 0 0 0
24 1 3 31.1018 -2181 0 0 0 0 0
25 1 3 31.1018 -2178 0 0 0 0 0
26 1 3 31.1018 -2175 0 0 0 0 0
27 1 3 31.1018 -2172 0 0 0 0 0
28 1 3 31.1018 -2169 0 0 0 0 0
29 1 3 31.1018 -2166 0 0 0 0 0
30 1 3 31.1018 -2163 0 0 0 0 0
31 1 3 31.1018 -2160 0 0 0 0 0
32 1 3 31.1018 -2157 0 0 0 0 0
33 1 3 31.1018 -2154 0 0 0 0 0
34 1 3 31.1018 -2151 0 0 0 0 0
35 1 3 31.1018 -2148 0 0 0 0 0
36 1 3 31.1018 -2145 0 0 0 0 0
37 1 3 31.1018 -2142 0 0 0 0 0
38 1 3 31.1018 -2139 0 0 0 0 0
39 1 3 31.1018 -2136 0 0 0 0 0
40 1 3 31.1018 -2133 0 0 0 0 0
41 1 3 31.1018 -2130 0 0 0 0 0
42 1 3 31.1018 -2127 0 0 0 0 0
43 1 3 31.1018 -2124 0 0 0 0 0
44 1 3 31.1018 -2121 0 0 0 0 0
45 1 3 31.1018 -2118 0 0 0 0 0
46 1 3 31.1018 -2115 0 0 0 0 0
47 1 3 31.1018 -2112 0 0 0 0 0
48 1 3 31.1018 -2109 0 0 0 0 0
49 1 3 31.1018 -2106 0 0 0 0 0
50 1 3 31.1018 -2103 0 0 0 0 0
51 1 3 31.1018 -2100 0 0 0 0 0
52 1 3 31.1018 -2097 0 0 0 0 0
53 1 3 31.1018 -2094 0 0 0 0 0
54 1 3 31.1018 -2091 0 0 0 0 0
55 1 3 31.1018 -2088 0 0 0 0 0
56 1 3 31.1018 -2085 0 0 0 0 0
57 1 3 31.1018 -2082 0 0 0 0 0
58 1 3 31.1018 -2079 0 0 0 0 0
59 1 3 31.1018 -2076 0 0 0 0 0
60 1 3 31.1018 -2073 0 0 0 0 0
61 1 3 31.1018 -2070 0 0 0 0 0
62 1 3 31.1018 -2067 0 0 0 0 0
63 1 3 31.1018 -2064 0 0 0 0 0
64 1 3 31.1018 -2061 0 0 0 0 0
65 1 3 31.1018 -2058 0 0 0 0 0
66 1 3 31.1018 -2055 0 0 0 0 0
67 1 3 31.1018 -2052 0 0 0 0 0
68 1 3 31.1018 -2049 0 0 0 0 0
69 1 3 31.1018 -2046 0 0 0 0 0
70 1 3 31.1018 -2043 0 0 0 0 0
71 1 3 31.1018 -2040 0 0 0 0 0
72 1 3 31.1018 -2037 0 0 0 0 0
73 1 3 31.1018 -2034 0 0 0 0 0
74 1 3 31.1018 -2031 0 0 0 0 0
75 1 3 31.1018 -2028 0 0 0 0 0
76 1 3 31.1018 -2025 0 0 0 0 0
77 1 3 31.1018 -2022 0 0 0 0 0
78 1 3 31.1018 -2019 0 0 0 0 0
79 1 3 31.1018 -2016 0 0 0 0 0
80 1 3 31.1018 -2013 0 0 0 0 0
81 1 3 31.1018 -2010 0 0 0 0 0
82 1 3 31.1018 -2007 0 0 0 0 0
83 1 3 31.1018 -2004 0 0 0 0 0
84 1 3 31.1018 -2001 0 0 0 0 0
85 1 3 31.1018 -1998 0 0 0 0 0
86 1 3 31.1018 -1995 0 0 0 0 0
87 1 3 31.1018 -1992 0 0 0 0 0
88 1 3 31.1018 -1989 0 0 0 0 0
89 1 3 31.1018 -1986 0 0 0 0 0
90 1 3 31.1018 -1983 0 0 0 0 0
91 1 3 31.1018 -1980 0 0 0 0 0
92 1 3 31.1018 -1977 0 0 0 0 0
93 1 3 31.1018 -1974 0 0 0 0 0
94 1 3 31.1018 -1971 0 0 0 0 0
95 1 3 31.1018 -1968 0 0 0 0 0
96 1 3 31.1018 -1965 0 0 0 0 0
97 1 3 31.1018 -1962 0 0 0 0 0
98 1 3 31.1018 -1959 0 0 0 0 0
99 1 3 31.1018 -1956 0 0 0 0 0
100 1 3 31.1018 -1953 0 0 0 0 0
101 1 3 31.1018 -1950 0 0 0 0 0
102 1 3 31.1018 -1947 0 0 0 0 0
103 1 3 31.1018 -1944 0 0 0 0 0
104 1 3 31.1018 -1941 0 0 0 0 0
105 1 3 31.1018 -1938 0 0 0 0 0
106 1 3 31.1018 -1935 0 0 0 0 0
107 1 3 31.1018 -1932 0 0 0 0 0
108 1 3 31.1018 -1929 0 0 0 0 0
109 1 3 31.1018 -1926 0 0 0 0 0
110 1 3 31.1018 -1923 0 0 0 0 0
111 1 3 31.1018 -1920 0 0 0 0 0
112 1 3 31.1018 -1917 0 0 0 0 0
113 1 3 31.1018 -1914 0 0 0 0 0
114 1 3 31.1018 -1911 0 0 0 0 0
115 1 3 31.1018 -1908 0 0 0 0 0
116 1 3 31.1018 -1905 0 0 0 0 0
117 1 3 31.1018 -1902 0 0 0 0 0
118 1 3 31.1018 -1899 0 0 0 0 0
119 1 3 31.1018 -1896 0 0 0 0 0
120 1 3 31.1018 -1893 0 0 0 0 0
121 1 3 31.1018 -1890 0 0 0 0 0
122 1 3 31.1018 -1887 0 0 0 0 0
123 1 3 31.1018 -1884 0 0 0 0 0
124 1 3 31.1018 -1881 0 0 0 0 0
125 1 3 31.1018 -1878 0 0 0 0 0
126 1 3 31.1018 -1875 0 0 0 0 0
127 1 3 31.1018 -1872 0 0 0 0 0
128 1 3 31.1018 -1869 0 0 0 0 0
129 1 3 31.1018 -1866 0 0 0 0 0
130 1 3 31.1018 -1863 0 0 0 0 0
131 1 3 31.1018 -1860 0 0 0 0 0
132 1 3 31.1018 -1857 0 0 0 0 0
133 1 3 31.1018 -1854 0 0 0 0 0
134 1 3 31.1018 -1851 0 0 0 0 0
135 1 3 31.1018 -1848 0 0 0 0 0
136 1 3 31.1018 -1845 0 0 0 0 0
137 1 3 31.1018 -1842 0 0 0 0 0
138 1 3 31.1018 -1839 0 0 0 0 0
139 1 3 31.1018 -1836 0 0 0 0 0
140 1 3 31.1018 -1833 0 0 0 0 0
141 1 3 31.1018 -1830 0 0 0 0 0
142 1 3 31.1018 -1827 0 0 0 0 0
143 1 3 31.1018 -1824 0 0 0 0 0
144 1 3 31.1018 -1821 0 0 0 0 0
145 1 3 31.1018 -1818 0 0 0 0 0
146 1 3 31.1018 -1815 0 0 0 0 0
147 1 3 31.1018 -1812 0 0 0 0 0
148 1 3 31.1018 -1809 0 0 0 0 0
149 1 3 31.1018 -1806 0 0 0 0 0
150 1 3 31.1018 -1803 0 0 0 0 0
151 1 3 31.1018 -1800 0 0 0 0 0
152 1 3 31.1018 -1797 0 0 0 0 0
153 1 3 31.1018 -1794 0 0 0 0 0
154 1 3 31.1018 -1791 0 0 0 0 0
155 1 3 31.1018 -1788 0 0 0 0 0
156 1 3 31.1018 -1785 0 0 0 0 0
157 1 3 31.1018 -1782 0 0 0 0 0
158 1 3 31.1018 -1779 0 0 0 0 0
159 1 3 31.1018 -1776 0 0 0 0 0
160 1 3 31.1018 -1773 0 0 0 0 0
161 1 3 31.1018 -1770 0 0 0 0 0
162 1 3 31.1018 -1767 0 0 0 0 0
163 1 3 31.1018 -1764 0 0 0 0 0
164 1 3 31.1018 -1761 0 0 0 0 0
165 1 3 31.1018 -1758 0 0 0 0 0
166 1 3 31.1018 -1755 0 0 0 0 0
167 1 3 31.1018 -1752 0 0 0 0 0
168 1 3 31.1018 -1749 0 0 0 0 0
169 1 3 31.1018 -1746 0 0 0 0 0
170 1 3 31.1018 -1743 0 0 0 0 0
171 1 3 31.1018 -1740 0 0 0 0 0
172 1 3 31.1018 -1737 0 0 0 0 0
173 1 3 31.1018 -1734 0 0 0 0 0
174 1 3 31.1018 -1731 0 0 0 0 0
175 1 3 31.1018 -1728 0 0 0 0 0
176 1 3 31.1018 -1725 0 0 0 0 0
177 1 3 31.1018 -1722 0 0 0 0 0
178 1 3 31.1018 -1719 0 0 0 0 0
179 1 3 31.1018 -1716 0 0 0 0 0
180 1 3 31.1018 -1713 0 0 0 0 0
181 1 3 31.1018 -1710 0 0 0 0 0
182 1 3 31.1018 -1707 0 0 0 0 0
183 1 3 31.1018 -1704 0 0 0 0 0
184 1 3 31.1018 -1701 0 0 0 0 0
185 1 3 31.1018 -1698 0 0 0 0 0
186 1 3 31.1018 -1695 0 0 0 0 0
187 1 3 31.1018 -1692 0 0 0 0 0
188 1 3 31.1018 -1689 0 0 0 0 0
189 1 3 31.1018 -1686 0 0 0 0 0
190 1 3 31.1018 -1683 0 0 0 0 0
191 1 3 31.1018 -1680 0 0 0 0 0
192 1 3 31.1018 -1677 0 0 0 0 0
193 1 3 31.1018 -1674 0 0 0 0 0
194 1 3 31.1018 -1671 0 0 0 0 0
195 1 3 31.1018 -1668 0 0 0 0 0
196 1 3 31.1018 -1665 0 0 0 0 0
197 1 3 31.1018 -1662 0 0 0 0 0
198 1 3 31.1018 -1659 0 0 0 0 0
199 1 3 31.1018 -1656 0 0 0 0 0
200 1 3 31.1018 -1653 0 0 0 0 0
201 1 3 31.1018 -1650 0 0 0 0 0
202 1 3 31.1018 -1647 0 0 0 0 0
203 1 3 31.1018 -1644 0 0 0 0 0
204 1 3 31.1018 -1641 0 0 0 0 0
205 1 3 31.1018 -1638 0 0 0 0 0
206 1 3 31.1018 -1635 0 0 0 0 0
207 1 3 31.1018 -1632 0 0 0 0 0
208 1 3 31.1018 -1629 0 0 0 0 0
209 1 3 31.1018 -1626 0 0 0 0 0
210 1 3 31.1018 -1623 0 0 0 0 0
211 1 3 31.1018 -1620 0 0 0 0 0
212 1 3 31.1018 -1617 0 0 0 0 0
213 1 3 31.1018 -1614 0 0 0 0 0
214 1 3 31.1018 -1611 0 0 0 0 0
215 1 3 31.1018 -1608 0 0 0 0 0
216 1 3 31.1018 -1605 0 0 0 0 0
217 1 3 31.1018 -1602 0 0 0 0 0
218 1 3 31.1018 -1599 0 0 0 0 0
219 1 3 31.1018 -1596 0 0 0 0 0
220 1 3 31.1018 -1593 0 0 0 0 0
221 1 3 31.1018 -1590 0 0 0 0 0
222 1 3 31.1018 -1587 0 0 0 0 0
223 1 3 31.1018 -1584 0 0 0 0 0
224 1 3 31.1018 -1581 0 0 0 0 0
225 1 3 31.1018 -1578 0 0 0 0 0
226 1 3 31.1018 -1575 0 0 0 0 0
227 1 3 31.1018 -1572 0 0 0 0 0
228 1 3 31.1018 -1569 0 0 0 0 0
229 1 3 31.1018 -1566 0 0 0 0 0
230 1 3 31.1018 -1563 0 0 0 0 0
231 1 3 31.1018 -1560 0 0 0 0 0
232 1 3 31.1018 -1557 0 0 0 0 0
233 1 3 31.1018 -1554 0 0 0 0 0
234 1 3 31.1018 -1551 0 0 0 0 0
235 1 3 31.1018 -1548 0 0 0 0 0
236 1 3 31.1018 -1545 0 0 0 0 0
237 1 3 31.1018 -1542 0 0 0 0 0
238 1 3 31.1018 -1539 0 0 0 0 0
239 1 3 31.1018 -1536 0 0 0 0 0
240 1 3 31.1018 -1533 0 0 0 0 0
241 1 3 31.1018 -1530 0 0 0 0 0
242 1 3 31.1018 -1527 0 0 0 0 0
243 1 3 31.1018 -1524 0 0 0 0 0
244 1 3 31.1018 -1521 0 0 0 0 0
245 1 3 31.1018 -1518 0 0 0 0 0
246 1 3 31.1018 -1515 0 0 0 0 0
247 1 3 31.1018 -1512 0 0 0 0 0
248 1 3 31.1018 -1509 0 0 0 0 0
249 1 3 31.1018 -1506 0 0 0 0 0
250 1 3 31.1018 -1503 0 0 0 0 0
251 1 3 31.1018 -1500 0 0 0 0 0
252 1 3 31.1018 -1497 0 0 0 0 0
253 1 3 31.1018 -1494 0 0 0 0 0
254 1 3 31.1018 -1491 0 0 0 0 0
255 1 3 31.1018 -1488 0 0 0 0 0
256 1 3 31.1018 -1485 0 0 0 0 0
257 1 3 31.1018 -1482 0 0 0 0 0
258 1 3 31.1018 -1479 0 0 0 0 0
259 1 3 31.1018 -1476 0 0 0 0 0
260 1 3 31.1018 -1473 0 0 0 0 0
261 1 3 31.1018 -1470 0 0 0 0 0
262 1 3 31.1018 -1467 0 0 0 0 0
263 1 3 31.1018 -1464 0 0 0 0 0
264 1 3 31.1018 -1461 0 0 0 0 0
265 1 3 31.1018 -1458 0 0 0 0 0
266 1 3 31.1018 -1455 0 0 0 0 0
267 1 3 31.1018 -1452 0 0 0 0 0
268 1 3 31.1018 -1449 0 0 0 0 0
269 1 3 31.1018 -1446 0 0 0 0 0
270 1 3 31.1018 -1443 0 0 0 0 0
271 1 3 31.1018 -1440 0 0 0 0 0
272 1 3 31.1018 -1437 0 0 0 0 0
273 1 3 31.1018 -1434 0 0 0 0 0
274 1 3 31.1018 -1431 0 0 0 0 0
275 1 3 31.1018 -1428 0 0 0 0 0
276 1 3 31.1018 -1425 0 0 0 0 0
277 1 3 31.1018 -1422 0 0 0 0 0
278 1 3 31.1018 -1419 0 0 0 0 0
279 1 3 31.1018 -1416 0 0 0 0 0
280 1 3 31.1018 -1413 0 0 0 0 0
281 1 3 31.1018 -1410 0 0 0 0 0
282 1 3 31.1018 -1407 0 0 0 0 0
283 1 3 31.1018 -1404 0 0 0 0 0
284 1 3 31.1018 -1401 0 0 0 0 0
285 1 3 31.1018 -1398 0 0 0 0 0
286 1 3 31.1018 -1395 0 0 0 0 0
287 1 3 31.1018 -1392 0 0 0 0 0
288 1 3 31.1018 -1389 0 0 0 0 0
289 1 3 31.1018 -1386 0 0 0 0 0
290 1 3 31.1018 -1383 0 0 0 0 0
291 1 3 31.1018 -1380 0 0 0 0 0
292 1 3 31.1018 -1377 0 0 0 0 0
293 1 3 31.1018 -1374 0 0 0 0 0
294 1 3 31.1018 -1371 0 0 0 0 0
295 1 3 31.1018 -1368 0 0 0 0 0
296 1 3 31.1018 -1365 0 0 0 0 0
297 1 3 31.1018 -1362 0 0 0 0 0
298 1 3 31.1018 -1359 0 0 0 0 0
299 1 3 31.1018 -1356 0 0 0 0 0
300 1 3 31.1018 -1353 0 0 0 0 0
301 1 3 31.1018 -1350 0 0 0 0 0
302 1 3 31.1018 -1347 0 0 0 0 0
303 1 3 31.1018 -1344 0 0 0 0 0
304 1 3 31.1018 -1341 0 0 0 0 0
305 1 3 31.1018 -1338 0 0 0 0 0
306 1 3 31.1018 -1335 0 0 0 0 0
307 1 3 31.1018 -1332 0 0 0 0 0
308 1 3 31.1018 -1329 0 0 0 0 0
309 1 3 31.1018 -1326 0 0 0 0 0
310 1 3 31.1018 -1323 0 0 0 0 0
311 1 3 31.1018 -1320 0 0 0 0 0
312 1 3 31.1018 -1317 0 0 0 0 0
313 1 3 31.1018 -1314 0 0 0 0 0
314 1 3 31.1018 -1311 0 0 0 0 0
315 1 3 31.1018 -1308 0 0 0 0 0
316 1 3 31.1018 -1305 0 0 0 0 0
317 1 3 31.1018 -1302 0 0 0 0 0
318 1 3 31.1018 -1299 0 0 0 0 0
319 1 3 31.1018 -1296 0 0 0 0 0
320 1 3 31.1018 -1293 0 0 0 0 0
321 1 3 31.1018 -1290 0 0 0 0 0
322 1 3 31.1018 -1287 0 0 0 0 0
323 1 3 31.1018 -1284 0 0 0 0 0
324 1 3 31.1018 -1281 0 0 0 0 0
325 1 3 31.1018 -1278 0 0 0 0 0
326 1 3 31.1018 -1275 0 0 0 0 0
327 1 3 31.1018 -1272 0 0 0 0 0
328 1 3 31.1018 -1269 0 0 0 0 0
329 1 3 31.1018 -1266 0 0 0 0 0
330 1 3 31.1018 -1263 0 0 0 0 0
331 1 3 31.1018 -1260 0 0 0 0 0
332 1 3 31.1018 -1257 0 0 0 0 0
333 1 3 31.1018 -1254 0 0 0 0 0
334 1 3 31.1018 -1251 0 0 0 0 0
335 1 3 31.1018 -1248 0 0 0 0 0
336 1 3 31.1018 -1245 0 0 0 0 0
337 1 3 31.1018 -1242 0 0 0 0 0
338 1 3 31.1018 -1239 0 0 0 0 0
339 1 3 31.1018 -1236 0 0 0 0 0
340 1 3 31.1018 -1233 0 0 0 0 0
341 1 3 31.1018 -1230 0 0 0 0 0
342 1 3 31.1018 -1227 0 0 0 0 0
343 1 3 31.1018 -1224 0 0 0 0 0
344 1 3 31.1018 -1221 0 0 0 0 0
345 1 3 31.1018 -1218 0 0 0 0 0
346 1 3 31.1018 -1215 0 0 0 0 0
347 1 3 31.1018 -1212 0 0 0 0 0
348 1 3 31.1018 -1209 0 0 0 0 0
349 1 3 31.1018 -1206 0 0 0 0 0
350 1 3 31.1018 -1203 0 0 0 0 0
351 1 3 31.1018 -1200 0 0 0 0 0
352 1 3 31.1018 -1197 0 0 0 0 0
353 1 3 31.1018 -1194 0 0 0 0 0
354 1 3 31.1018 -1191 0 0 0 0 0
355 1 3 31.1018 -1188 0 0 0 0 0
356 1 3 31.1018 -1185 0 0 0 0 0
357 1 3 31.1018 -1182 0 0 0 0 0
358 1 3 31.1018 -1179 0 0 0 0 0
359 1 3 31.1018 -1176 0 0 0 0 0
360 1 3 31.1018 -1173 0 0 0 0 0
361 1 3 31.1018 -1170 0 0 0 0 0
362 1 3 31.1018 -1167 0 0 0 0 0
363 1 3 31.1018 -1164 0 0 0 0 0
364 1 3 31.1018 -1161 0 0 0 0 0
365 1 3 31.1018 -1158 0 0 0 0 0
366 1 3 31.1018 -1155 0 0 0 0 0
367 1 3 31.1018 -1152 0 0 0 0 0
368 1 3 31.1018 -1149 0 0 0 0 0
369 1 3 31.1018 -1146 0 0 0 0 0
370 1 3 31.1018 -1143 0 0 0 0 0
371 1 3 31.1018 -1140 0 0 0 0 0
372 1 3 31.1018 -1137 0 0 0 0 0
373 1 3 31.1018 -1134 0 0 0 0 0
374 1 3 31.1018 -1131 0 0 0 0 0
375 1 3 31.1018 -1128 0 0 0 0 0
1501 2 3 31.1018 -1504.50010136547826 1.13474e-20 2.59757461677498958 0.101162 0 -0.00261844
1502 2 3 31.1018 -1501.50010136547849 1.13247e-20 2.59757461675165091 0.100958 0 -0.0026146
1503 2 3 31.1018 -1498.50010136547849 1.1302e-20 2.59757461672831225 0.100754 0 -0.00261079
1504 2 3 31.1018 -1495.50010136547871 1.12793e-20 2.59757461670497358 0.10055 0 -0.00260695
1505 2 3 31.1018 -1492.50010136547871 1.12566e-20 2.59757461668163492 0.100345 0 -0.00260313
1506 2 3 31.1018 -1489.50010136547894 1.12339e-20 2.59757461665829625 0.100141 0 -0.0025993
1507 2 3 31.1018 -1486.50010136547917 1.12112e-20 2.59757461663495759 0.0999373 0 -0.00259546
1508 2 3 31.1018 -1483.50010136547917 1.11885e-20 2.59757461661161893 0.0997331 0 -0.00259164
1509 2 3 31.1018 -1480.5001013654794 1.11658e-20 2.59757461658828026 0.0995291 0 -0.00258781
1510 2 3 31.1018 -1477.5001013654794 1.11431e-20 2.5975746165649416 0.0993249 0 -0.00258399
1511 2 3 31.1018 -1474.50010136547962 1.11205e-20 2.59757461654160293 0.0991209 0 -0.00258015
1512 2 3 31.1018 -1471.50010136547985 1.10978e-20 2.59757461651826427 0.0989169 0 -0.00257632
1513 2 3 31.1018 -1468.50010136547985 1.10751e-20 2.5975746164949256 0.0987126 0 -0.0025725
1514 2 3 31.1018 -1465.50010136548008 1.10524e-20 2.59757461647158694 0.0985086 0 -0.00256866
1515 2 3 31.1018 -1462.50010136548008 1.10297e-20 2.59757461644824827 0.0983044 0 -0.00256485
1516 2 3 31.1018 -1459.5001013654803 1.1007e-20 2.59757461642490961 0.0981004 0 -0.00256101
1517 2 3 31.1018 -1456.50010136548053 1.09843e-20 2.59757461640157095 0.0978964 0 -0.00255717
1518 2 3 31.1018 -1453.50010136548053 1.09616e-20 2.59757461637823228 0.0976922 0 -0.00255336
1519 2 3 31.1018 -1450.50010136548076 1.09389e-20 2.59757461635489362 0.0974882 0 -0.00254952
1520 2 3 31.1018 -1447.50010136548076 1.09162e-20 2.59757461633155495 0.0972839 0 -0.00254571
1521 2 3 31.1018 -1444.50010136548099 1.08935e-20 2.59757461630821629 0.0970799 0 -0.00254187
1522 2 3 31.1018 -1441.50010136548121 1.08708e-20 2.59757461628487762 0.0968759 0 -0.00253803
1523 2 3 31.1018 -1438.50010136548121 1.08481e-20 2.59757461626153896 0.0966717 0 -0.00253422
1524 2 3 31.1018 -1435.50010136548144 1.08254e-20 2.5975746162382003 0.0964677 0 -0.00253038
1525 2 3 31.1018 -1432.50010136548144 1.08027e-20 2.59757461621486163 0.0962635 0 -0.00252656
1526 2 3 31.1018 -1429.50010136548167 1.078e-20 2.59757461619152297 0.0960595 0 -0.00252273
1527 2 3 31.1018 -1426.50010136548167 1.07573e-20 2.5975746161681843 0.0958553 0 -0.00251891
1528 2 3 31.1018 -1423.5001013654819 1.07346e-20 2.59757461614484564 0.0956513 0 -0.00251508
1529 2 3 31.1018 -1420.50010136548212 1.07119e-20 2.59757461612150697 0.0954473 0 -0.00251124
1530 2 3 31.1018 -1417.50010136548212 1.06892e-20 2.59757461609816831 0.095243 0 -0.00250742
1531 2 3 31.1018 -1414.50010136548235 1.06666e-20 2.59757461607482965 0.095039 0 -0.00250358
1532 2 3 31.1018 -1411.50010136548235 1.06439e-20 2.59757461605149098 0.0948348 0 -0.00249977
1533 2 3 31.1018 -1408.50010136548258 1.06212e-20 2.59757461602815232 0.0946308 0 -0.00249593
1534 2 3 31.1018 -1405.50010136548281 1.05985e-20 2.59757461600481365 0.0944268 0 -0.00249209
1535 2 3 31.1018 -1402.50010136548281 1.05758e-20 2.59757461598147499 0.0942226 0 -0.00248828
1536 2 3 31.1018 -1399.50010136548303 1.05531e-20 2.59757461595813632 0.0940186 0 -0.00248444
1537 2 3 31.1018 -1396.50010136548303 1.05304e-20 2.59757461593479766 0.0938143 0 -0.00248063
1538 2 3 31.1018 -1393.50010136548326 1.05077e-20 2.597574615911459 0.0936103 0 -0.00247679
1539 2 3 31.1018 -1390.50010136548349 1.0485e-20 2.59757461588812033 0.0934063 0 -0.00247295
1540 2 3 31.1018 -1387.50010136548349 1.04623e-20 2.59757461586478167 0.0932021 0 -0.00246914
1541 2 3 31.1018 -1384.50010136548372 1.04396e-20 2.597574615841443 0.0929981 0 -0.0024653
1542 2 3 31.1018 -1381.50010136548372 1.04169e-20 2.59757461581810434 0.0927939 0 -0.00246149
1543 2 3 31.1018 -1378.50010136548394 1.03942e-20 2.59757461579476567 0.0925899 0 -0.00245765
1544 2 3 31.1018 -1375.50010136548417 1.03715e-20 2.59757461577142701 0.0923859 0 -0.00245381
1545 2 3 31.1018 -1372.50010136548417 1.03488e-20 2.59757461574808834 0.0921817 0 -0.00245
1546 2 3 31.1018 -1369.5001013654844 1.03261e-20 2.59757461572474968 0.0919777 0 -0.00244616
1547 2 3 31.1018 -1366.5001013654844 1.03034e-20 2.59757461570141102 0.0917734 0 -0.00244234
1548 2 3 31.1018 -1363.50010136548462 1.02807e-20 2.59757461567807235 0.0915694 0 -0.00243851
1549 2 3 31.1018 -1360.50010136548485 1.0258e-20 2.59757461565473369 0.0913654 0 -0.00243467
1550 2 3 31.1018 -1357.50010136548485 1.02354e-20 2.59757461563139502 0.0911612 0 -0.00243085
1551 2 3 31.1018 -1354.50010136548508 1.02127e-20 2.59757461560805636 0.0909572 0 -0.00242702
1552 2 3 31.1018 -1351.50010136548508 1.019e-20 2.59757461558471769 0.090753 0 -0.0024232
1553 2 3 31.1018 -1348.50010136548531 1.01673e-20 2.59757461556137903 0.090549 0 -0.00241937
1554 2 3 31.1018 -1345.50010136548531 1.01446e-20 2.59757461553804037 0.0903447 0 -0.00241555
1555 2 3 31.1018 -1342.50010136548553 1.01219e-20 2.5975746155147017 0.0901407 0 -0.00241171
1556 2 3 31.1018 -1339.50010136548576 1.00992e-20 2.59757461549136304 0.0899367 0 -0.00240787
1557 2 3 31.1018 -1336.50010136548576 1.00765e-20 2.59757461546802437 0.0897325 0 -0.00240406
1558 2 3 31.1018 -1333.50010136548599 1.00538e-20 2.59757461544468571 0.0895285 0 -0.00240022
1559 2 3 31.1018 -1330.50010136548599 1.00311e-20 2.59757461542134704 0.0893243 0 -0.00239641
1560 2 3 31.1018 -1327.50010136548622 1.00084e-20 2.59757461539800838 0.0891203 0 -0.00239257
1561 2 3 31.1018 -1324.50010136548644 9.98571e-21 2.59757461537466972 0.0889163 0 -0.00238873
1562 2 3 31.1018 -1321.50010136548644 9.96302e-21 2.59757461535133105 0.088712 0 -0.00238492
1563 2 3 31.1018 -1318.50010136548667 9.94032e-21 2.59757461532799239 0.088508 0 -0.00238108
1564 2 3 31.1018 -1315.50010136548667 9.91763e-21 2.59757461530465372 0.0883038 0 -0.00237727
1565 2 3 31.1018 -1312.5001013654869 9.89493e-21 2.59757461528131506 0.0880998 0 -0.00237343
1566 2 3 31.1018 -1309.50010136548713 9.87224e-21 2.59757461525797639 0.0878958 0 -0.00236959
1567 2 3 31.1018 -1306.50010136548713 9.84954e-21 2.59757461523463773 0.0876916 0 -0.00236578
1568 2 3 31.1018 -1303.50010136548735 9.82685e-21 2.59757461521129907 0.0874876 0 -0.00236194
1569 2 3 31.1018 -1300.50010136548735 9.80415e-21 2.5975746151879604 0.0872834 0 -0.00235812
1570 2 3 31.1018 -1297.50010136548758 9.78146e-21 2.59757461516462174 0.0870794 0 -0.00235429
1571 2 3 31.1018 -1294.50010136548781 9.75876e-21 2.59757461514128307 0.0868754 0 -0.00235045
1572 2 3 31.1018 -1291.50010136548781 9.73607e-21 2.59757461511794441 0.0866711 0 -0.00234663
1573 2 3 31.1018 -1288.50010136548804 9.71337e-21 2.59757461509460574 0.0864671 0 -0.0023428
1574 2 3 31.1018 -1285.50010136548804 9.69068e-21 2.59757461507126708 0.0862629 0 -0.00233898
1575 2 3 31.1018 -1282.50010136548826 9.66798e-21 2.59757461504792841 0.0860589 0 -0.00233514
1576 2 3 31.1018 -1279.50010136548826 9.64529e-21 2.59757461502458975 0.0858547 0 -0.00233133
1577 2 3 31.1018 -1276.50010136548849 9.62259e-21 2.59757461500125109 0.0856507 0 -0.00232749
1578 2 3 31.1018 -1273.50010136548872 9.5999e-21 2.59757461497791242 0.0854467 0 -0.00232366
1579 2 3 31.1018 -1270.50010136548872 9.5772e-21 2.59757461495457376 0.0852424 0 -0.00231984
1580 2 3 31.1018 -1267.50010136548894 9.55451e-21 2.59757461493123509 0.0850384 0 -0.002316
1581 2 3 31.1018 -1264.50010136548894 9.53182e-21 2.59757461490789643 0.0848342 0 -0.00231219
1582 2 3 31.1018 -1261.50010136548917 9.50912e-21 2.59757461488455776 0.0846302 0 -0.00230835
1583 2 3 31.1018 -1258.5001013654894 9.48643e-21 2.5975746148612191 0.0844262 0 -0.00230451
1584 2 3 31.1018 -1255.5001013654894 9.46373e-21 2.59757461483788044 0.084222 0 -0.0023007
1585 2 3 31.1018 -1252.50010136548963 9.44104e-21 2.59757461481454177 0.084018 0 -0.00229686
1586 2 3 31.1018 -1249.50010136548963 9.41834e-21 2.59757461479120311 0.0838137 0 -0.00229305
1587 2 3 31.1018 -1246.50010136548985 9.39565e-21 2.59757461476786444 0.0836097 0 -0.00228921
1588 2 3 31.1018 -1243.50010136549008 9.37295e-21 2.59757461474452578 0.0834057 0 -0.00228537
1589 2 3 31.1018 -1240.50010136549008 9.35026e-21 2.59757461472118711 0.0832015 0 -0.00228156
1590 2 3 31.1018 -1237.50010136549031 9.32756e-21 2.59757461469784845 0.0829975 0 -0.00227772
1591 2 3 31.1018 -1234.50010136549031 9.30487e-21 2.59757461467450979 0.0827933 0 -0.0022739
1592 2 3 31.1018 -1231.50010136549054 9.28217e-21 2.59757461465117112 0.0825893 0 -0.00227007
1593 2 3 31.1018 -1228.50010136549076 9.25948e-21 2.59757461462783246 0.0823853 0 -0.00226623
1594 2 3 31.1018 -1225.50010136549076 9.23678e-21 2.59757461460449379 0.0821811 0 -0.00226242
1595 2 3 31.1018 -1222.50010136549099 9.21409e-21 2.59757461458115513 0.0819771 0 -0.00225858
1596 2 3 31.1018 -1219.50010136549099 9.19139e-21 2.59757461455781646 0.0817728 0 -0.00225476
1597 2 3 31.1018 -1216.50010136549122 9.1687e-21 2.5975746145344778 0.0815688 0 -0.00225093
1598 2 3 31.1018 -1213.50010136549145 9.146e-21 2.59757461451113913 0.0813648 0 -0.00224709
1599 2 3 31.1018 -1210.50010136549145 9.12331e-21 2.59757461448780047 0.0811606 0 -0.00224327
1600 2 3 31.1018 -1207.50010136549167 9.10061e-21 2.59757461446446181 0.0809566 0 -0.00223944
1601 2 3 31.1018 -1204.50010136549167 9.07792e-21 2.59757461444112314 0.0807524 0 -0.00223562
1602 2 3 31.1018 -1201.5001013654919 9.05522e-21 2.59757461441778448 0.0805484 0 -0.00223179
1603 2 3 31.1018 -1198.5001013654919 9.03253e-21 2.59757461439444581 0.0803441 0 -0.00222797
1604 2 3 31.1018 -1195.50010136549213 9.00983e-21 2.59757461437110715 0.0801401 0 -0.00222413
1605 2 3 31.1018 -1192.50010136549236 8.98714e-21 2.59757461434776848 0.0799361 0 -0.0022203
1606 2 3 31.1018 -1189.50010136549236 8.96445e-21 2.59757461432442982 0.0797319 0 -0.00221648
1607 2 3 31.1018 -1186.50010136549258 8.94175e-21 2.59757461430109116 0.0795279 0 -0.00221264
1608 2 3 31.1018 -1183.50010136549258 8.91906e-21 2.59757461427775249 0.0793237 0 -0.00220883
1609 2 3 31.1018 -1180.50010136549281 8.89636e-21 2.59757461425441383 0.0791197 0 -0.00220499
1610 2 3 31.1018 -1177.50010136549304 8.87367e-21 2.59757461423107516 0.0789157 0 -0.00220115
1611 2 3 31.1018 -1174.50010136549304 8.85097e-21 2.5975746142077365 0.0787114 0 -0.00219734
1612 2 3 31.1018 -1171.50010136549326 8.82828e-21 2.59757461418439783 0.0785074 0 -0.0021935
1613 2 3 31.1018 -1168.50010136549326 8.80558e-21 2.59757461416105917 0.0783032 0 -0.00218969
1614 2 3 31.1018 -1165.50010136549349 8.78289e-21 2.59757461413772051 0.0780991 0 -0.00218581
1615 2 3 31.1018 -1162.50010136549372 8.76019e-21 2.59757461411438184 0.077895 0 -0.00218192
1616 2 3 31.1018 -1159.50010136549372 8.7375e-21 2.59757461409104318 0.0776907 0 -0.00217805
1617 2 3 31.1018 -1156.50010136549395 8.7148e-21 2.59757461406770451 0.0774866 0 -0.00217416
1618 2 3 31.1018 -1153.50010136549395 8.69211e-21 2.59757461404436585 0.0772823 0 -0.0021703
1619 2 3 31.1018 -1150.50010136549417 8.66941e-21 2.59757461402102718 0.0770782 0 -0.00216641
1620 2 3 31.1018 -1147.5001013654944 8.64672e-21 2.59757461399768852 0.0768741 0 -0.00216252
1621 2 3 31.1018 -1144.5001013654944 8.62402e-21 2.59757461397434986 0.0766698 0 -0.00215865
1622 2 3 31.1018 -1141.50010136549463 8.60133e-21 2.59757461395101119 0.0764657 0 -0.00215476
1623 2 3 31.1018 -1138.50010136549463 8.57863e-21 2.59757461392767253 0.0762614 0 -0.00215089
1624 2 3 31.1018 -1135.50010136549486 8.55594e-21 2.59757461390433386 0.0760573 0 -0.002147
1625 2 3 31.1018 -1132.50010136549486 8.53324e-21 2.5975746138809952 0.075853 0 -0.00214314
1626 2 3 31.1018 -1129.50010136549508 8.51055e-21 2.59757461385765653 0.0756489 0 -0.00213925
1627 2 3 31.1018 -1126.50010136549531 8.48785e-21 2.59757461383431787 0.0754448 0 -0.00213536
376 1 3 31.1018 -1125 0 0 0 0 0
377 1 3 31.1018 -1122 0 0 0 0 0
378 1 3 31.1018 -1119 0 0 0 0 0
379 1 3 31.1018 -1116 0 0 0 0 0
380 1 3 31.1018 -1113 0 0 0 0 0
381 1 3 31.1018 -1110 0 0 0 0 0
382 1 3 31.1018 -1107 0 0 0 0 0
383 1 3 31.1018 -1104 0 0 0 0 0
384 1 3 31.1018 -1101 0 0 0 0 0
385 1 3 31.1018 -1098 0 0 0 0 0
386 1 3 31.1018 -1095 0 0 0 0 0
387 1 3 31.1018 -1092 0 0 0 0 0
388 1 3 31.1018 -1089 0 0 0 0 0
389 1 3 31.1018 -1086 0 0 0 0 0
390 1 3 31.1018 -1083 0 0 0 0 0
391 1 3 31.1018 -1080 0 0 0 0 0
392 1 3 31.1018 -1077 0 0 0 0 0
393 1 3 31.1018 -1074 0 0 0 0 0
394 1 3 31.1018 -1071 0 0 0 0 0
395 1 3 31.1018 -1068 0 0 0 0 0
396 1 3 31.1018 -1065 0 0 0 0 0
397 1 3 31.1018 -1062 0 0 0 0 0
398 1 3 31.1018 -1059 0 0 0 0 0
399 1 3 31.1018 -1056 0 0 0 0 0
400 1 3 31.1018 -1053 0 0 0 0 0
401 1 3 31.1018 -1050 0 0 0 0 0
402 1 3 31.1018 -1047 0 0 0 0 0
403 1 3 31.1018 -1044 0 0 0 0 0
404 1 3 31.1018 -1041 0 0 0 0 0
405 1 3 31.1018 -1038 0 0 0 0 0
406 1 3 31.1018 -1035 0 0 0 0 0
407 1 3 31.1018 -1032 0 0 0 0 0
408 1 3 31.1018 -1029 0 0 0 0 0
409 1 3 31.1018 -1026 0 0 0 0 0
410 1 3 31.1018 -1023 0 0 0 0 0
411 1 3 31.1018 -1020 0 0 0 0 0
412 1 3 31.1018 -1017 0 0 0 0 0
413 1 3 31.1018 -1014 0 0 0 0 0
414 1 3 31.1018 -1011 0 0 0 0 0
415 1 3 31.1018 -1008 0 0 0 0 0
416 1 3 31.1018 -1005 0 0 0 0 0
417 1 3 31.1018 -1002 0 0 0 0 0
418 1 3 31.1018 -999 0 0 0 0 0
419 1 3 31.1018 -996 0 0 0 0 0
420 1 3 31.1018 -993 0 0 0 0 0
421 1 3 31.1018 -990 0 0 0 0 0
422 1 3 31.1018 -987 0 0 0 0 0
423 1 3 31.1018 -984 0 0 0 0 0
424 1 3 31.1018 -981 0 0 0 0 0
425 1 3 31.1018 -978 0 0 0 0 0
426 1 3 31.1018 -975 0 0 0 0 0
427 1 3 31.1018 -972 0 0 0 0 0
428 1 3 31.1018 -969 0 0 0 0 0
429 1 3 31.1018 -966 0 0 0 0 0
430 1 3 31.1018 -963 0 0 0 0 0
431 1 3 31.1018 -960 0 0 0 0 0
432 1 3 31.1018 -957 0 0 0 0 0
433 1 3 31.1018 -954 0 0 0 0 0
434 1 3 31.1018 -951 0 0 0 0 0
435 1 3 31.1018 -948 0 0 0 0 0
436 1 3 31.1018 -945 0 0 0 0 0
437 1 3 31.1018 -942 0 0 0 0 0
438 1 3 31.1018 -939 0 0 0 0 0
439 1 3 31.1018 -936 0 0 0 0 0
440 1 3 31.1018 -933 0 0 0 0 0
441 1 3 31.1018 -930 0 0 0 0 0
442 1 3 31.1018 -927 0 0 0 0 0
443 1 3 31.1018 -924 0 0 0 0 0
444 1 3 31.1018 -921 0 0 0 0 0
445 1 3 31.1018 -918 0 0 0 0 0
446 1 3 31.1018 -915 0 0 0 0 0
447 1 3 31.1018 -912 0 0 0 0 0
448 1 3 31.1018 -909 0 0 0 0 0
449 1 3 31.1018 -906 0 0 0 0 0
450 1 3 31.1018 -903 0 0 0 0 0
451 1 3 31.1018 -900 0 0 0 0 0
452 1 3 31.1018 -897 0 0 0 0 0
453 1 3 31.1018 -894 0 0 0 0 0
454 1 3 31.1018 -891 0 0 0 0 0
455 1 3 31.1018 -888 0 0 0 0 0
456 1 3 31.1018 -885 0 0 0 0 0
457 1 3 31.1018 -882 0 0 0 0 0
458 1 3 31.1018 -879 0 0 0 0 0
459 1 3 31.1018 -876 0 0 0 0 0
460 1 3 31.1018 -873 0 0 0 0 0
461 1 3 31.1018 -870 0 0 0 0 0
462 1 3 31.1018 -867 0 0 0 0 0
463 1 3 31.1018 -864 0 0 0 0 0
464 1 3 31.1018 -861 0 0 0 0 0
465 1 3 31.1018 -858 0 0 0 0 0
466 1 3 31.1018 -855 0 0 0 0 0
467 1 3 31.1018 -852 0 0 0 0 0
468 1 3 31.1018 -849 0 0 0 0 0
469 1 3 31.1018 -846 0 0 0 0 0
470 1 3 31.1018 -843 0 0 0 0 0
471 1 3 31.1018 -840 0 0 0 0 0
472 1 3 31.1018 -837 0 0 0 0 0
473 1 3 31.1018 -834 0 0 0 0 0
474 1 3 31.1018 -831 0 0 0 0 0
475 1 3 31.1018 -828 0 0 0 0 0
476 1 3 31.1018 -825 0 0 0 0 0
477 1 3 31.1018 -822 0 0 0 0 0
478 1 3 31.1018 -819 0 0 0 0 0
479 1 3 31.1018 -816 0 0 0 0 0
480 1 3 31.1018 -813 0 0 0 0 0
481 1 3 31.1018 -810 0 0 0 0 0
482 1 3 31.1018 -807 0 0 0 0 0
483 1 3 31.1018 -804 0 0 0 0 0
484 1 3 31.1018 -801 0 0 0 0 0
485 1 3 31.1018 -798 0 0 0 0 0
486 1 3 31.1018 -795 0 0 0 0 0
487 1 3 31.1018 -792 0 0 0 0 0
488 1 3 31.1018 -789 0 0 0 0 0
489 1 3 31.1018 -786 0 0 0 0 0
490 1 3 31.1018 -783 0 0 0 0 0
491 1 3 31.1018 -780 0 0 0 0 0
492 1 3 31.1018 -777 0 0 0 0 0
493 1 3 31.1018 -774 0 0 0 0 0
494 1 3 31.1018 -771 0 0 0 0 0
495 1 3 31.1018 -768 0 0 0 0 0
496 1 3 31.1018 -765 0 0 0 0 0
497 1 3 31.1018 -762 0 0 0 0 0
498 1 3 31.1018 -759 0 0 0 0 0
499 1 3 31.1018 -756 0 0 0 0 0
500 1 3 31.1018 -753 0 0 0 0 0
501 1 3 31.1018 -750 0 0 0 0 0
502 1 3 31.1018 -747 0 0 0 0 0
503 1 3 31.1018 -744 0 0 0 0 0
504 1 3 31.1018 -741 0 0 0 0 0
505 1 3 31.1018 -738 0 0 0 0 0
506 1 3 31.1018 -735 0 0 0 0 0
507 1 3 31.1018 -732 0 0 0 0 0
508 1 3 31.1018 -729 0 0 0 0 0
509 1 3 31.1018 -726 0 0 0 0 0
510 1 3 31.1018 -723 0 0 0 0 0
511 1 3 31.1018 -720 0 0 0 0 0
512 1 3 31.1018 -717 0 0 0 0 0
513 1 3 31.1018 -714 0 0 0 0 0
514 1 3 31.1018 -711 0 0 0 0 0
515 1 3 31.1018 -708 0 0 0 0 0
516 1 3 31.1018 -705 0 0 0 0 0
517 1 3 31.1018 -702 0 0 0 0 0
518 1 3 31.1018 -699 0 0 0 0 0
519 1 3 31.1018 -696 0 0 0 0 0
520 1 3 31.1018 -693 0 0 0 0 0
521 1 3 31.1018 -690 0 0 0 0 0
522 1 3 31.1018 -687 0 0 0 0 0
523 1 3 31.1018 -684 0 0 0 0 0
524 1 3 31.1018 -681 0 0 0 0 0
525 1 3 31.1018 -678 0 0 0 0 0
526 1 3 31.1018 -675 0 0 0 0 0
527 1 3 31.1018 -672 0 0 0 0 0
528 1 3 31.1018 -669 0 0 0 0 0
529 1 3 31.1018 -666 0 0 0 0 0
530 1 3 31.1018 -663 0 0 0 0 0
531 1 3 31.1018 -660 0 0 0 0 0
532 1 3 31.1018 -657 0 0 0 0 0
533 1 3 31.1018 -654 0 0 0 0 0
534 1 3 31.1018 -651 0 0 0 0 0
535 1 3 31.1018 -648 0 0 0 0 0
536 1 3 31.1018 -645 0 0 0 0 0
537 1 3 31.1018 -642 0 0 0 0 0
538 1 3 31.1018 -639 0 0 0 0 0
539 1 3 31.1018 -636 0 0 0 0 0
540 1 3 31.1018 -633 0 0 0 0 0
541 1 3 31.1018 -630 0 0 0 0 0
542 1 3 31.1018 -627 0 0 0 0 0
543 1 3 31.1018 -624 0 0 0 0 0
544 1 3 31.1018 -621 0 0 0 0 0
545 1 3 31.1018 -618 0 0 0 0 0
546 1 3 31.1018 -615 0 0 0 0 0
547 1 3 31.1018 -612 0 0 0 0 0
548 1 3 31.1018 -609 0 0 0 0 0
549 1 3 31.1018 -606 0 0 0 0 0
550 1 3 31.1018 -603 0 0 0 0 0
551 1 3 31.1018 -600 0 0 0 0 0
552 1 3 31.1018 -597 0 0 0 0 0
553 1 3 31.1018 -594 0 0 0 0 0
554 1 3 31.1018 -591 0 0 0 0 0
555 1 3 31.1018 -588 0 0 0 0 0
556 1 3 31.1018 -585 0 0 0 0 0
557 1 3 31.1018 -582 0 0 0 0 0
558 1 3 31.1018 -579 0 0 0 0 0
559 1 3 31.1018 -576 0 0 0 0 0
560 1 3 31.1018 -573 0 0 0 0 0
561 1 3 31.1018 -570 0 0 0 0 0
562 1 3 31.1018 -567 0 0 0 0 0
563 1 3 31.1018 -564 0 0 0 0 0
564 1 3 31.1018 -561 0 0 0 0 0
565 1 3 31.1018 -558 0 0 0 0 0
566 1 3 31.1018 -555 0 0 0 0 0