ITEM: TIMESTEP
4700000
ITEM: NUMBER OF ATOMS
1501
ITEM: BOX BOUNDS pp pp pp
-1.3500000000000000e+03 1.3500000000000000e+03
-1.0000000000000000e+02 1.0000000000000000e+02
-1.0000000000000000e+02 1.0000000000000000e+02
ITEM: ATOMS id type diameter mass xu yu zu fx fy fz
1 1 3 31.1018 -1350 0 0 0 0 0
2 1 3 31.1018 -1347 0 0 0 0 0
3 1 3 31.1018 -1344 0 0 0 0 0
4 1 3 31.1018 -1341 0 0 0 0 0
5 1 3 31.1018 -1338 0 0 0 0 0
6 1 3 31.1018 -1335 0 0 0 0 0
7 1 3 31.1018 -1332 0 0 0 0 0
8 1 3 31.1018 -1329 0 0 0 0 0
9 1 3 31.1018 -1326 0 0 0 0 0
10 1 3 31.1018 -1323 0 0 0 0 0
11 1 3 31.1018 -1320 0 0 0 0 0
12 1 3 31.1018 -1317 0 0 0 0 0
13 1 3 31.1018 -1314 0 0 0 0 0
14 1 3 31.1018 -1311 0 0 0 0 0
15 1 3 31.1018 -1308 0 0 0 0 0
16 1 3 31.1018 -1305 0 0 0 0 0
17 1 3 31.1018 -1302 0 0 0 0 0
18 1 3 31.1018 -1299 0 0 0 0 0
19 1 3 31.1018 -1296 0 0 0 0 0
20 1 3 31.1018 -1293 0 0 0 0 0
21 1 3 31.1018 -1290 0 0 0 0 0
22 1 3 31.1018 -1287 0 0 0 0 0
23 1 3 31.1018 -1284 0 0 0 0 0
24 1 3 31.1018 -1281 0 0 0 0 0
25 1 3 31.1018 -1278 0 0 0 0 0
26 1 3 31.1018 -1275 0 0 0 0 0
27 1 3 31.1018 -1272 0 0 0 0 0
28 1 3 31.1018 -1269 0 0 0 0 0
29 1 3 31.1018 -1266 0 0 0 0 0
30 1 3 31.1018 -1263 0 0 0 0 0
31 1 3 31.1018 -1260 0 0 0 0 0
32 1 3 31.1018 -1257 0 0 0 0 0
33 1 3 31.1018 -1254 0 0 0 0 0
34 1 3 31.1018 -1251 0 0 0 0 0
35 1 3 31.1018 -1248 0 0 0 0 0
36 1 3 31.1018 -1245 0 0 0 0 0
37 1 3 31.1018 -1242 0 0 0 0 0
38 1 3 31.1018 -1239 0 0 0 0 0
39 1 3 31.1018 -1236 0 0 0 0 0
40 1 3 31.1018 -1233 0 0 0 0 0
41 1 3 31.1018 -1230 0 0 0 0 0
42 1 3 31.1018 -1227 0 0 0 0 0
43 1 3 31.1018 -1224 0 0 0 0 0
44 1 3 31.1018 -1221 0 0 0 0 0
45 1 3 31.1018 -1218 0 0 0 0 0
46 1 3 31.1018 -1215 0 0 0 0 0
47 1 3 31.1018 -1212 0 0 0 0 0
48 1 3 31.1018 -1209 0 0 0 0 0
49 1 3 31.1018 -1206 0 0 0 0 0
50 1 3 31.1018 -1203 0 0 0 0 0
51 1 3 31.1018 -1200 0 0 0 0 0
52 1 3 31.1018 -1197 0 0 0 0 0
53 1 3 31.1018 -1194 0 0 0 0 0
54 1 3 31.1018 -1191 0 0 0 0 0
55 1 3 31.1018 -1188 0 0 0 0 0
56 1 3 31.1018 -1185 0 0 0 0 0
57 1 3 31.1018 -1182 0 0 0 0 0
58 1 3 31.1018 -1179 0 0 0 0 0
59 1 3 31.1018 -1176 0 0 0 0 0
60 1 3 31.1018 -1173 0 0 0 0 0
61 1 3 31.1018 -1170 0 0 0 0 0
62 1 3 31.1018 -1167 0 0 0 0 0
63 1 3 31.1018 -1164 0 0 0 0 0
64 1 3 31.1018 -1161 0 0 0 0 0
65 1 3 31.1018 -1158 0 0 0 0 0
66 1 3 31.1018 -1155 0 0 0 0 0
67 1 3 31.1018 -1152 0 0 0 0 0
68 1 3 31.1018 -1149 0 0 0 0 0
69 1 3 31.1018 -1146 0 0 0 0 0
70 1 3 31.1018 -1143 0 0 0 0 0
71 1 3 31.1018 -1140 0 0 0 0 0
72 1 3 31.1018 -1137 0 0 0 0 0
73 1 3 31.1018 -1134 0 0 0 0 0
74 1 3 31.1018 -1131 0 0 0 0 0
75 1 3 31.1018 -1128 0 0 0 0 0
76 1 3 31.1018 -1125 0 0 0 0 0
77 1 3 31.1018 -1122 0 0 0 0 0
78 1 3 31.1018 -1119 0 0 0 0 0
79 1 3 31.1018 -1116 0 0 0 0 0
80 1 3 31.1018 -1113 0 0 0 0 0
81 1 3 31.1018 -1110 0 0 0 0 0
82 1 3 31.1018 -1107 0 0 0 0 0
83 1 3 31.1018 -1104 0 0 0 0 0
84 1 3 31.1018 -1101 0 0 0 0 0
85 1 3 31.1018 -1098 0 0 0 0 0
86 1 3 31.1018 -1095 0 0 0 0 0
87 1 3 31.1018 -1092 0 0 0 0 0
88 1 3 31.1018 -1089 0 0 0 0 0
89 1 3 31.1018 -1086 0 0 0 0 0
90 1 3 31.1018 -1083 0 0 0 0 0
91 1 3 31.1018 -1080 0 0 0 0 0
92 1 3 31.1018 -1077 0 0 0 0 0
93 1 3 31.1018 -1074 0 0 0 0 0
94 1 3 31.1018 -1071 0 0 0 0 0
95 1 3 31.1018 -1068 0 0 0 0 0
96 1 3 31.1018 -1065 0 0 0 0 0
97 1 3 31.1018 -1062 0 0 0 0 0
98 1 3 31.1018 -1059 0 0 0 0 0
99 1 3 31.1018 -1056 0 0 0 0 0
100 1 3 31.1018 -1053 0 0 0 0 0
101 1 3 31.1018 -1050 0 0 0 0 0
102 1 3 31.1018 -1047 0 0 0 0 0
103 1 3 31.1018 -1044 0 0 0 0 0
104 1 3 31.1018 -1041 0 0 0 0 0
105 1 3 31.1018 -1038 0 0 0 0 0
106 1 3 31.1018 -1035 0 0 0 0 0
107 1 3 31.1018 -1032 0 0 0 0 0
108 1 3 31.1018 -1029 0 0 0 0 0
109 1 3 31.1018 -1026 0 0 0 0 0
110 1 3 31.1018 -1023 0 0 0 0 0
111 1 3 31.1018 -1020 0 0 0 0 0
112 1 3 31.1018 -1017 0 0 0 0 0
113 1 3 31.1018 -1014 0 0 0 0 0
114 1 3 31.1018 -1011 0 0 0 0 0
115 1 3 31.1018 -1008 0 0 0 0 0
116 1 3 31.1018 -1005 0 0 0 0 0
117 1 3 31.1018 -1002 0 0 0 0 0
118 1 3 31.1018 -999 0 0 0 0 0
119 1 3 31.1018 -996 0 0 0 0 0
120 1 3 31.1018 -993 0 0 0 0 0
121 1 3 31.1018 -990 0 0 0 0 0
122 1 3 31.1018 -987 0 0 0 0 0
123 1 3 31.1018 -984 0 0 0 0 0
124 1 3 31.1018 -981 0 0 0 0 0
125 1 3 31.1018 -978 0 0 0 0 0
126 1 3 31.1018 -975 0 0 0 0 0
127 1 3 31.1018 -972 0 0 0 0 0
128 1 3 31.1018 -969 0 0 0 0 0
129 1 3 31.1018 -966 0 0 0 0 0
130 1 3 31.1018 -963 0 0 0 0 0
131 1 3 31.1018 -960 0 0 0 0 0
132 1 3 31.1018 -957 0 0 0 0 0
133 1 3 31.1018 -954 0 0 0 0 0
134 1 3 31.1018 -951 0 0 0 0 0
135 1 3 31.1018 -948 0 0 0 0 0
136 1 3 31.1018 -945 0 0 0 0 0
137 1 3 31.1018 -942 0 0 0 0 0
138 1 3 31.1018 -939 0 0 0 0 0
139 1 3 31.1018 -936 0 0 0 0 0
140 1 3 31.1018 -933 0 0 0 0 0
141 1 3 31.1018 -930 0 0 0 0 0
142 1 3 31.1018 -927 0 0 0 0 0
143 1 3 31.1018 -924 0 0 0 0 0
144 1 3 31.1018 -921 0 0 0 0 0
145 1 3 31.1018 -918 0 0 0 0 0
146 1 3 31.1018 -915 0 0 0 0 0
147 1 3 31.1018 -912 0 0 0 0 0
148 1 3 31.1018 -909 0 0 0 0 0
149 1 3 31.1018 -906 0 0 0 0 0
150 1 3 31.1018 -903 0 0 0 0 0
151 1 3 31.1018 -900 0 0 0 0 0
152 1 3 31.1018 -897 0 0 0 0 0
153 1 3 31.1018 -894 0 0 0 0 0
154 1 3 31.1018 -891 0 0 0 0 0
155 1 3 31.1018 -888 0 0 0 0 0
156 1 3 31.1018 -885 0 0 0 0 0
157 1 3 31.1018 -882 0 0 0 0 0
158 1 3 31.1018 -879 0 0 0 0 0
159 1 3 31.1018 -876 0 0 0 0 0
160 1 3 31.1018 -873 0 0 0 0 0
161 1 3 31.1018 -870 0 0 0 0 0
162 1 3 31.1018 -867 0 0 0 0 0
163 1 3 31.1018 -864 0 0 0 0 0
164 1 3 31.1018 -861 0 0 0 0 0
165 1 3 31.1018 -858 0 0 0 0 0
166 1 3 31.1018 -855 0 0 0 0 0
167 1 3 31.1018 -852 0 0 0 0 0
168 1 3 31.1018 -849 0 0 0 0 0
169 1 3 31.1018 -846 0 0 0 0 0
170 1 3 31.1018 -843 0 0 0 0 0
171 1 3 31.1018 -840 0 0 0 0 0
172 1 3 31.1018 -837 0 0 0 0 0
173 1 3 31.1018 -834 0 0 0 0 0
174 1 3 31.1018 -831 0 0 0 0 0
175 1 3 31.1018 -828 0 0 0 0 0
176 1 3 31.1018 -825 0 0 0 0 0
177 1 3 31.1018 -822 0 0 0 0 0
178 1 3 31.1018 -819 0 0 0 0 0
179 1 3 31.1018 -816 0 0 0 0 0
180 1 3 31.1018 -813 0 0 0 0 0
181 1 3 31.1018 -810 0 0 0 0 0
182 1 3 31.1018 -807 0 0 0 0 0
183 1 3 31.1018 -804 0 0 0 0 0
184 1 3 31.1018 -801 0 0 0 0 0
185 1 3 31.1018 -798 0 0 0 0 0
186 1 3 31.1018 -795 0 0 0 0 0
187 1 3 31.1018 -792 0 0 0 0 0
188 1 3 31.1018 -789 0 0 0 0 0
189 1 3 31.1018 -786 0 0 0 0 0
190 1 3 31.1018 -783 0 0 0 0 0
191 1 3 31.1018 -780 0 0 0 0 0
192 1 3 31.1018 -777 0 0 0 0 0
193 1 3 31.1018 -774 0 0 0 0 0
194 1 3 31.1018 -771 0 0 0 0 0
195 1 3 31.1018 -768 0 0 0 0 0
196 1 3 31.1018 -765 0 0 0 0 0
197 1 3 31.1018 -762 0 0 0 0 0
198 1 3 31.1018 -759 0 0 0 0 0
199 1 3 31.1018 -756 0 0 0 0 0
200 1 3 31.1018 -753 0 0 0 0 0
201 1 3 31.1018 -750 0 0 0 0 0
202 1 3 31.1018 -747 0 0 0 0 0
203 1 3 31.1018 -744 0 0 0 0 0
204 1 3 31.1018 -741 0 0 0 0 0
205 1 3 31.1018 -738 0 0 0 0 0
206 1 3 31.1018 -735 0 0 0 0 0
207 1 3 31.1018 -732 0 0 0 0 0
208 1 3 31.1018 -729 0 0 0 0 0
209 1 3 31.1018 -726 0 0 0 0 0
210 1 3 31.1018 -723 0 0 0 0 0
211 1 3 31.1018 -720 0 0 0 0 0
212 1 3 31.1018 -717 0 0 0 0 0
213 1 3 31.1018 -714 0 0 0 0 0
214 1 3 31.1018 -711 0 0 0 0 0
215 1 3 31.1018 -708 0 0 0 0 0
216 1 3 31.1018 -705 0 0 0 0 0
217 1 3 31.1018 -702 0 0 0 0 0
218 1 3 31.1018 -699 0 0 0 0 0
219 1 3 31.1018 -696 0 0 0 0 0
220 1 3 31.1018 -693 0 0 0 0 0
221 1 3 31.1018 -690 0 0 0 0 0
222 1 3 31.1018 -687 0 0 0 0 0
223 1 3 31.1018 -684 0 0 0 0 0
224 1 3 31.1018 -681 0 0 0 0 0
225 1 3 31.1018 -678 0 0 0 0 0
901 2 3 31.1018 -904.500101365418459 5.22877e-20 2.59757462457236166 0.169866 0 -0.00305543
902 2 3 31.1018 -901.500101365418459 5.21134e-20 2.59757462450768539 0.169299 0 -0.00304475
903 2 3 31.1018 -898.500101365418459 5.19392e-20 2.59757462444300913 0.168732 0 -0.00303406
904 2 3 31.1018 -895.500101365418459 5.17649e-20 2.59757462437833286 0.168165 0 -0.00302338
905 2 3 31.1018 -892.500101365418459 5.15906e-20 2.5975746243136566 0.167598 0 -0.0030127
906 2 3 31.1018 -889.500101365418459 5.14163e-20 2.59757462424898034 0.16703 0 -0.00300202
907 2 3 31.1018 -886.500101365418459 5.1242e-20 2.59757462418430407 0.166463 0 -0.00299133
908 2 3 31.1018 -883.500101365418459 5.10677e-20 2.59757462411962781 0.165896 0 -0.00298065
909 2 3 31.1018 -880.500101365418459 5.08934e-20 2.59757462405495154 0.165329 0 -0.00296997
910 2 3 31.1018 -877.500101365418573 5.07191e-20 2.59757462399027528 0.164762 0 -0.00295928
911 2 3 31.1018 -874.500101365418573 5.05448e-20 2.59757462392559901 0.164195 0 -0.00294859
912 2 3 31.1018 -871.500101365418573 5.03705e-20 2.59757462386092275 0.163627 0 -0.00293791
913 2 3 31.1018 -868.500101365418573 5.01962e-20 2.59757462379624648 0.16306 0 -0.00292723
914 2 3 31.1018 -865.500101365418573 5.00219e-20 2.59757462373157022 0.162493 0 -0.00291655
915 2 3 31.1018 -862.500101365418573 4.98476e-20 2.59757462366689396 0.161926 0 -0.00290586
916 2 3 31.1018 -859.500101365418573 4.96734e-20 2.59757462360221769 0.161359 0 -0.00289518
917 2 3 31.1018 -856.500101365418573 4.94991e-20 2.59757462353754143 0.160792 0 -0.0028845
918 2 3 31.1018 -853.500101365418573 4.93248e-20 2.59757462347286516 0.160224 0 -0.00287382
919 2 3 31.1018 -850.500101365418573 4.91505e-20 2.5975746234081889 0.159657 0 -0.00286314
920 2 3 31.1018 -847.500101365418573 4.89762e-20 2.59757462334351263 0.15909 0 -0.00285245
921 2 3 31.1018 -844.500101365418573 4.88019e-20 2.59757462327883637 0.158523 0 -0.00284177
922 2 3 31.1018 -841.500101365418573 4.86276e-20 2.59757462321416011 0.157956 0 -0.00283109
923 2 3 31.1018 -838.500101365418573 4.84533e-20 2.59757462314948384 0.157389 0 -0.00282041
924 2 3 31.1018 -835.500101365418686 4.8279e-20 2.59757462308480758 0.156821 0 -0.00280972
925 2 3 31.1018 -832.500101365418686 4.81047e-20 2.59757462302013131 0.156254 0 -0.00279903
926 2 3 31.1018 -829.500101365418686 4.79304e-20 2.59757462295545505 0.155687 0 -0.00278835
927 2 3 31.1018 -826.500101365418686 4.77561e-20 2.59757462289077878 0.15512 0 -0.00277767
928 2 3 31.1018 -823.500101365418686 4.75818e-20 2.59757462282610252 0.154553 0 -0.00276699
929 2 3 31.1018 -820.500101365418686 4.74075e-20 2.59757462276142626 0.153986 0 -0.0027563
930 2 3 31.1018 -817.500101365418686 4.72333e-20 2.59757462269674999 0.153418 0 -0.00274562
931 2 3 31.1018 -814.500101365418686 4.7059e-20 2.59757462263207373 0.152851 0 -0.00273494
932 2 3 31.1018 -811.500101365418686 4.68847e-20 2.59757462256739746 0.152284 0 -0.00272426
933 2 3 31.1018 -808.500101365418686 4.67104e-20 2.5975746225027212 0.151717 0 -0.00271358
934 2 3 31.1018 -805.500101365418686 4.65361e-20 2.59757462243804493 0.15115 0 -0.0027029
935 2 3 31.1018 -802.500101365418686 4.63618e-20 2.59757462237336867 0.150583 0 -0.00269221
936 2 3 31.1018 -799.500101365418686 4.61875e-20 2.5975746223086924 0.150015 0 -0.00268153
937 2 3 31.1018 -796.500101365418686 4.60132e-20 2.59757462224401614 0.149448 0 -0.00267085
938 2 3 31.1018 -793.5001013654188 4.58389e-20 2.59757462217933988 0.148881 0 -0.00266016
939 2 3 31.1018 -790.5001013654188 4.56646e-20 2.59757462211466361 0.148314 0 -0.00264948
940 2 3 31.1018 -787.5001013654188 4.54903e-20 2.59757462204998735 0.147747 0 -0.00263879
941 2 3 31.1018 -784.5001013654188 4.5316e-20 2.59757462198531108 0.14718 0 -0.00262811
942 2 3 31.1018 -781.5001013654188 4.51417e-20 2.59757462192063482 0.146612 0 -0.00261743
943 2 3 31.1018 -778.5001013654188 4.49675e-20 2.59757462185595855 0.146045 0 -0.00260675
944 2 3 31.1018 -775.5001013654188 4.47932e-20 2.59757462179128229 0.145478 0 -0.00259607
945 2 3 31.1018 -772.5001013654188 4.46189e-20 2.59757462172660603 0.144911 0 -0.00258539
946 2 3 31.1018 -769.5001013654188 4.44446e-20 2.59757462166192976 0.144344 0 -0.0025747
947 2 3 31.1018 -766.5001013654188 4.42703e-20 2.5975746215972535 0.143777 0 -0.00256402
948 2 3 31.1018 -763.5001013654188 4.4096e-20 2.59757462153257723 0.143209 0 -0.00255334
949 2 3 31.1018 -760.5001013654188 4.39217e-20 2.59757462146790097 0.142642 0 -0.00254266
950 2 3 31.1018 -757.5001013654188 4.37474e-20 2.5975746214032247 0.142075 0 -0.00253198
951 2 3 31.1018 -754.5001013654188 4.35731e-20 2.59757462133854844 0.141508 0 -0.0025213
952 2 3 31.1018 -751.5001013654188 4.33988e-20 2.59757462127387218 0.140941 0 -0.00251061
953 2 3 31.1018 -748.500101365418914 4.32245e-20 2.59757462120919591 0.140374 0 -0.00249992
954 2 3 31.1018 -745.500101365418914 4.30502e-20 2.59757462114451965 0.139806 0 -0.00248924
955 2 3 31.1018 -742.500101365418914 4.28759e-20 2.59757462107984338 0.139239 0 -0.00247856
956 2 3 31.1018 -739.500101365418914 4.27017e-20 2.59757462101516712 0.138672 0 -0.00246788
957 2 3 31.1018 -736.500101365418914 4.25274e-20 2.59757462095049085 0.138105 0 -0.00245719
958 2 3 31.1018 -733.500101365418914 4.23531e-20 2.59757462088581459 0.137538 0 -0.00244651
959 2 3 31.1018 -730.500101365418914 4.21788e-20 2.59757462082113832 0.13697 0 -0.00243583
960 2 3 31.1018 -727.500101365418914 4.20045e-20 2.59757462075646206 0.136403 0 -0.00242515
961 2 3 31.1018 -724.500101365418914 4.18302e-20 2.5975746206917858 0.135836 0 -0.00241447
962 2 3 31.1018 -721.500101365418914 4.16559e-20 2.59757462062710953 0.135269 0 -0.00240379
963 2 3 31.1018 -718.500101365418914 4.14816e-20 2.59757462056243327 0.134702 0 -0.00239311
964 2 3 31.1018 -715.500101365418914 4.13073e-20 2.597574620497757 0.134134 0 -0.00238229
965 2 3 31.1018 -712.500101365418914 4.1133e-20 2.59757462043308074 0.133567 0 -0.00237146
966 2 3 31.1018 -709.500101365418914 4.09587e-20 2.59757462036840447 0.132999 0 -0.00236063
967 2 3 31.1018 -706.500101365419027 4.07844e-20 2.59757462030372821 0.132432 0 -0.0023498
968 2 3 31.1018 -703.500101365419027 4.06101e-20 2.59757462023905195 0.131865 0 -0.00233897
969 2 3 31.1018 -700.500101365419027 4.04359e-20 2.59757462017437568 0.131297 0 -0.00232814
970 2 3 31.1018 -697.500101365419027 4.02616e-20 2.59757462010969942 0.13073 0 -0.00231732
971 2 3 31.1018 -694.500101365419027 4.00873e-20 2.59757462004502315 0.130162 0 -0.00230649
972 2 3 31.1018 -691.500101365419027 3.9913e-20 2.59757461998034689 0.129595 0 -0.00229567
973 2 3 31.1018 -688.500101365419027 3.97387e-20 2.59757461991567062 0.129028 0 -0.00228484
974 2 3 31.1018 -685.500101365419027 3.95644e-20 2.59757461985099436 0.12846 0 -0.00227401
975 2 3 31.1018 -682.500101365419027 3.93901e-20 2.5975746197863181 0.127893 0 -0.00226319
976 2 3 31.1018 -679.500101365419027 3.92158e-20 2.59757461972164183 0.127325 0 -0.00225236
977 2 3 31.1018 -676.500101365419027 3.90415e-20 2.59757461965696557 0.126758 0 -0.00224154
226 1 3 31.1018 -675 0 0 0 0 0
227 1 3 31.1018 -672 0 0 0 0 0
228 1 3 31.1018 -669 0 0 0 0 0
229 1 3 31.1018 -666 0 0 0 0 0
230 1 3 31.1018 -663 0 0 0 0 0
231 1 3 31.1018 -660 0 0 0 0 0
232 1 3 31.1018 -657 0 0 0 0 0
233 1 3 31.1018 -654 0 0 0 0 0
234 1 3 31.1018 -651 0 0 0 0 0
235 1 3 31.1018 -648 0 0 0 0 0
236 1 3 31.1018 -645 0 0 0 0 0
237 1 3 31.1018 -642 0 0 0 0 0
238 1 3 31.1018 -639 0 0 0 0 0
239 1 3 31.1018 -636 0 0 0 0 0
240 1 3 31.1018 -633 0 0 0 0 0
241 1 3 31.1018 -630 0 0 0 0 0
242 1 3 31.1018 -627 0 0 0 0 0
243 1 3 31.1018 -624 0 0 0 0 0
244 1 3 31.1018 -621 0 0 0 0 0
245 1 3 31.1018 -618 0 0 0 0 0
246 1 3 31.1018 -615 0 0 0 0 0
247 1 3 31.1018 -612 0 0 0 0 0
248 1 3 31.1018 -609 0 0 0 0 0
249 1 3 31.1018 -606 0 0 0 0 0
250 1 3 31.1018 -603 0 0 0 0 0
251 1 3 31.1018 -600 0 0 0 0 0
252 1 3 31.1018 -597 0 0 0 0 0
253 1 3 31.1018 -594 0 0 0 0 0
254 1 3 31.1018 -591 0 0 0 0 0
255 1 3 31.1018 -588 0 0 0 0 0
256 1 3 31.1018 -585 0 0 0 0 0
257 1 3 31.1018 -582 0 0 0 0 0
258 1 3 31.1018 -579 0 0 0 0 0
259 1 3 31.1018 -576 0 0 0 0 0
260 1 3 31.1018 -573 0 0 0 0 0
261 1 3 31.1018 -570 0 0 0 0 0
262 1 3 31.1018 -567 0 0 0 0 0
263 1 3 31.1018 -564 0 0 0 0 0
264 1 3 31.1018 -561 0 0 0 0 0
265 1 3 31.1018 -558 0 0 0 0 0
266 1 3 31.1018 -555 0 0 0 0 0
267 1 3 31.1018 -552 0 0 0 0 0
268 1 3 31.1018 -549 0 0 0 0 0
269 1 3 31.1018 -546 0 0 0 0 0
270 1 3 31.1018 -543 0 0 0 0 0
271 1 3 31.1018 -540 0 0 0 0 0
272 1 3 31.1018 -537 0 0 0 0 0
273 1 3 31.1018 -534 0 0 0 0 0
274 1 3 31.1018 -531 0 0 0 0 0
275 1 3 31.1018 -528 0 0 0 0 0
276 1 3 31.1018 -525 0 0 0 0 0
277 1 3 31.1018 -522 0 0 0 0 0
278 1 3 31.1018 -519 0 0 0 0 0
279 1 3 31.1018 -516 0 0 0 0 0
280 1 3 31.1018 -513 0 0 0 0 0
281 1 3 31.1018 -510 0 0 0 0 0
282 1 3 31.1018 -507 0 0 0 0 0
283 1 3 31.1018 -504 0 0 0 0 0
284 1 3 31.1018 -501 0 0 0 0 0
285 1 3 31.1018 -498 0 0 0 0 0
286 1 3 31.1018 -495 0 0 0 0 0
287 1 3 31.1018 -492 0 0 0 0 0
288 1 3 31.1018 -489 0 0 0 0 0
289 1 3 31.1018 -486 0 0 0 0 0
290 1 3 31.1018 -483 0 0 0 0 0
291 1 3 31.1018 -480 0 0 0 0 0
292 1 3 31.1018 -477 0 0 0 0 0
293 1 3 31.1018 -474 0 0 0 0 0
294 1 3 31.1018 -471 0 0 0 0 0
295 1 3 31.1018 -468 0 0 0 0 0
296 1 3 31.1018 -465 0 0 0 0 0
297 1 3 31.1018 -462 0 0 0 0 0
298 1 3 31.1018 -459 0 0 0 0 0
299 1 3 31.1018 -456 0 0 0 0 0
300 1 3 31.1018 -453 0 0 0 0 0
301 1 3 31.1018 -450 0 0 0 0 0
302 1 3 31.1018 -447 0 0 0 0 0
303 1 3 31.1018 -444 0 0 0 0 0
304 1 3 31.1018 -441 0 0 0 0 0
305 1 3 31.1018 -438 0 0 0 0 0
306 1 3 31.1018 -435 0 0 0 0 0
307 1 3 31.1018 -432 0 0 0 0 0
308 1 3 31.1018 -429 0 0 0 0 0
309 1 3 31.1018 -426 0 0 0 0 0
310 1 3 31.1018 -423 0 0 0 0 0
311 1 3 31.1018 -420 0 0 0 0 0
312 1 3 31.1018 -417 0 0 0 0 0
313 1 3 31.1018 -414 0 0 0 0 0
314 1 3 31.1018 -411 0 0 0 0 0
315 1 3 31.1018 -408 0 0 0 0 0
316 1 3 31.1018 -405 0 0 0 0 0
317 1 3 31.1018 -402 0 0 0 0 0
318 1 3 31.1018 -399 0 0 0 0 0
319 1 3 31.1018 -396 0 0 0 0 0
320 1 3 31.1018 -393 0 0 0 0 0
321 1 3 31.1018 -390 0 0 0 0 0
322 1 3 31.1018 -387 0 0 0 0 0
323 1 3 31.1018 -384 0 0 0 0 0
324 1 3 31.1018 -381 0 0 0 0 0
325 1 3 31.1018 -378 0 0 0 0 0
326 1 3 31.1018 -375 0 0 0 0 0
327 1 3 31.1018 -372 0 0 0 0 0
328 1 3 31.1018 -369 0 0 0 0 0
329 1 3 31.1018 -366 0 0 0 0 0
330 1 3 31.1018 -363 0 0 0 0 0
331 1 3 31.1018 -360 0 0 0 0 0
332 1 3 31.1018 -357 0 0 0 0 0
333 1 3 31.1018 -354 0 0 0 0 0
334 1 3 31.1018 -351 0 0 0 0 0
335 1 3 31.1018 -348 0 0 0 0 0
336 1 3 31.1018 -345 0 0 0 0 0
337 1 3 31.1018 -342 0 0 0 0 0
338 1 3 31.1018 -339 0 0 0 0 0
339 1 3 31.1018 -336 0 0 0 0 0
340 1 3 31.1018 -333 0 0 0 0 0
341 1 3 31.1018 -330 0 0 0 0 0
342 1 3 31.1018 -327 0 0 0 0 0
343 1 3 31.1018 -324 0 0 0 0 0
344 1 3 31.1018 -321 0 0 0 0 0
345 1 3 31.1018 -318 0 0 0 0 0
346 1 3 31.1018 -315 0 0 0 0 0
347 1 3 31.1018 -312 0 0 0 0 0
348 1 3 31.1018 -309 0 0 0 0 0
349 1 3 31.1018 -306 0 0 0 0 0
350 1 3 31.1018 -303 0 0 0 0 0
351 1 3 31.1018 -300 0 0 0 0 0
352 1 3 31.1018 -297 0 0 0 0 0
353 1 3 31.1018 -294 0 0 0 0 0
354 1 3 31.1018 -291 0 0 0 0 0
355 1 3 31.1018 -288 0 0 0 0 0
356 1 3 31.1018 -285 0 0 0 0 0
357 1 3 31.1018 -282 0 0 0 0 0
358 1 3 31.1018 -279 0 0 0 0 0
359 1 3 31.1018 -276 0 0 0 0 0
360 1 3 31.1018 -273 0 0 0 0 0
361 1 3 31.1018 -270 0 0 0 0 0
362 1 3 31.1018 -267 0 0 0 0 0
363 1 3 31.1018 -264 0 0 0 0 0
364 1 3 31.1018 -261 0 0 0 0 0
365 1 3 31.1018 -258 0 0 0 0 0
366 1 3 31.1018 -255 0 0 0 0 0
367 1 3 31.1018 -252 0 0 0 0 0
368 1 3 31.1018 -249 0 0 0 0 0
369 1 3 31.1018 -246 0 0 0 0 0
370 1 3 31.1018 -243 0 0 0 0 0
371 1 3 31.1018 -240 0 0 0 0 0
372 1 3 31.1018 -237 0 0 0 0 0
373 1 3 31.1018 -234 0 0 0 0 0
374 1 3 31.1018 -231 0 0 0 0 0
375 1 3 31.1018 -228 0 0 0 0 0
376 1 3 31.1018 -225 0 0 0 0 0
377 1 3 31.1018 -222 0 0 0 0 0
378 1 3 31.1018 -219 0 0 0 0 0
379 1 3 31.1018 -216 0 0 0 0 0
380 1 3 31.1018 -213 0 0 0 0 0
381 1 3 31.1018 -210 0 0 0 0 0
382 1 3 31.1018 -207 0 0 0 0 0
383 1 3 31.1018 -204 0 0 0 0 0
384 1 3 31.1018 -201 0 0 0 0 0
385 1 3 31.1018 -198 0 0 0 0 0
386 1 3 31.1018 -195 0 0 0 0 0
387 1 3 31.1018 -192 0 0 0 0 0
388 1 3 31.1018 -189 0 0 0 0 0
389 1 3 31.1018 -186 0 0 0 0 0
390 1 3 31.1018 -183 0 0 0 0 0
391 1 3 31.1018 -180 0 0 0 0 0
392 1 3 31.1018 -177 0 0 0 0 0
393 1 3 31.1018 -174 0 0 0 0 0
394 1 3 31.1018 -171 0 0 0 0 0
395 1 3 31.1018 -168 0 0 0 0 0
396 1 3 31.1018 -165 0 0 0 0 0
397 1 3 31.1018 -162 0 0 0 0 0
398 1 3 31.1018 -159 0 0 0 0 0
399 1 3 31.1018 -156 0 0 0 0 0
400 1 3 31.1018 -153 0 0 0 0 0
401 1 3 31.1018 -150 0 0 0 0 0
402 1 3 31.1018 -147 0 0 0 0 0
403 1 3 31.1018 -144 0 0 0 0 0
404 1 3 31.1018 -141 0 0 0 0 0
405 1 3 31.1018 -138 0 0 0 0 0
406 1 3 31.1018 -135 0 0 0 0 0
407 1 3 31.1018 -132 0 0 0 0 0
408 1 3 31.1018 -129 0 0 0 0 0
409 1 3 31.1018 -126 0 0 0 0 0
410 1 3 31.1018 -123 0 0 0 0 0
411 1 3 31.1018 -120 0 0 0 0 0
412 1 3 31.1018 -117 0 0 0 0 0
413 1 3 31.1018 -114 0 0 0 0 0
414 1 3 31.1018 -111 0 0 0 0 0
415 1 3 31.1018 -108 0 0 0 0 0
416 1 3 31.1018 -105 0 0 0 0 0
417 1 3 31.1018 -102 0 0 0 0 0
418 1 3 31.1018 -99 0 0 0 0 0
419 1 3 31.1018 -96 0 0 0 0 0
420 1 3 31.1018 -93 0 0 0 0 0
421 1 3 31.1018 -90 0 0 0 0 0
422 1 3 31.1018 -87 0 0 0 0 0
423 1 3 31.1018 -84 0 0 0 0 0
424 1 3 31.1018 -81 0 0 0 0 0
425 1 3 31.1018 -78 0 0 0 0 0
426 1 3 31.1018 -75 0 0 0 0 0
427 1 3 31.1018 -72 0 0 0 0 0
428 1 3 31.1018 -69 0 0 0 0 0
429 1 3 31.1018 -66 0 0 0 0 0
430 1 3 31.1018 -63 0 0 0 0 0
431 1 3 31.1018 -60 0 0 0 0 0
432 1 3 31.1018 -57 0 0 0 0 0
433 1 3 31.1018 -54 0 0 0 0 0
434 1 3 31.1018 -51 0 0 0 0 0
435 1 3 31.1018 -48 0 0 0 0 0
436 1 3 31.1018 -45 0 0 0 0 0
437 1 3 31.1018 -42 0 0 0 0 0
438 1 3 31.1018 -39 0 0 0 0 0
439 1 3 31.1018 -36 0 0 0 0 0
440 1 3 31.1018 -33 0 0 0 0 0
441 1 3 31.1018 -30 0 0 0 0 0
442 1 3 31.1018 -27 0 0 0 0 0
443 1 3 31.1018 -24 0 0 0 0 0
444 1 3 31.1018 -21 0 0 0 0 0
445 1 3 31.1018 -18 0 0 0 0 0
446 1 3 31.1018 -15 0 0 0 0 0
447 1 3 31.1018 -12 0 0 0 0 0
448 1 3 31.1018 -9 0 0 0 0 0
449 1 3 31.1018 -6 0 0 0 0 0
450 1 3 31.1018 -3 0 0 0 0 0
978 2 3 31.1018 -673.500101365419027 3.88672e-20 2.5975746195922893 0.12619 0 -0.00223071
979 2 3 31.1018 -670.500101365419027 3.86929e-20 2.59757461952761304 0.125623 0 -0.00221989
980 2 3 31.1018 -667.500101365419027 3.85186e-20 2.59757461946293677 0.125056 0 -0.00220906
981 2 3 31.1018 -664.500101365419141 3.83443e-20 2.59757461939826051 0.124488 0 -0.00219822
982 2 3 31.1018 -661.500101365419141 3.817e-20 2.59757461933358424 0.123921 0 -0.00218739
983 2 3 31.1018 -658.500101365419141 3.79958e-20 2.59757461926890798 0.123353 0 -0.00217657
984 2 3 31.1018 -655.500101365419141 3.78215e-20 2.59757461920423172 0.122786 0 -0.00216574
985 2 3 31.1018 -652.500101365419141 3.76472e-20 2.59757461913955545 0.122219 0 -0.00215492
986 2 3 31.1018 -649.500101365419141 3.74729e-20 2.59757461907487919 0.121651 0 -0.00214409
987 2 3 31.1018 -646.500101365419141 3.72986e-20 2.59757461901020292 0.121084 0 -0.00213327
988 2 3 31.1018 -643.500101365419141 3.71243e-20 2.59757461894552666 0.120516 0 -0.00212244
989 2 3 31.1018 -640.500101365419141 3.695e-20 2.59757461888085039 0.119949 0 -0.00211161
990 2 3 31.1018 -637.500101365419141 3.67757e-20 2.59757461881617413 0.119381 0 -0.00210079
991 2 3 31.1018 -634.500101365419141 3.66014e-20 2.59757461875149787 0.118814 0 -0.00208996
992 2 3 31.1018 -631.500101365419141 3.64271e-20 2.5975746186868216 0.118247 0 -0.00207914
993 2 3 31.1018 -628.500101365419141 3.62528e-20 2.59757461862214534 0.117679 0 -0.00206831
994 2 3 31.1018 -625.500101365419141 3.60785e-20 2.59757461855746907 0.117112 0 -0.00205748
995 2 3 31.1018 -622.500101365419255 3.59042e-20 2.59757461849279281 0.116544 0 -0.00204665
996 2 3 31.1018 -619.500101365419255 3.573e-20 2.59757461842811654 0.115977 0 -0.00203582
997 2 3 31.1018 -616.500101365419255 3.55557e-20 2.59757461836344028 0.115409 0 -0.002025
998 2 3 31.1018 -613.500101365419255 3.53814e-20 2.59757461829876402 0.114842 0 -0.00201417
999 2 3 31.1018 -610.500101365419255 3.52071e-20 2.59757461823408775 0.114275 0 -0.00200335
1000 2 3 31.1018 -607.500101365419255 3.50328e-20 2.59757461816941149 0.113707 0 -0.00199252
1001 2 3 31.1018 -604.500101365419255 3.48585e-20 2.59757461810473522 0.11314 0 -0.00198169
1002 2 3 31.1018 -601.500101365419255 3.46842e-20 2.59757461804005896 0.112572 0 -0.00197087
1003 2 3 31.1018 -598.500101365419255 3.45099e-20 2.59757461797538269 0.112005 0 -0.00196004
1004 2 3 31.1018 -595.500101365419255 3.43356e-20 2.59757461791070643 0.111437 0 -0.00194922
1005 2 3 31.1018 -592.500101365419255 3.41613e-20 2.59757461784603016 0.11087 0 -0.00193839
1006 2 3 31.1018 -589.500101365419255 3.3987e-20 2.5975746177813539 0.110303 0 -0.00192756
1007 2 3 31.1018 -586.500101365419255 3.38127e-20 2.59757461771667764 0.109735 0 -0.00191674
1008 2 3 31.1018 -583.500101365419255 3.36384e-20 2.59757461765200137 0.109168 0 -0.00190591
1009 2 3 31.1018 -580.500101365419255 3.34642e-20 2.59757461758732511 0.1086 0 -0.00189509
1010 2 3 31.1018 -577.500101365419368 3.32899e-20 2.59757461752264884 0.108033 0 -0.00188425
1011 2 3 31.1018 -574.500101365419368 3.31156e-20 2.59757461745797258 0.107466 0 -0.00187343
1012 2 3 31.1018 -571.500101365419368 3.29413e-20 2.59757461739329631 0.106898 0 -0.0018626
1013 2 3 31.1018 -568.500101365419368 3.2767e-20 2.59757461732862005 0.106331 0 -0.00185177
1014 2 3 31.1018 -565.500101365419368 3.25927e-20 2.59757461726394379 0.105763 0 -0.00184095
1015 2 3 31.1018 -562.500101365419368 3.24184e-20 2.59757461719926752 0.105196 0 -0.00183012
1016 2 3 31.1018 -559.500101365419368 3.22441e-20 2.59757461713459126 0.104628 0 -0.0018193
1017 2 3 31.1018 -556.500101365419368 3.20698e-20 2.59757461706991499 0.104061 0 -0.00180847
1018 2 3 31.1018 -553.500101365419368 3.18955e-20 2.59757461700523873 0.103493 0 -0.00179765
1019 2 3 31.1018 -550.500101365419368 3.17212e-20 2.59757461694056246 0.102926 0 -0.00178682
1020 2 3 31.1018 -547.500101365419368 3.15469e-20 2.5975746168758862 0.102359 0 -0.001776
1021 2 3 31.1018 -544.500101365419368 3.13726e-20 2.59757461681120994 0.101791 0 -0.00176517
1022 2 3 31.1018 -541.500101365419368 3.11984e-20 2.59757461674653367 0.101224 0 -0.00175435
1023 2 3 31.1018 -538.500101365419368 3.10241e-20 2.59757461668185741 0.100656 0 -0.00174352
1024 2 3 31.1018 -535.500101365419482 3.08498e-20 2.59757461661718114 0.100089 0 -0.00173269
1025 2 3 31.1018 -532.500101365419482 3.06755e-20 2.59757461655250488 0.0995216 0 -0.00172186
1026 2 3 31.1018 -529.500101365419482 3.05012e-20 2.59757461648782861 0.0989541 0 -0.00171103
1027 2 3 31.1018 -526.500101365419482 3.03269e-20 2.59757461642315235 0.0983867 0 -0.00170021
1028 2 3 31.1018 -523.500101365419482 3.01526e-20 2.59757461635847609 0.0978193 0 -0.00168938
1029 2 3 31.1018 -520.500101365419482 2.99783e-20 2.59757461629379982 0.0972518 0 -0.00167856
1030 2 3 31.1018 -517.500101365419482 2.9804e-20 2.59757461622912356 0.0966844 0 -0.00166773
1031 2 3 31.1018 -514.500101365419482 2.96297e-20 2.59757461616444729 0.096117 0 -0.00165691
1032 2 3 31.1018 -511.500101365419539 2.94554e-20 2.59757461609977103 0.0955496 0 -0.00164608
1033 2 3 31.1018 -508.500101365419539 2.92811e-20 2.59757461603509476 0.0949821 0 -0.00163525
1034 2 3 31.1018 -505.500101365419596 2.91068e-20 2.5975746159704185 0.0944148 0 -0.00162442
1035 2 3 31.1018 -502.500101365419596 2.89325e-20 2.59757461590574223 0.0938473 0 -0.0016136
1036 2 3 31.1018 -499.500101365419596 2.87583e-20 2.59757461584106597 0.0932799 0 -0.00160277
1037 2 3 31.1018 -496.500101365419596 2.8584e-20 2.59757461577638971 0.0927125 0 -0.00159195
1038 2 3 31.1018 -493.500101365419596 2.84097e-20 2.59757461571171344 0.092145 0 -0.00158112
1039 2 3 31.1018 -490.500101365419596 2.82354e-20 2.59757461564703718 0.0915776 0 -0.0015703
1040 2 3 31.1018 -487.500101365419596 2.80611e-20 2.59757461558236091 0.0910101 0 -0.00155947
1041 2 3 31.1018 -484.500101365419596 2.78868e-20 2.59757461551768465 0.0904427 0 -0.00154865
1042 2 3 31.1018 -481.500101365419653 2.77125e-20 2.59757461545300838 0.0898753 0 -0.00153782
1043 2 3 31.1018 -478.500101365419653 2.75382e-20 2.59757461538833212 0.0893079 0 -0.00152699
1044 2 3 31.1018 -475.500101365419653 2.73639e-20 2.59757461532365586 0.0887405 0 -0.00151617
1045 2 3 31.1018 -472.500101365419653 2.71896e-20 2.59757461525897959 0.088173 0 -0.00150534
1046 2 3 31.1018 -469.500101365419653 2.70153e-20 2.59757461519430333 0.0876056 0 -0.00149452
1047 2 3 31.1018 -466.500101365419653 2.6841e-20 2.59757461512962706 0.0870382 0 -0.00148369
1048 2 3 31.1018 -463.500101365419653 2.66667e-20 2.5975746150649508 0.0864707 0 -0.00147287
1049 2 3 31.1018 -460.50010136541971 2.64925e-20 2.59757461500027453 0.0859033 0 -0.00146204
1050 2 3 31.1018 -457.50010136541971 2.63182e-20 2.59757461493559827 0.0853359 0 -0.00145121
1051 2 3 31.1018 -454.50010136541971 2.61439e-20 2.59757461487092201 0.0847685 0 -0.00144039
1052 2 3 31.1018 -451.50010136541971 2.59696e-20 2.59757461480624574 0.084201 0 -0.00142956
1053 2 3 31.1018 -448.50010136541971 2.57953e-20 2.59757461474156948 0.0836336 0 -0.00141874
1054 2 3 31.1018 -445.50010136541971 2.5621e-20 2.59757461467689321 0.0830662 0 -0.00140788
1055 2 3 31.1018 -442.50010136541971 2.54467e-20 2.59757461461221695 0.0824989 0 -0.001397
1056 2 3 31.1018 -439.500101365419766 2.52724e-20 2.59757461454754068 0.0819316 0 -0.00138611
1057 2 3 31.1018 -436.500101365419766 2.50981e-20 2.59757461448286442 0.0813642 0 -0.00137524
1058 2 3 31.1018 -433.500101365419766 2.49238e-20 2.59757461441818815 0.0807969 0 -0.00136436
1059 2 3 31.1018 -430.500101365419766 2.47495e-20 2.59757461435351189 0.0802295 0 -0.00135348
1060 2 3 31.1018 -427.500101365419766 2.45752e-20 2.59757461428883563 0.0796622 0 -0.0013426
1061 2 3 31.1018 -424.500101365419766 2.44009e-20 2.59757461422415936 0.0790949 0 -0.00133172
1062 2 3 31.1018 -421.500101365419766 2.42267e-20 2.5975746141594831 0.0785275 0 -0.00132084
1063 2 3 31.1018 -418.500101365419823 2.40524e-20 2.59757461409480683 0.0779602 0 -0.00130996
1064 2 3 31.1018 -415.500101365419823 2.38781e-20 2.59757461403013057 0.0773929 0 -0.00129908
1065 2 3 31.1018 -412.500101365419823 2.37038e-20 2.5975746139654543 0.0768255 0 -0.0012882
1066 2 3 31.1018 -409.500101365419823 2.35295e-20 2.59757461390077804 0.0762582 0 -0.00127733
1067 2 3 31.1018 -406.500101365419823 2.33552e-20 2.59757461383610178 0.0756908 0 -0.00126645
1068 2 3 31.1018 -403.500101365419823 2.31809e-20 2.59757461377142551 0.0751235 0 -0.00125557
1069 2 3 31.1018 -400.500101365419823 2.30066e-20 2.59757461370674925 0.0745562 0 -0.00124469
1070 2 3 31.1018 -397.50010136541988 2.28323e-20 2.59757461364207298 0.0739889 0 -0.00123381
1071 2 3 31.1018 -394.50010136541988 2.2658e-20 2.59757461357739672 0.0734215 0 -0.00122293