ITEM: TIMESTEP
4400000
ITEM: NUMBER OF ATOMS
1501
ITEM: BOX BOUNDS pp pp pp
-1.3500000000000000e+03 1.3500000000000000e+03
-1.0000000000000000e+02 1.0000000000000000e+02
-1.0000000000000000e+02 1.0000000000000000e+02
ITEM: ATOMS id type diameter mass xu yu zu fx fy fz
1 1 3 31.1018 -1350 0 0 0 0 0
2 1 3 31.1018 -1347 0 0 0 0 0
3 1 3 31.1018 -1344 0 0 0 0 0
4 1 3 31.1018 -1341 0 0 0 0 0
5 1 3 31.1018 -1338 0 0 0 0 0
6 1 3 31.1018 -1335 0 0 0 0 0
7 1 3 31.1018 -1332 0 0 0 0 0
8 1 3 31.1018 -1329 0 0 0 0 0
9 1 3 31.1018 -1326 0 0 0 0 0
10 1 3 31.1018 -1323 0 0 0 0 0
11 1 3 31.1018 -1320 0 0 0 0 0
12 1 3 31.1018 -1317 0 0 0 0 0
13 1 3 31.1018 -1314 0 0 0 0 0
14 1 3 31.1018 -1311 0 0 0 0 0
15 1 3 31.1018 -1308 0 0 0 0 0
16 1 3 31.1018 -1305 0 0 0 0 0
17 1 3 31.1018 -1302 0 0 0 0 0
18 1 3 31.1018 -1299 0 0 0 0 0
19 1 3 31.1018 -1296 0 0 0 0 0
20 1 3 31.1018 -1293 0 0 0 0 0
21 1 3 31.1018 -1290 0 0 0 0 0
22 1 3 31.1018 -1287 0 0 0 0 0
23 1 3 31.1018 -1284 0 0 0 0 0
24 1 3 31.1018 -1281 0 0 0 0 0
25 1 3 31.1018 -1278 0 0 0 0 0
26 1 3 31.1018 -1275 0 0 0 0 0
27 1 3 31.1018 -1272 0 0 0 0 0
28 1 3 31.1018 -1269 0 0 0 0 0
29 1 3 31.1018 -1266 0 0 0 0 0
30 1 3 31.1018 -1263 0 0 0 0 0
31 1 3 31.1018 -1260 0 0 0 0 0
32 1 3 31.1018 -1257 0 0 0 0 0
33 1 3 31.1018 -1254 0 0 0 0 0
34 1 3 31.1018 -1251 0 0 0 0 0
35 1 3 31.1018 -1248 0 0 0 0 0
36 1 3 31.1018 -1245 0 0 0 0 0
37 1 3 31.1018 -1242 0 0 0 0 0
38 1 3 31.1018 -1239 0 0 0 0 0
39 1 3 31.1018 -1236 0 0 0 0 0
40 1 3 31.1018 -1233 0 0 0 0 0
41 1 3 31.1018 -1230 0 0 0 0 0
42 1 3 31.1018 -1227 0 0 0 0 0
43 1 3 31.1018 -1224 0 0 0 0 0
44 1 3 31.1018 -1221 0 0 0 0 0
45 1 3 31.1018 -1218 0 0 0 0 0
46 1 3 31.1018 -1215 0 0 0 0 0
47 1 3 31.1018 -1212 0 0 0 0 0
48 1 3 31.1018 -1209 0 0 0 0 0
49 1 3 31.1018 -1206 0 0 0 0 0
50 1 3 31.1018 -1203 0 0 0 0 0
51 1 3 31.1018 -1200 0 0 0 0 0
52 1 3 31.1018 -1197 0 0 0 0 0
53 1 3 31.1018 -1194 0 0 0 0 0
54 1 3 31.1018 -1191 0 0 0 0 0
55 1 3 31.1018 -1188 0 0 0 0 0
56 1 3 31.1018 -1185 0 0 0 0 0
57 1 3 31.1018 -1182 0 0 0 0 0
58 1 3 31.1018 -1179 0 0 0 0 0
59 1 3 31.1018 -1176 0 0 0 0 0
60 1 3 31.1018 -1173 0 0 0 0 0
61 1 3 31.1018 -1170 0 0 0 0 0
62 1 3 31.1018 -1167 0 0 0 0 0
63 1 3 31.1018 -1164 0 0 0 0 0
64 1 3 31.1018 -1161 0 0 0 0 0
65 1 3 31.1018 -1158 0 0 0 0 0
66 1 3 31.1018 -1155 0 0 0 0 0
67 1 3 31.1018 -1152 0 0 0 0 0
68 1 3 31.1018 -1149 0 0 0 0 0
69 1 3 31.1018 -1146 0 0 0 0 0
70 1 3 31.1018 -1143 0 0 0 0 0
71 1 3 31.1018 -1140 0 0 0 0 0
72 1 3 31.1018 -1137 0 0 0 0 0
73 1 3 31.1018 -1134 0 0 0 0 0
74 1 3 31.1018 -1131 0 0 0 0 0
75 1 3 31.1018 -1128 0 0 0 0 0
76 1 3 31.1018 -1125 0 0 0 0 0
77 1 3 31.1018 -1122 0 0 0 0 0
78 1 3 31.1018 -1119 0 0 0 0 0
79 1 3 31.1018 -1116 0 0 0 0 0
80 1 3 31.1018 -1113 0 0 0 0 0
81 1 3 31.1018 -1110 0 0 0 0 0
82 1 3 31.1018 -1107 0 0 0 0 0
83 1 3 31.1018 -1104 0 0 0 0 0
84 1 3 31.1018 -1101 0 0 0 0 0
85 1 3 31.1018 -1098 0 0 0 0 0
86 1 3 31.1018 -1095 0 0 0 0 0
87 1 3 31.1018 -1092 0 0 0 0 0
88 1 3 31.1018 -1089 0 0 0 0 0
89 1 3 31.1018 -1086 0 0 0 0 0
90 1 3 31.1018 -1083 0 0 0 0 0
91 1 3 31.1018 -1080 0 0 0 0 0
92 1 3 31.1018 -1077 0 0 0 0 0
93 1 3 31.1018 -1074 0 0 0 0 0
94 1 3 31.1018 -1071 0 0 0 0 0
95 1 3 31.1018 -1068 0 0 0 0 0
96 1 3 31.1018 -1065 0 0 0 0 0
97 1 3 31.1018 -1062 0 0 0 0 0
98 1 3 31.1018 -1059 0 0 0 0 0
99 1 3 31.1018 -1056 0 0 0 0 0
100 1 3 31.1018 -1053 0 0 0 0 0
101 1 3 31.1018 -1050 0 0 0 0 0
102 1 3 31.1018 -1047 0 0 0 0 0
103 1 3 31.1018 -1044 0 0 0 0 0
104 1 3 31.1018 -1041 0 0 0 0 0
105 1 3 31.1018 -1038 0 0 0 0 0
106 1 3 31.1018 -1035 0 0 0 0 0
107 1 3 31.1018 -1032 0 0 0 0 0
108 1 3 31.1018 -1029 0 0 0 0 0
109 1 3 31.1018 -1026 0 0 0 0 0
110 1 3 31.1018 -1023 0 0 0 0 0
111 1 3 31.1018 -1020 0 0 0 0 0
112 1 3 31.1018 -1017 0 0 0 0 0
113 1 3 31.1018 -1014 0 0 0 0 0
114 1 3 31.1018 -1011 0 0 0 0 0
115 1 3 31.1018 -1008 0 0 0 0 0
116 1 3 31.1018 -1005 0 0 0 0 0
117 1 3 31.1018 -1002 0 0 0 0 0
118 1 3 31.1018 -999 0 0 0 0 0
119 1 3 31.1018 -996 0 0 0 0 0
120 1 3 31.1018 -993 0 0 0 0 0
121 1 3 31.1018 -990 0 0 0 0 0
122 1 3 31.1018 -987 0 0 0 0 0
123 1 3 31.1018 -984 0 0 0 0 0
124 1 3 31.1018 -981 0 0 0 0 0
125 1 3 31.1018 -978 0 0 0 0 0
126 1 3 31.1018 -975 0 0 0 0 0
127 1 3 31.1018 -972 0 0 0 0 0
128 1 3 31.1018 -969 0 0 0 0 0
129 1 3 31.1018 -966 0 0 0 0 0
130 1 3 31.1018 -963 0 0 0 0 0
131 1 3 31.1018 -960 0 0 0 0 0
132 1 3 31.1018 -957 0 0 0 0 0
133 1 3 31.1018 -954 0 0 0 0 0
134 1 3 31.1018 -951 0 0 0 0 0
135 1 3 31.1018 -948 0 0 0 0 0
136 1 3 31.1018 -945 0 0 0 0 0
137 1 3 31.1018 -942 0 0 0 0 0
138 1 3 31.1018 -939 0 0 0 0 0
139 1 3 31.1018 -936 0 0 0 0 0
140 1 3 31.1018 -933 0 0 0 0 0
141 1 3 31.1018 -930 0 0 0 0 0
142 1 3 31.1018 -927 0 0 0 0 0
143 1 3 31.1018 -924 0 0 0 0 0
144 1 3 31.1018 -921 0 0 0 0 0
145 1 3 31.1018 -918 0 0 0 0 0
146 1 3 31.1018 -915 0 0 0 0 0
147 1 3 31.1018 -912 0 0 0 0 0
148 1 3 31.1018 -909 0 0 0 0 0
149 1 3 31.1018 -906 0 0 0 0 0
150 1 3 31.1018 -903 0 0 0 0 0
151 1 3 31.1018 -900 0 0 0 0 0
152 1 3 31.1018 -897 0 0 0 0 0
153 1 3 31.1018 -894 0 0 0 0 0
154 1 3 31.1018 -891 0 0 0 0 0
155 1 3 31.1018 -888 0 0 0 0 0
156 1 3 31.1018 -885 0 0 0 0 0
157 1 3 31.1018 -882 0 0 0 0 0
158 1 3 31.1018 -879 0 0 0 0 0
159 1 3 31.1018 -876 0 0 0 0 0
160 1 3 31.1018 -873 0 0 0 0 0
161 1 3 31.1018 -870 0 0 0 0 0
162 1 3 31.1018 -867 0 0 0 0 0
163 1 3 31.1018 -864 0 0 0 0 0
164 1 3 31.1018 -861 0 0 0 0 0
165 1 3 31.1018 -858 0 0 0 0 0
166 1 3 31.1018 -855 0 0 0 0 0
167 1 3 31.1018 -852 0 0 0 0 0
168 1 3 31.1018 -849 0 0 0 0 0
169 1 3 31.1018 -846 0 0 0 0 0
170 1 3 31.1018 -843 0 0 0 0 0
171 1 3 31.1018 -840 0 0 0 0 0
172 1 3 31.1018 -837 0 0 0 0 0
173 1 3 31.1018 -834 0 0 0 0 0
174 1 3 31.1018 -831 0 0 0 0 0
175 1 3 31.1018 -828 0 0 0 0 0
176 1 3 31.1018 -825 0 0 0 0 0
177 1 3 31.1018 -822 0 0 0 0 0
178 1 3 31.1018 -819 0 0 0 0 0
179 1 3 31.1018 -816 0 0 0 0 0
180 1 3 31.1018 -813 0 0 0 0 0
181 1 3 31.1018 -810 0 0 0 0 0
182 1 3 31.1018 -807 0 0 0 0 0
183 1 3 31.1018 -804 0 0 0 0 0
184 1 3 31.1018 -801 0 0 0 0 0
185 1 3 31.1018 -798 0 0 0 0 0
186 1 3 31.1018 -795 0 0 0 0 0
187 1 3 31.1018 -792 0 0 0 0 0
188 1 3 31.1018 -789 0 0 0 0 0
189 1 3 31.1018 -786 0 0 0 0 0
190 1 3 31.1018 -783 0 0 0 0 0
191 1 3 31.1018 -780 0 0 0 0 0
192 1 3 31.1018 -777 0 0 0 0 0
193 1 3 31.1018 -774 0 0 0 0 0
194 1 3 31.1018 -771 0 0 0 0 0
195 1 3 31.1018 -768 0 0 0 0 0
196 1 3 31.1018 -765 0 0 0 0 0
197 1 3 31.1018 -762 0 0 0 0 0
198 1 3 31.1018 -759 0 0 0 0 0
199 1 3 31.1018 -756 0 0 0 0 0
200 1 3 31.1018 -753 0 0 0 0 0
201 1 3 31.1018 -750 0 0 0 0 0
202 1 3 31.1018 -747 0 0 0 0 0
203 1 3 31.1018 -744 0 0 0 0 0
204 1 3 31.1018 -741 0 0 0 0 0
205 1 3 31.1018 -738 0 0 0 0 0
206 1 3 31.1018 -735 0 0 0 0 0
207 1 3 31.1018 -732 0 0 0 0 0
208 1 3 31.1018 -729 0 0 0 0 0
209 1 3 31.1018 -726 0 0 0 0 0
210 1 3 31.1018 -723 0 0 0 0 0
211 1 3 31.1018 -720 0 0 0 0 0
212 1 3 31.1018 -717 0 0 0 0 0
213 1 3 31.1018 -714 0 0 0 0 0
214 1 3 31.1018 -711 0 0 0 0 0
215 1 3 31.1018 -708 0 0 0 0 0
216 1 3 31.1018 -705 0 0 0 0 0
217 1 3 31.1018 -702 0 0 0 0 0
218 1 3 31.1018 -699 0 0 0 0 0
219 1 3 31.1018 -696 0 0 0 0 0
220 1 3 31.1018 -693 0 0 0 0 0
221 1 3 31.1018 -690 0 0 0 0 0
222 1 3 31.1018 -687 0 0 0 0 0
223 1 3 31.1018 -684 0 0 0 0 0
224 1 3 31.1018 -681 0 0 0 0 0
225 1 3 31.1018 -678 0 0 0 0 0
901 2 3 31.1018 -904.500101365420619 5.22877e-20 2.5975746245724034 0.169874 0 -0.00305602
902 2 3 31.1018 -901.500101365420619 5.21134e-20 2.59757462450772714 0.169307 0 -0.00304534
903 2 3 31.1018 -898.500101365420619 5.19392e-20 2.59757462444305087 0.16874 0 -0.00303465
904 2 3 31.1018 -895.500101365420619 5.17649e-20 2.59757462437837461 0.168172 0 -0.00302397
905 2 3 31.1018 -892.500101365420619 5.15906e-20 2.59757462431369834 0.167605 0 -0.00301328
906 2 3 31.1018 -889.500101365420619 5.14163e-20 2.59757462424902208 0.167038 0 -0.0030026
907 2 3 31.1018 -886.500101365420619 5.1242e-20 2.59757462418434582 0.166471 0 -0.00299192
908 2 3 31.1018 -883.500101365420619 5.10677e-20 2.59757462411966955 0.165904 0 -0.00298123
909 2 3 31.1018 -880.500101365420619 5.08934e-20 2.59757462405499329 0.165336 0 -0.00297055
910 2 3 31.1018 -877.500101365420733 5.07191e-20 2.59757462399031702 0.164769 0 -0.00295985
911 2 3 31.1018 -874.500101365420733 5.05448e-20 2.59757462392564076 0.164202 0 -0.00294917
912 2 3 31.1018 -871.500101365420733 5.03705e-20 2.59757462386096449 0.163635 0 -0.00293849
913 2 3 31.1018 -868.500101365420733 5.01962e-20 2.59757462379628823 0.163068 0 -0.0029278
914 2 3 31.1018 -865.500101365420733 5.00219e-20 2.59757462373161196 0.162501 0 -0.00291712
915 2 3 31.1018 -862.500101365420733 4.98476e-20 2.5975746236669357 0.161934 0 -0.00290644
916 2 3 31.1018 -859.500101365420733 4.96734e-20 2.59757462360225944 0.161366 0 -0.00289575
917 2 3 31.1018 -856.500101365420733 4.94991e-20 2.59757462353758317 0.160799 0 -0.00288507
918 2 3 31.1018 -853.500101365420733 4.93248e-20 2.59757462347290691 0.160232 0 -0.00287438
919 2 3 31.1018 -850.500101365420733 4.91505e-20 2.59757462340823064 0.159665 0 -0.0028637
920 2 3 31.1018 -847.500101365420733 4.89762e-20 2.59757462334355438 0.159098 0 -0.00285302
921 2 3 31.1018 -844.500101365420733 4.88019e-20 2.59757462327887811 0.158531 0 -0.00284233
922 2 3 31.1018 -841.500101365420733 4.86276e-20 2.59757462321420185 0.157963 0 -0.00283165
923 2 3 31.1018 -838.500101365420733 4.84533e-20 2.59757462314952559 0.157396 0 -0.00282097
924 2 3 31.1018 -835.500101365420846 4.8279e-20 2.59757462308484932 0.156829 0 -0.00281027
925 2 3 31.1018 -832.500101365420846 4.81047e-20 2.59757462302017306 0.156262 0 -0.00279959
926 2 3 31.1018 -829.500101365420846 4.79304e-20 2.59757462295549679 0.155695 0 -0.0027889
927 2 3 31.1018 -826.500101365420846 4.77561e-20 2.59757462289082053 0.155128 0 -0.00277822
928 2 3 31.1018 -823.500101365420846 4.75818e-20 2.59757462282614426 0.15456 0 -0.00276754
929 2 3 31.1018 -820.500101365420846 4.74075e-20 2.597574622761468 0.153993 0 -0.00275685
930 2 3 31.1018 -817.500101365420846 4.72333e-20 2.59757462269679174 0.153426 0 -0.00274617
931 2 3 31.1018 -814.500101365420846 4.7059e-20 2.59757462263211547 0.152859 0 -0.00273549
932 2 3 31.1018 -811.500101365420846 4.68847e-20 2.59757462256743921 0.152292 0 -0.0027248
933 2 3 31.1018 -808.500101365420846 4.67104e-20 2.59757462250276294 0.151725 0 -0.00271412
934 2 3 31.1018 -805.500101365420846 4.65361e-20 2.59757462243808668 0.151157 0 -0.00270344
935 2 3 31.1018 -802.500101365420846 4.63618e-20 2.59757462237341041 0.15059 0 -0.00269275
936 2 3 31.1018 -799.500101365420846 4.61875e-20 2.59757462230873415 0.150023 0 -0.00268207
937 2 3 31.1018 -796.500101365420846 4.60132e-20 2.59757462224405788 0.149456 0 -0.00267139
938 2 3 31.1018 -793.50010136542096 4.58389e-20 2.59757462217938162 0.148889 0 -0.00266069
939 2 3 31.1018 -790.50010136542096 4.56646e-20 2.59757462211470536 0.148322 0 -0.00265001
940 2 3 31.1018 -787.50010136542096 4.54903e-20 2.59757462205002909 0.147754 0 -0.00263933
941 2 3 31.1018 -784.50010136542096 4.5316e-20 2.59757462198535283 0.147187 0 -0.00262864
942 2 3 31.1018 -781.50010136542096 4.51417e-20 2.59757462192067656 0.14662 0 -0.00261796
943 2 3 31.1018 -778.50010136542096 4.49675e-20 2.5975746218560003 0.146053 0 -0.00260728
944 2 3 31.1018 -775.50010136542096 4.47932e-20 2.59757462179132403 0.145486 0 -0.00259659
945 2 3 31.1018 -772.50010136542096 4.46189e-20 2.59757462172664777 0.144919 0 -0.00258591
946 2 3 31.1018 -769.50010136542096 4.44446e-20 2.59757462166197151 0.144351 0 -0.00257523
947 2 3 31.1018 -766.50010136542096 4.42703e-20 2.59757462159729524 0.143784 0 -0.00256454
948 2 3 31.1018 -763.50010136542096 4.4096e-20 2.59757462153261898 0.143217 0 -0.00255386
949 2 3 31.1018 -760.50010136542096 4.39217e-20 2.59757462146794271 0.14265 0 -0.00254318
950 2 3 31.1018 -757.50010136542096 4.37474e-20 2.59757462140326645 0.142083 0 -0.00253249
951 2 3 31.1018 -754.50010136542096 4.35731e-20 2.59757462133859018 0.141515 0 -0.00252181
952 2 3 31.1018 -751.50010136542096 4.33988e-20 2.59757462127391392 0.140948 0 -0.00251113
953 2 3 31.1018 -748.500101365421074 4.32245e-20 2.59757462120923766 0.140381 0 -0.00250043
954 2 3 31.1018 -745.500101365421074 4.30502e-20 2.59757462114456139 0.139814 0 -0.00248975
955 2 3 31.1018 -742.500101365421074 4.28759e-20 2.59757462107988513 0.139247 0 -0.00247907
956 2 3 31.1018 -739.500101365421074 4.27017e-20 2.59757462101520886 0.13868 0 -0.00246838
957 2 3 31.1018 -736.500101365421074 4.25274e-20 2.5975746209505326 0.138112 0 -0.0024577
958 2 3 31.1018 -733.500101365421074 4.23531e-20 2.59757462088585633 0.137545 0 -0.00244702
959 2 3 31.1018 -730.500101365421074 4.21788e-20 2.59757462082118007 0.136978 0 -0.00243633
960 2 3 31.1018 -727.500101365421074 4.20045e-20 2.5975746207565038 0.136411 0 -0.00242565
961 2 3 31.1018 -724.500101365421074 4.18302e-20 2.59757462069182754 0.135844 0 -0.00241497
962 2 3 31.1018 -721.500101365421074 4.16559e-20 2.59757462062715128 0.135277 0 -0.00240429
963 2 3 31.1018 -718.500101365421074 4.14816e-20 2.59757462056247501 0.134709 0 -0.0023936
964 2 3 31.1018 -715.500101365421074 4.13073e-20 2.59757462049779875 0.134142 0 -0.00238278
965 2 3 31.1018 -712.500101365421074 4.1133e-20 2.59757462043312248 0.133575 0 -0.00237195
966 2 3 31.1018 -709.500101365421074 4.09587e-20 2.59757462036844622 0.133007 0 -0.00236113
967 2 3 31.1018 -706.500101365421187 4.07844e-20 2.59757462030376995 0.13244 0 -0.00235029
968 2 3 31.1018 -703.500101365421187 4.06101e-20 2.59757462023909369 0.131872 0 -0.00233946
969 2 3 31.1018 -700.500101365421187 4.04359e-20 2.59757462017441743 0.131305 0 -0.00232863
970 2 3 31.1018 -697.500101365421187 4.02616e-20 2.59757462010974116 0.130738 0 -0.0023178
971 2 3 31.1018 -694.500101365421187 4.00873e-20 2.5975746200450649 0.13017 0 -0.00230698
972 2 3 31.1018 -691.500101365421187 3.9913e-20 2.59757461998038863 0.129603 0 -0.00229615
973 2 3 31.1018 -688.500101365421187 3.97387e-20 2.59757461991571237 0.129035 0 -0.00228532
974 2 3 31.1018 -685.500101365421187 3.95644e-20 2.5975746198510361 0.128468 0 -0.00227449
975 2 3 31.1018 -682.500101365421187 3.93901e-20 2.59757461978635984 0.1279 0 -0.00226367
976 2 3 31.1018 -679.500101365421187 3.92158e-20 2.59757461972168358 0.127333 0 -0.00225284
977 2 3 31.1018 -676.500101365421187 3.90415e-20 2.59757461965700731 0.126766 0 -0.00224201
226 1 3 31.1018 -675 0 0 0 0 0
227 1 3 31.1018 -672 0 0 0 0 0
228 1 3 31.1018 -669 0 0 0 0 0
229 1 3 31.1018 -666 0 0 0 0 0
230 1 3 31.1018 -663 0 0 0 0 0
231 1 3 31.1018 -660 0 0 0 0 0
232 1 3 31.1018 -657 0 0 0 0 0
233 1 3 31.1018 -654 0 0 0 0 0
234 1 3 31.1018 -651 0 0 0 0 0
235 1 3 31.1018 -648 0 0 0 0 0
236 1 3 31.1018 -645 0 0 0 0 0
237 1 3 31.1018 -642 0 0 0 0 0
238 1 3 31.1018 -639 0 0 0 0 0
239 1 3 31.1018 -636 0 0 0 0 0
240 1 3 31.1018 -633 0 0 0 0 0
241 1 3 31.1018 -630 0 0 0 0 0
242 1 3 31.1018 -627 0 0 0 0 0
243 1 3 31.1018 -624 0 0 0 0 0
244 1 3 31.1018 -621 0 0 0 0 0
245 1 3 31.1018 -618 0 0 0 0 0
246 1 3 31.1018 -615 0 0 0 0 0
247 1 3 31.1018 -612 0 0 0 0 0
248 1 3 31.1018 -609 0 0 0 0 0
249 1 3 31.1018 -606 0 0 0 0 0
250 1 3 31.1018 -603 0 0 0 0 0
251 1 3 31.1018 -600 0 0 0 0 0
252 1 3 31.1018 -597 0 0 0 0 0
253 1 3 31.1018 -594 0 0 0 0 0
254 1 3 31.1018 -591 0 0 0 0 0
255 1 3 31.1018 -588 0 0 0 0 0
256 1 3 31.1018 -585 0 0 0 0 0
257 1 3 31.1018 -582 0 0 0 0 0
258 1 3 31.1018 -579 0 0 0 0 0
259 1 3 31.1018 -576 0 0 0 0 0
260 1 3 31.1018 -573 0 0 0 0 0
261 1 3 31.1018 -570 0 0 0 0 0
262 1 3 31.1018 -567 0 0 0 0 0
263 1 3 31.1018 -564 0 0 0 0 0
264 1 3 31.1018 -561 0 0 0 0 0
265 1 3 31.1018 -558 0 0 0 0 0
266 1 3 31.1018 -555 0 0 0 0 0
267 1 3 31.1018 -552 0 0 0 0 0
268 1 3 31.1018 -549 0 0 0 0 0
269 1 3 31.1018 -546 0 0 0 0 0
270 1 3 31.1018 -543 0 0 0 0 0
271 1 3 31.1018 -540 0 0 0 0 0
272 1 3 31.1018 -537 0 0 0 0 0
273 1 3 31.1018 -534 0 0 0 0 0
274 1 3 31.1018 -531 0 0 0 0 0
275 1 3 31.1018 -528 0 0 0 0 0
276 1 3 31.1018 -525 0 0 0 0 0
277 1 3 31.1018 -522 0 0 0 0 0
278 1 3 31.1018 -519 0 0 0 0 0
279 1 3 31.1018 -516 0 0 0 0 0
280 1 3 31.1018 -513 0 0 0 0 0
281 1 3 31.1018 -510 0 0 0 0 0
282 1 3 31.1018 -507 0 0 0 0 0
283 1 3 31.1018 -504 0 0 0 0 0
284 1 3 31.1018 -501 0 0 0 0 0
285 1 3 31.1018 -498 0 0 0 0 0
286 1 3 31.1018 -495 0 0 0 0 0
287 1 3 31.1018 -492 0 0 0 0 0
288 1 3 31.1018 -489 0 0 0 0 0
289 1 3 31.1018 -486 0 0 0 0 0
290 1 3 31.1018 -483 0 0 0 0 0
291 1 3 31.1018 -480 0 0 0 0 0
292 1 3 31.1018 -477 0 0 0 0 0
293 1 3 31.1018 -474 0 0 0 0 0
294 1 3 31.1018 -471 0 0 0 0 0
295 1 3 31.1018 -468 0 0 0 0 0
296 1 3 31.1018 -465 0 0 0 0 0
297 1 3 31.1018 -462 0 0 0 0 0
298 1 3 31.1018 -459 0 0 0 0 0
299 1 3 31.1018 -456 0 0 0 0 0
300 1 3 31.1018 -453 0 0 0 0 0
301 1 3 31.1018 -450 0 0 0 0 0
302 1 3 31.1018 -447 0 0 0 0 0
303 1 3 31.1018 -444 0 0 0 0 0
304 1 3 31.1018 -441 0 0 0 0 0
305 1 3 31.1018 -438 0 0 0 0 0
306 1 3 31.1018 -435 0 0 0 0 0
307 1 3 31.1018 -432 0 0 0 0 0
308 1 3 31.1018 -429 0 0 0 0 0
309 1 3 31.1018 -426 0 0 0 0 0
310 1 3 31.1018 -423 0 0 0 0 0
311 1 3 31.1018 -420 0 0 0 0 0
312 1 3 31.1018 -417 0 0 0 0 0
313 1 3 31.1018 -414 0 0 0 0 0
314 1 3 31.1018 -411 0 0 0 0 0
315 1 3 31.1018 -408 0 0 0 0 0
316 1 3 31.1018 -405 0 0 0 0 0
317 1 3 31.1018 -402 0 0 0 0 0
318 1 3 31.1018 -399 0 0 0 0 0
319 1 3 31.1018 -396 0 0 0 0 0
320 1 3 31.1018 -393 0 0 0 0 0
321 1 3 31.1018 -390 0 0 0 0 0
322 1 3 31.1018 -387 0 0 0 0 0
323 1 3 31.1018 -384 0 0 0 0 0
324 1 3 31.1018 -381 0 0 0 0 0
325 1 3 31.1018 -378 0 0 0 0 0
326 1 3 31.1018 -375 0 0 0 0 0
327 1 3 31.1018 -372 0 0 0 0 0
328 1 3 31.1018 -369 0 0 0 0 0
329 1 3 31.1018 -366 0 0 0 0 0
330 1 3 31.1018 -363 0 0 0 0 0
331 1 3 31.1018 -360 0 0 0 0 0
332 1 3 31.1018 -357 0 0 0 0 0
333 1 3 31.1018 -354 0 0 0 0 0
334 1 3 31.1018 -351 0 0 0 0 0
335 1 3 31.1018 -348 0 0 0 0 0
336 1 3 31.1018 -345 0 0 0 0 0
337 1 3 31.1018 -342 0 0 0 0 0
338 1 3 31.1018 -339 0 0 0 0 0
339 1 3 31.1018 -336 0 0 0 0 0
340 1 3 31.1018 -333 0 0 0 0 0
341 1 3 31.1018 -330 0 0 0 0 0
342 1 3 31.1018 -327 0 0 0 0 0
343 1 3 31.1018 -324 0 0 0 0 0
344 1 3 31.1018 -321 0 0 0 0 0
345 1 3 31.1018 -318 0 0 0 0 0
346 1 3 31.1018 -315 0 0 0 0 0
347 1 3 31.1018 -312 0 0 0 0 0
348 1 3 31.1018 -309 0 0 0 0 0
349 1 3 31.1018 -306 0 0 0 0 0
350 1 3 31.1018 -303 0 0 0 0 0
351 1 3 31.1018 -300 0 0 0 0 0
352 1 3 31.1018 -297 0 0 0 0 0
353 1 3 31.1018 -294 0 0 0 0 0
354 1 3 31.1018 -291 0 0 0 0 0
355 1 3 31.1018 -288 0 0 0 0 0
356 1 3 31.1018 -285 0 0 0 0 0
357 1 3 31.1018 -282 0 0 0 0 0
358 1 3 31.1018 -279 0 0 0 0 0
359 1 3 31.1018 -276 0 0 0 0 0
360 1 3 31.1018 -273 0 0 0 0 0
361 1 3 31.1018 -270 0 0 0 0 0
362 1 3 31.1018 -267 0 0 0 0 0
363 1 3 31.1018 -264 0 0 0 0 0
364 1 3 31.1018 -261 0 0 0 0 0
365 1 3 31.1018 -258 0 0 0 0 0
366 1 3 31.1018 -255 0 0 0 0 0
367 1 3 31.1018 -252 0 0 0 0 0
368 1 3 31.1018 -249 0 0 0 0 0
369 1 3 31.1018 -246 0 0 0 0 0
370 1 3 31.1018 -243 0 0 0 0 0
371 1 3 31.1018 -240 0 0 0 0 0
372 1 3 31.1018 -237 0 0 0 0 0
373 1 3 31.1018 -234 0 0 0 0 0
374 1 3 31.1018 -231 0 0 0 0 0
375 1 3 31.1018 -228 0 0 0 0 0
376 1 3 31.1018 -225 0 0 0 0 0
377 1 3 31.1018 -222 0 0 0 0 0
378 1 3 31.1018 -219 0 0 0 0 0
379 1 3 31.1018 -216 0 0 0 0 0
380 1 3 31.1018 -213 0 0 0 0 0
381 1 3 31.1018 -210 0 0 0 0 0
382 1 3 31.1018 -207 0 0 0 0 0
383 1 3 31.1018 -204 0 0 0 0 0
384 1 3 31.1018 -201 0 0 0 0 0
385 1 3 31.1018 -198 0 0 0 0 0
386 1 3 31.1018 -195 0 0 0 0 0
387 1 3 31.1018 -192 0 0 0 0 0
388 1 3 31.1018 -189 0 0 0 0 0
389 1 3 31.1018 -186 0 0 0 0 0
390 1 3 31.1018 -183 0 0 0 0 0
391 1 3 31.1018 -180 0 0 0 0 0
392 1 3 31.1018 -177 0 0 0 0 0
393 1 3 31.1018 -174 0 0 0 0 0
394 1 3 31.1018 -171 0 0 0 0 0
395 1 3 31.1018 -168 0 0 0 0 0
396 1 3 31.1018 -165 0 0 0 0 0
397 1 3 31.1018 -162 0 0 0 0 0
398 1 3 31.1018 -159 0 0 0 0 0
399 1 3 31.1018 -156 0 0 0 0 0
400 1 3 31.1018 -153 0 0 0 0 0
401 1 3 31.1018 -150 0 0 0 0 0
402 1 3 31.1018 -147 0 0 0 0 0
403 1 3 31.1018 -144 0 0 0 0 0
404 1 3 31.1018 -141 0 0 0 0 0
405 1 3 31.1018 -138 0 0 0 0 0
406 1 3 31.1018 -135 0 0 0 0 0
407 1 3 31.1018 -132 0 0 0 0 0
408 1 3 31.1018 -129 0 0 0 0 0
409 1 3 31.1018 -126 0 0 0 0 0
410 1 3 31.1018 -123 0 0 0 0 0
411 1 3 31.1018 -120 0 0 0 0 0
412 1 3 31.1018 -117 0 0 0 0 0
413 1 3 31.1018 -114 0 0 0 0 0
414 1 3 31.1018 -111 0 0 0 0 0
415 1 3 31.1018 -108 0 0 0 0 0
416 1 3 31.1018 -105 0 0 0 0 0
417 1 3 31.1018 -102 0 0 0 0 0
418 1 3 31.1018 -99 0 0 0 0 0
419 1 3 31.1018 -96 0 0 0 0 0
420 1 3 31.1018 -93 0 0 0 0 0
421 1 3 31.1018 -90 0 0 0 0 0
422 1 3 31.1018 -87 0 0 0 0 0
423 1 3 31.1018 -84 0 0 0 0 0
424 1 3 31.1018 -81 0 0 0 0 0
425 1 3 31.1018 -78 0 0 0 0 0
426 1 3 31.1018 -75 0 0 0 0 0
427 1 3 31.1018 -72 0 0 0 0 0
428 1 3 31.1018 -69 0 0 0 0 0
429 1 3 31.1018 -66 0 0 0 0 0
430 1 3 31.1018 -63 0 0 0 0 0
431 1 3 31.1018 -60 0 0 0 0 0
432 1 3 31.1018 -57 0 0 0 0 0
433 1 3 31.1018 -54 0 0 0 0 0
434 1 3 31.1018 -51 0 0 0 0 0
435 1 3 31.1018 -48 0 0 0 0 0
436 1 3 31.1018 -45 0 0 0 0 0
437 1 3 31.1018 -42 0 0 0 0 0
438 1 3 31.1018 -39 0 0 0 0 0
439 1 3 31.1018 -36 0 0 0 0 0
440 1 3 31.1018 -33 0 0 0 0 0
441 1 3 31.1018 -30 0 0 0 0 0
442 1 3 31.1018 -27 0 0 0 0 0
443 1 3 31.1018 -24 0 0 0 0 0
444 1 3 31.1018 -21 0 0 0 0 0
445 1 3 31.1018 -18 0 0 0 0 0
446 1 3 31.1018 -15 0 0 0 0 0
447 1 3 31.1018 -12 0 0 0 0 0
448 1 3 31.1018 -9 0 0 0 0 0
449 1 3 31.1018 -6 0 0 0 0 0
450 1 3 31.1018 -3 0 0 0 0 0
978 2 3 31.1018 -673.500101365421187 3.88672e-20 2.59757461959233105 0.126198 0 -0.00223118
979 2 3 31.1018 -670.500101365421187 3.86929e-20 2.59757461952765478 0.125631 0 -0.00222036
980 2 3 31.1018 -667.500101365421187 3.85186e-20 2.59757461946297852 0.125063 0 -0.00220953
981 2 3 31.1018 -664.500101365421301 3.83443e-20 2.59757461939830225 0.124496 0 -0.00219869
982 2 3 31.1018 -661.500101365421301 3.817e-20 2.59757461933362599 0.123928 0 -0.00218786
983 2 3 31.1018 -658.500101365421301 3.79958e-20 2.59757461926894972 0.123361 0 -0.00217703
984 2 3 31.1018 -655.500101365421301 3.78215e-20 2.59757461920427346 0.122794 0 -0.00216621
985 2 3 31.1018 -652.500101365421301 3.76472e-20 2.5975746191395972 0.122226 0 -0.00215538
986 2 3 31.1018 -649.500101365421301 3.74729e-20 2.59757461907492093 0.121659 0 -0.00214455
987 2 3 31.1018 -646.500101365421301 3.72986e-20 2.59757461901024467 0.121091 0 -0.00213373
988 2 3 31.1018 -643.500101365421301 3.71243e-20 2.5975746189455684 0.120524 0 -0.0021229
989 2 3 31.1018 -640.500101365421301 3.695e-20 2.59757461888089214 0.119956 0 -0.00211207
990 2 3 31.1018 -637.500101365421301 3.67757e-20 2.59757461881621587 0.119389 0 -0.00210124
991 2 3 31.1018 -634.500101365421301 3.66014e-20 2.59757461875153961 0.118822 0 -0.00209042
992 2 3 31.1018 -631.500101365421301 3.64271e-20 2.59757461868686335 0.118254 0 -0.00207959
993 2 3 31.1018 -628.500101365421301 3.62528e-20 2.59757461862218708 0.117687 0 -0.00206876
994 2 3 31.1018 -625.500101365421301 3.60785e-20 2.59757461855751082 0.117119 0 -0.00205793
995 2 3 31.1018 -622.500101365421415 3.59042e-20 2.59757461849283455 0.116552 0 -0.00204709
996 2 3 31.1018 -619.500101365421415 3.573e-20 2.59757461842815829 0.115985 0 -0.00203627
997 2 3 31.1018 -616.500101365421415 3.55557e-20 2.59757461836348202 0.115417 0 -0.00202544
998 2 3 31.1018 -613.500101365421415 3.53814e-20 2.59757461829880576 0.11485 0 -0.00201461
999 2 3 31.1018 -610.500101365421415 3.52071e-20 2.5975746182341295 0.114282 0 -0.00200379
1000 2 3 31.1018 -607.500101365421415 3.50328e-20 2.59757461816945323 0.113715 0 -0.00199296
1001 2 3 31.1018 -604.500101365421415 3.48585e-20 2.59757461810477697 0.113147 0 -0.00198213
1002 2 3 31.1018 -601.500101365421415 3.46842e-20 2.5975746180401007 0.11258 0 -0.0019713
1003 2 3 31.1018 -598.500101365421415 3.45099e-20 2.59757461797542444 0.112013 0 -0.00196048
1004 2 3 31.1018 -595.500101365421415 3.43356e-20 2.59757461791074817 0.111445 0 -0.00194965
1005 2 3 31.1018 -592.500101365421415 3.41613e-20 2.59757461784607191 0.110878 0 -0.00193882
1006 2 3 31.1018 -589.500101365421415 3.3987e-20 2.59757461778139565 0.11031 0 -0.001928
1007 2 3 31.1018 -586.500101365421415 3.38127e-20 2.59757461771671938 0.109743 0 -0.00191717
1008 2 3 31.1018 -583.500101365421415 3.36384e-20 2.59757461765204312 0.109175 0 -0.00190634
1009 2 3 31.1018 -580.500101365421415 3.34642e-20 2.59757461758736685 0.108608 0 -0.00189551
1010 2 3 31.1018 -577.500101365421528 3.32899e-20 2.59757461752269059 0.108041 0 -0.00188468
1011 2 3 31.1018 -574.500101365421528 3.31156e-20 2.59757461745801432 0.107473 0 -0.00187385
1012 2 3 31.1018 -571.500101365421528 3.29413e-20 2.59757461739333806 0.106906 0 -0.00186302
1013 2 3 31.1018 -568.500101365421528 3.2767e-20 2.59757461732866179 0.106338 0 -0.00185219
1014 2 3 31.1018 -565.500101365421528 3.25927e-20 2.59757461726398553 0.105771 0 -0.00184137
1015 2 3 31.1018 -562.500101365421528 3.24184e-20 2.59757461719930927 0.105203 0 -0.00183054
1016 2 3 31.1018 -559.500101365421528 3.22441e-20 2.597574617134633 0.104636 0 -0.00181971
1017 2 3 31.1018 -556.500101365421528 3.20698e-20 2.59757461706995674 0.104069 0 -0.00180889
1018 2 3 31.1018 -553.500101365421528 3.18955e-20 2.59757461700528047 0.103501 0 -0.00179806
1019 2 3 31.1018 -550.500101365421528 3.17212e-20 2.59757461694060421 0.102934 0 -0.00178723
1020 2 3 31.1018 -547.500101365421528 3.15469e-20 2.59757461687592794 0.102366 0 -0.00177641
1021 2 3 31.1018 -544.500101365421528 3.13726e-20 2.59757461681125168 0.101799 0 -0.00176558
1022 2 3 31.1018 -541.500101365421528 3.11984e-20 2.59757461674657542 0.101231 0 -0.00175475
1023 2 3 31.1018 -538.500101365421528 3.10241e-20 2.59757461668189915 0.100664 0 -0.00174393
1024 2 3 31.1018 -535.500101365421642 3.08498e-20 2.59757461661722289 0.100097 0 -0.00173309
1025 2 3 31.1018 -532.500101365421642 3.06755e-20 2.59757461655254662 0.0995292 0 -0.00172226
1026 2 3 31.1018 -529.500101365421642 3.05012e-20 2.59757461648787036 0.0989618 0 -0.00171143
1027 2 3 31.1018 -526.500101365421642 3.03269e-20 2.59757461642319409 0.0983943 0 -0.00170061
1028 2 3 31.1018 -523.500101365421642 3.01526e-20 2.59757461635851783 0.0978269 0 -0.00168978
1029 2 3 31.1018 -520.500101365421642 2.99783e-20 2.59757461629384157 0.0972595 0 -0.00167895
1030 2 3 31.1018 -517.500101365421642 2.9804e-20 2.5975746162291653 0.096692 0 -0.00166813
1031 2 3 31.1018 -514.500101365421756 2.96297e-20 2.59757461616448904 0.0961247 0 -0.00165729
1032 2 3 31.1018 -511.500101365421699 2.94554e-20 2.59757461609981277 0.0955572 0 -0.00164647
1033 2 3 31.1018 -508.500101365421699 2.92811e-20 2.59757461603513651 0.0949898 0 -0.00163564
1034 2 3 31.1018 -505.500101365421756 2.91068e-20 2.59757461597046024 0.0944224 0 -0.00162481
1035 2 3 31.1018 -502.500101365421756 2.89325e-20 2.59757461590578398 0.093855 0 -0.00161398
1036 2 3 31.1018 -499.500101365421756 2.87583e-20 2.59757461584110771 0.0932875 0 -0.00160315
1037 2 3 31.1018 -496.500101365421756 2.8584e-20 2.59757461577643145 0.0927201 0 -0.00159233
1038 2 3 31.1018 -493.500101365421756 2.84097e-20 2.59757461571175519 0.0921526 0 -0.0015815
1039 2 3 31.1018 -490.500101365421756 2.82354e-20 2.59757461564707892 0.0915852 0 -0.00157068
1040 2 3 31.1018 -487.500101365421756 2.80611e-20 2.59757461558240266 0.0910178 0 -0.00155985
1041 2 3 31.1018 -484.500101365421756 2.78868e-20 2.59757461551772639 0.0904503 0 -0.00154902
1042 2 3 31.1018 -481.500101365421813 2.77125e-20 2.59757461545305013 0.089883 0 -0.00153819
1043 2 3 31.1018 -478.500101365421813 2.75382e-20 2.59757461538837386 0.0893155 0 -0.00152736
1044 2 3 31.1018 -475.500101365421813 2.73639e-20 2.5975746153236976 0.0887481 0 -0.00151654
1045 2 3 31.1018 -472.500101365421813 2.71896e-20 2.59757461525902134 0.0881807 0 -0.00150571
1046 2 3 31.1018 -469.500101365421813 2.70153e-20 2.59757461519434507 0.0876132 0 -0.00149489
1047 2 3 31.1018 -466.500101365421813 2.6841e-20 2.59757461512966881 0.0870458 0 -0.00148406
1048 2 3 31.1018 -463.500101365421813 2.66667e-20 2.59757461506499254 0.0864783 0 -0.00147323
1049 2 3 31.1018 -460.50010136542187 2.64925e-20 2.59757461500031628 0.085911 0 -0.0014624
1050 2 3 31.1018 -457.50010136542187 2.63182e-20 2.59757461493564001 0.0853435 0 -0.00145157
1051 2 3 31.1018 -454.50010136542187 2.61439e-20 2.59757461487096375 0.0847761 0 -0.00144075
1052 2 3 31.1018 -451.50010136542187 2.59696e-20 2.59757461480628749 0.0842087 0 -0.00142992
1053 2 3 31.1018 -448.50010136542187 2.57953e-20 2.59757461474161122 0.0836412 0 -0.00141909
1054 2 3 31.1018 -445.50010136542187 2.5621e-20 2.59757461467693496 0.0830738 0 -0.00140823
1055 2 3 31.1018 -442.50010136542187 2.54467e-20 2.59757461461225869 0.0825065 0 -0.00139735
1056 2 3 31.1018 -439.500101365421926 2.52724e-20 2.59757461454758243 0.0819392 0 -0.00138647
1057 2 3 31.1018 -436.500101365421926 2.50981e-20 2.59757461448290616 0.0813719 0 -0.00137559
1058 2 3 31.1018 -433.500101365421926 2.49238e-20 2.5975746144182299 0.0808045 0 -0.00136471
1059 2 3 31.1018 -430.500101365421926 2.47495e-20 2.59757461435355363 0.0802372 0 -0.00135383
1060 2 3 31.1018 -427.500101365421926 2.45752e-20 2.59757461428887737 0.0796698 0 -0.00134295
1061 2 3 31.1018 -424.500101365421926 2.44009e-20 2.59757461422420111 0.0791025 0 -0.00133207
1062 2 3 31.1018 -421.500101365421926 2.42267e-20 2.59757461415952484 0.0785351 0 -0.00132119
1063 2 3 31.1018 -418.500101365421983 2.40524e-20 2.59757461409484858 0.0779679 0 -0.0013103
1064 2 3 31.1018 -415.500101365421983 2.38781e-20 2.59757461403017231 0.0774005 0 -0.00129942
1065 2 3 31.1018 -412.500101365421983 2.37038e-20 2.59757461396549605 0.0768332 0 -0.00128854
1066 2 3 31.1018 -409.500101365421983 2.35295e-20 2.59757461390081978 0.0762658 0 -0.00127766
1067 2 3 31.1018 -406.500101365421983 2.33552e-20 2.59757461383614352 0.0756985 0 -0.00126678
1068 2 3 31.1018 -403.500101365421983 2.31809e-20 2.59757461377146726 0.0751311 0 -0.0012559
1069 2 3 31.1018 -400.500101365421983 2.30066e-20 2.59757461370679099 0.0745638 0 -0.00124502
1070 2 3 31.1018 -397.50010136542204 2.28323e-20 2.59757461364211473 0.0739965 0 -0.00123414
1071 2 3 31.1018 -394.50010136542204 2.2658e-20 2.59757461357743846 0.0734291 0 -0.00122326