ITEM: TIMESTEP
4600000
ITEM: NUMBER OF ATOMS
501
ITEM: BOX BOUNDS pp pp pp
-4.5000000000000000e+02 4.5000000000000000e+02
-1.0000000000000000e+02 1.0000000000000000e+02
-1.0000000000000000e+02 1.0000000000000000e+02
ITEM: ATOMS id type diameter mass xu yu zu fx fy fz
1 1 3 31.1018 -450 0 0 0 0 0
2 1 3 31.1018 -447 0 0 0 0 0
3 1 3 31.1018 -444 0 0 0 0 0
4 1 3 31.1018 -441 0 0 0 0 0
5 1 3 31.1018 -438 0 0 0 0 0
6 1 3 31.1018 -435 0 0 0 0 0
7 1 3 31.1018 -432 0 0 0 0 0
8 1 3 31.1018 -429 0 0 0 0 0
9 1 3 31.1018 -426 0 0 0 0 0
10 1 3 31.1018 -423 0 0 0 0 0
11 1 3 31.1018 -420 0 0 0 0 0
12 1 3 31.1018 -417 0 0 0 0 0
13 1 3 31.1018 -414 0 0 0 0 0
14 1 3 31.1018 -411 0 0 0 0 0
15 1 3 31.1018 -408 0 0 0 0 0
16 1 3 31.1018 -405 0 0 0 0 0
17 1 3 31.1018 -402 0 0 0 0 0
18 1 3 31.1018 -399 0 0 0 0 0
19 1 3 31.1018 -396 0 0 0 0 0
20 1 3 31.1018 -393 0 0 0 0 0
21 1 3 31.1018 -390 0 0 0 0 0
22 1 3 31.1018 -387 0 0 0 0 0
23 1 3 31.1018 -384 0 0 0 0 0
24 1 3 31.1018 -381 0 0 0 0 0
25 1 3 31.1018 -378 0 0 0 0 0
26 1 3 31.1018 -375 0 0 0 0 0
27 1 3 31.1018 -372 0 0 0 0 0
28 1 3 31.1018 -369 0 0 0 0 0
29 1 3 31.1018 -366 0 0 0 0 0
30 1 3 31.1018 -363 0 0 0 0 0
31 1 3 31.1018 -360 0 0 0 0 0
32 1 3 31.1018 -357 0 0 0 0 0
33 1 3 31.1018 -354 0 0 0 0 0
34 1 3 31.1018 -351 0 0 0 0 0
35 1 3 31.1018 -348 0 0 0 0 0
36 1 3 31.1018 -345 0 0 0 0 0
37 1 3 31.1018 -342 0 0 0 0 0
38 1 3 31.1018 -339 0 0 0 0 0
39 1 3 31.1018 -336 0 0 0 0 0
40 1 3 31.1018 -333 0 0 0 0 0
41 1 3 31.1018 -330 0 0 0 0 0
42 1 3 31.1018 -327 0 0 0 0 0
43 1 3 31.1018 -324 0 0 0 0 0
44 1 3 31.1018 -321 0 0 0 0 0
45 1 3 31.1018 -318 0 0 0 0 0
46 1 3 31.1018 -315 0 0 0 0 0
47 1 3 31.1018 -312 0 0 0 0 0
48 1 3 31.1018 -309 0 0 0 0 0
49 1 3 31.1018 -306 0 0 0 0 0
50 1 3 31.1018 -303 0 0 0 0 0
51 1 3 31.1018 -300 0 0 0 0 0
52 1 3 31.1018 -297 0 0 0 0 0
53 1 3 31.1018 -294 0 0 0 0 0
54 1 3 31.1018 -291 0 0 0 0 0
55 1 3 31.1018 -288 0 0 0 0 0
56 1 3 31.1018 -285 0 0 0 0 0
57 1 3 31.1018 -282 0 0 0 0 0
58 1 3 31.1018 -279 0 0 0 0 0
59 1 3 31.1018 -276 0 0 0 0 0
60 1 3 31.1018 -273 0 0 0 0 0
61 1 3 31.1018 -270 0 0 0 0 0
62 1 3 31.1018 -267 0 0 0 0 0
63 1 3 31.1018 -264 0 0 0 0 0
64 1 3 31.1018 -261 0 0 0 0 0
65 1 3 31.1018 -258 0 0 0 0 0
66 1 3 31.1018 -255 0 0 0 0 0
67 1 3 31.1018 -252 0 0 0 0 0
68 1 3 31.1018 -249 0 0 0 0 0
69 1 3 31.1018 -246 0 0 0 0 0
70 1 3 31.1018 -243 0 0 0 0 0
71 1 3 31.1018 -240 0 0 0 0 0
72 1 3 31.1018 -237 0 0 0 0 0
73 1 3 31.1018 -234 0 0 0 0 0
74 1 3 31.1018 -231 0 0 0 0 0
75 1 3 31.1018 -228 0 0 0 0 0
301 2 3 31.1018 -304.500101383703338 1.18344e-18 2.59757464394598747 0.300376 0 -0.0929591
302 2 3 31.1018 -301.500101383702713 1.17161e-18 2.59757464341304578 0.302642 0 -0.0888049
303 2 3 31.1018 -298.500101383702031 1.15977e-18 2.59757464288010409 0.304908 0 -0.0846507
304 2 3 31.1018 -295.500101383701406 1.14794e-18 2.5975746423471624 0.307172 0 -0.0804953
305 2 3 31.1018 -292.500101383700724 1.13611e-18 2.59757464181422071 0.309435 0 -0.0763398
306 2 3 31.1018 -289.500101383700041 1.12427e-18 2.59757464128127902 0.311698 0 -0.0721843
307 2 3 31.1018 -286.500101383699416 1.11244e-18 2.59757464074833733 0.313962 0 -0.0680288
308 2 3 31.1018 -283.500101383698734 1.1006e-18 2.59757464021539564 0.316225 0 -0.0638733
309 2 3 31.1018 -280.500101383698052 1.08877e-18 2.59757463968245395 0.318489 0 -0.0597177
310 2 3 31.1018 -277.500101383697427 1.07693e-18 2.59757463914951225 0.320752 0 -0.0555622
311 2 3 31.1018 -274.500101383696745 1.0651e-18 2.59757463861657056 0.323016 0 -0.0514067
312 2 3 31.1018 -271.500101383696119 1.05326e-18 2.59757463808362887 0.325279 0 -0.0472511
313 2 3 31.1018 -268.500101383695437 1.04143e-18 2.59757463755068718 0.327543 0 -0.0430956
314 2 3 31.1018 -265.500101383694755 1.0296e-18 2.59757463701774549 0.329806 0 -0.03894
315 2 3 31.1018 -262.50010138369413 1.01776e-18 2.5975746364848038 0.33207 0 -0.0347845
316 2 3 31.1018 -259.500101383693448 1.00593e-18 2.59757463595186211 0.334333 0 -0.0306289
317 2 3 31.1018 -256.500101383692765 9.94092e-19 2.59757463541892042 0.336597 0 -0.0264734
318 2 3 31.1018 -253.500101383692112 9.82258e-19 2.59757463488597873 0.33886 0 -0.0223178
319 2 3 31.1018 -250.50010138369143 9.70424e-19 2.59757463435303704 0.334524 0 -0.0219735
320 2 3 31.1018 -247.500101383690776 9.58589e-19 2.59757463382009535 0.329919 0 -0.0217844
321 2 3 31.1018 -244.500101383690122 9.46755e-19 2.59757463328715366 0.325315 0 -0.0215952
322 2 3 31.1018 -241.500101383689469 9.3492e-19 2.59757463275421197 0.32071 0 -0.021406
323 2 3 31.1018 -238.500101383688786 9.23086e-19 2.59757463222127027 0.316105 0 -0.0212168
324 2 3 31.1018 -235.500101383688133 9.11251e-19 2.59757463168832858 0.311501 0 -0.0210277
325 2 3 31.1018 -232.500101383687479 8.99417e-19 2.59757463115538689 0.306896 0 -0.0208385
326 2 3 31.1018 -229.500101383686825 8.87583e-19 2.5975746306224452 0.302291 0 -0.0206494
327 2 3 31.1018 -226.500101383686143 8.75748e-19 2.59757463008950351 0.297686 0 -0.0204602
76 1 3 31.1018 -225 0 0 0 0 0
77 1 3 31.1018 -222 0 0 0 0 0
78 1 3 31.1018 -219 0 0 0 0 0
79 1 3 31.1018 -216 0 0 0 0 0
80 1 3 31.1018 -213 0 0 0 0 0
81 1 3 31.1018 -210 0 0 0 0 0
82 1 3 31.1018 -207 0 0 0 0 0
83 1 3 31.1018 -204 0 0 0 0 0
84 1 3 31.1018 -201 0 0 0 0 0
85 1 3 31.1018 -198 0 0 0 0 0
86 1 3 31.1018 -195 0 0 0 0 0
87 1 3 31.1018 -192 0 0 0 0 0
88 1 3 31.1018 -189 0 0 0 0 0
89 1 3 31.1018 -186 0 0 0 0 0
90 1 3 31.1018 -183 0 0 0 0 0
91 1 3 31.1018 -180 0 0 0 0 0
92 1 3 31.1018 -177 0 0 0 0 0
93 1 3 31.1018 -174 0 0 0 0 0
94 1 3 31.1018 -171 0 0 0 0 0
95 1 3 31.1018 -168 0 0 0 0 0
96 1 3 31.1018 -165 0 0 0 0 0
97 1 3 31.1018 -162 0 0 0 0 0
98 1 3 31.1018 -159 0 0 0 0 0
99 1 3 31.1018 -156 0 0 0 0 0
100 1 3 31.1018 -153 0 0 0 0 0
101 1 3 31.1018 -150 0 0 0 0 0
102 1 3 31.1018 -147 0 0 0 0 0
103 1 3 31.1018 -144 0 0 0 0 0
104 1 3 31.1018 -141 0 0 0 0 0
105 1 3 31.1018 -138 0 0 0 0 0
106 1 3 31.1018 -135 0 0 0 0 0
107 1 3 31.1018 -132 0 0 0 0 0
108 1 3 31.1018 -129 0 0 0 0 0
109 1 3 31.1018 -126 0 0 0 0 0
110 1 3 31.1018 -123 0 0 0 0 0
111 1 3 31.1018 -120 0 0 0 0 0
112 1 3 31.1018 -117 0 0 0 0 0
113 1 3 31.1018 -114 0 0 0 0 0
114 1 3 31.1018 -111 0 0 0 0 0
115 1 3 31.1018 -108 0 0 0 0 0
116 1 3 31.1018 -105 0 0 0 0 0
117 1 3 31.1018 -102 0 0 0 0 0
118 1 3 31.1018 -99 0 0 0 0 0
119 1 3 31.1018 -96 0 0 0 0 0
120 1 3 31.1018 -93 0 0 0 0 0
121 1 3 31.1018 -90 0 0 0 0 0
122 1 3 31.1018 -87 0 0 0 0 0
123 1 3 31.1018 -84 0 0 0 0 0
124 1 3 31.1018 -81 0 0 0 0 0
125 1 3 31.1018 -78 0 0 0 0 0
126 1 3 31.1018 -75 0 0 0 0 0
127 1 3 31.1018 -72 0 0 0 0 0
128 1 3 31.1018 -69 0 0 0 0 0
129 1 3 31.1018 -66 0 0 0 0 0
130 1 3 31.1018 -63 0 0 0 0 0
131 1 3 31.1018 -60 0 0 0 0 0
132 1 3 31.1018 -57 0 0 0 0 0
133 1 3 31.1018 -54 0 0 0 0 0
134 1 3 31.1018 -51 0 0 0 0 0
135 1 3 31.1018 -48 0 0 0 0 0
136 1 3 31.1018 -45 0 0 0 0 0
137 1 3 31.1018 -42 0 0 0 0 0
138 1 3 31.1018 -39 0 0 0 0 0
139 1 3 31.1018 -36 0 0 0 0 0
140 1 3 31.1018 -33 0 0 0 0 0
141 1 3 31.1018 -30 0 0 0 0 0
142 1 3 31.1018 -27 0 0 0 0 0
143 1 3 31.1018 -24 0 0 0 0 0
144 1 3 31.1018 -21 0 0 0 0 0
145 1 3 31.1018 -18 0 0 0 0 0
146 1 3 31.1018 -15 0 0 0 0 0
147 1 3 31.1018 -12 0 0 0 0 0
148 1 3 31.1018 -9 0 0 0 0 0
149 1 3 31.1018 -6 0 0 0 0 0
150 1 3 31.1018 -3 0 0 0 0 0
328 2 3 31.1018 -223.50010138368549 8.63914e-19 2.59757462955656182 0.293082 0 -0.020271
329 2 3 31.1018 -220.500101383684836 8.52079e-19 2.59757462902362013 0.288477 0 -0.0200819
330 2 3 31.1018 -217.500101383684182 8.40245e-19 2.59757462849067844 0.283872 0 -0.0198927
331 2 3 31.1018 -214.5001013836835 8.2841e-19 2.59757462795773675 0.28119 0 -0.0185932
332 2 3 31.1018 -211.500101383682846 8.16576e-19 2.59757462742479506 0.283662 0 -0.0143172
333 2 3 31.1018 -208.500101383682193 8.04741e-19 2.59757462689185337 0.286133 0 -0.0100406
334 2 3 31.1018 -205.500101383681539 7.92907e-19 2.59757462635891168 0.288603 0 -0.00576335
335 2 3 31.1018 -202.500101383680857 7.81073e-19 2.59757462582596999 0.291072 0 -0.00148605
336 2 3 31.1018 -199.500101383680203 7.69238e-19 2.59757462529302829 0.293542 0 0.00279125
337 2 3 31.1018 -196.500101383679549 7.57404e-19 2.5975746247600866 0.296012 0 0.00706856
338 2 3 31.1018 -193.500101383678896 7.45569e-19 2.59757462422714491 0.298482 0 0.0113459
339 2 3 31.1018 -190.500101383678214 7.33735e-19 2.59757462369420322 0.299386 0 0.0147194
340 2 3 31.1018 -187.50010138367756 7.219e-19 2.59757462316126153 0.294553 0 0.0147789
341 2 3 31.1018 -184.500101383676906 7.10066e-19 2.59757462262831984 0.289719 0 0.0148385
342 2 3 31.1018 -181.500101383676252 6.98232e-19 2.59757462209537815 0.284885 0 0.014898
343 2 3 31.1018 -178.50010138367557 6.86397e-19 2.59757462156243646 0.280052 0 0.0149576
344 2 3 31.1018 -175.500101383674917 6.74563e-19 2.59757462102949477 0.275218 0 0.0150171
345 2 3 31.1018 -172.500101383674263 6.62728e-19 2.59757462049655308 0.270384 0 0.0150767
346 2 3 31.1018 -169.500101383673609 6.50894e-19 2.59757461996361139 0.26555 0 0.0151362
347 2 3 31.1018 -166.500101383672927 6.39059e-19 2.5975746194306697 0.260716 0 0.0151957
348 2 3 31.1018 -163.500101383672273 6.27225e-19 2.597574618897728 0.255883 0 0.0152553
349 2 3 31.1018 -160.50010138367162 6.15391e-19 2.59757461836478631 0.251049 0 0.0153148
350 2 3 31.1018 -157.500101383670966 6.03556e-19 2.59757461783184462 0.246215 0 0.0153743
351 2 3 31.1018 -154.500101383670284 5.91722e-19 2.59757461729890293 0.241381 0 0.0154339
352 2 3 31.1018 -151.50010138366963 5.79887e-19 2.59757461676596124 0.236548 0 0.0154934
353 2 3 31.1018 -148.500101383668976 5.68053e-19 2.59757461623301955 0.231714 0 0.0155529
354 2 3 31.1018 -145.500101383668323 5.56218e-19 2.59757461570007786 0.22688 0 0.0156125
355 2 3 31.1018 -142.500101383667641 5.44384e-19 2.59757461516713617 0.222046 0 0.015672
356 2 3 31.1018 -139.500101383666987 5.3255e-19 2.59757461463419448 0.217212 0 0.0157315
357 2 3 31.1018 -136.500101383666333 5.20715e-19 2.59757461410125279 0.212378 0 0.0157911
358 2 3 31.1018 -133.50010138366568 5.08881e-19 2.5975746135683111 0.207545 0 0.0158506
359 2 3 31.1018 -130.500101383665026 4.97046e-19 2.59757461303536941 0.202711 0 0.0159101
360 2 3 31.1018 -127.500101383664358 4.85212e-19 2.59757461250242772 0.197877 0 0.0159696
361 2 3 31.1018 -124.500101383663704 4.73377e-19 2.59757461196948602 0.193043 0 0.0160292
362 2 3 31.1018 -121.500101383663036 4.61543e-19 2.59757461143654433 0.188209 0 0.0160887
363 2 3 31.1018 -118.500101383662383 4.49708e-19 2.59757461090360264 0.183373 0 0.0161494
364 2 3 31.1018 -115.500101383661715 4.37874e-19 2.59757461037066095 0.178537 0 0.0162102
365 2 3 31.1018 -112.500101383661061 4.2604e-19 2.59757460983771926 0.173701 0 0.016271
366 2 3 31.1018 -109.500101383660393 4.14205e-19 2.59757460930477757 0.168865 0 0.0163318
367 2 3 31.1018 -106.500101383659739 4.02371e-19 2.59757460877183588 0.164029 0 0.0163926
368 2 3 31.1018 -103.500101383659072 3.90536e-19 2.59757460823889419 0.159193 0 0.0164534
369 2 3 31.1018 -100.500101383658418 3.78702e-19 2.5975746077059525 0.154357 0 0.0165142
370 2 3 31.1018 -97.5001013836577499 3.66867e-19 2.59757460717301081 0.14952 0 0.016575
371 2 3 31.1018 -94.5001013836570962 3.55033e-19 2.59757460664006912 0.144684 0 0.0166358
372 2 3 31.1018 -91.5001013836564283 3.43199e-19 2.59757460610712743 0.139848 0 0.0166966
373 2 3 31.1018 -88.5001013836557746 3.31364e-19 2.59757460557418574 0.135012 0 0.0167574
374 2 3 31.1018 -85.5001013836551067 3.1953e-19 2.59757460504124404 0.130176 0 0.0168182
375 2 3 31.1018 -82.500101383654453 3.07695e-19 2.59757460450830235 0.12534 0 0.016879
376 2 3 31.1018 -79.5001013836537851 2.95861e-19 2.59757460397536066 0.120503 0 0.0169398
377 2 3 31.1018 -76.5001013836531314 2.84026e-19 2.59757460344241897 0.115667 0 0.0170006
378 2 3 31.1018 -73.5001013836524635 2.72192e-19 2.59757460290947728 0.110831 0 0.0170614
379 2 3 31.1018 -70.5001013836518098 2.60358e-19 2.59757460237653559 0.105995 0 0.0171222
380 2 3 31.1018 -67.5001013836511419 2.48523e-19 2.5975746018435939 0.101159 0 0.017183
381 2 3 31.1018 -64.5001013836504882 2.36689e-19 2.59757460131065221 0.0963225 0 0.0172438
382 2 3 31.1018 -61.5001013836498203 2.24854e-19 2.59757460077771052 0.0914863 0 0.0173046
383 2 3 31.1018 -58.5001013836491595 2.1302e-19 2.59757460024476883 0.0866501 0 0.0173654
384 2 3 31.1018 -55.5001013836484987 2.01185e-19 2.59757459971182714 0.0818138 0 0.0174262
385 2 3 31.1018 -52.5001013836478378 1.89351e-19 2.59757459917888545 0.0769776 0 0.017487
386 2 3 31.1018 -49.500101383647177 1.77517e-19 2.59757459864594376 0.0721414 0 0.0175478
387 2 3 31.1018 -46.5001013836465162 1.65682e-19 2.59757459811300206 0.0673051 0 0.0176086
388 2 3 31.1018 -43.5001013836458554 1.53848e-19 2.59757459758006037 0.0624689 0 0.0176694
389 2 3 31.1018 -40.5001013836451946 1.42013e-19 2.59757459704711868 0.0576326 0 0.0177301
390 2 3 31.1018 -37.5001013836445338 1.30179e-19 2.59757459651417699 0.0527964 0 0.0177909
391 2 3 31.1018 -34.5001013836438801 1.18344e-19 2.5975745959812353 0.0479601 0 0.0178517
392 2 3 31.1018 -31.5001013836432193 1.0651e-19 2.59757459544829361 0.0431232 0 0.0179128
393 2 3 31.1018 -28.5001013836425585 9.46755e-20 2.59757459491535192 0.0382847 0 0.0179749
394 2 3 31.1018 -25.5001013836418977 8.2841e-20 2.59757459438241023 0.0334462 0 0.018037
395 2 3 31.1018 -22.5001013836412369 7.10066e-20 2.59757459384946854 0.0286077 0 0.0180991
396 2 3 31.1018 -19.5001013836405761 5.91722e-20 2.59757459331652685 0.0237691 0 0.0181611
397 2 3 31.1018 -16.5001013836399153 4.73377e-20 2.59757459278358516 0.0189309 0 0.0182234
398 2 3 31.1018 -13.5001013836392545 3.55033e-20 2.59757459225064347 0.014093 0 0.0182858
399 2 3 31.1018 -10.5001013836385919 2.36689e-20 2.59757459171770178 0.0092551 0 0.0183483
400 2 3 31.1018 -7.50010138363793111 1.18344e-20 2.59757459118476008 0.0044172 0 0.0184107
401 2 3 31.1018 -4.5001013836372703 8.76358e-36 2.59757459065181839 -0.000420702 0 0.0184731
402 2 3 31.1018 -1.5001013836366095 -1.18344e-20 2.5975745901188767 -0.00525861 0 0.0185356
151 1 3 31.1018 0 0 0 0 0 0
152 1 3 31.1018 3 0 0 0 0 0
153 1 3 31.1018 6 0 0 0 0 0
154 1 3 31.1018 9 0 0 0 0 0
155 1 3 31.1018 12 0 0 0 0 0
156 1 3 31.1018 15 0 0 0 0 0
157 1 3 31.1018 18 0 0 0 0 0
158 1 3 31.1018 21 0 0 0 0 0
159 1 3 31.1018 24 0 0 0 0 0
160 1 3 31.1018 27 0 0 0 0 0
161 1 3 31.1018 30 0 0 0 0 0
162 1 3 31.1018 33 0 0 0 0 0
163 1 3 31.1018 36 0 0 0 0 0
164 1 3 31.1018 39 0 0 0 0 0
165 1 3 31.1018 42 0 0 0 0 0
166 1 3 31.1018 45 0 0 0 0 0
167 1 3 31.1018 48 0 0 0 0 0
168 1 3 31.1018 51 0 0 0 0 0
169 1 3 31.1018 54 0 0 0 0 0
170 1 3 31.1018 57 0 0 0 0 0
171 1 3 31.1018 60 0 0 0 0 0
172 1 3 31.1018 63 0 0 0 0 0
173 1 3 31.1018 66 0 0 0 0 0
174 1 3 31.1018 69 0 0 0 0 0
175 1 3 31.1018 72 0 0 0 0 0
176 1 3 31.1018 75 0 0 0 0 0
177 1 3 31.1018 78 0 0 0 0 0
178 1 3 31.1018 81 0 0 0 0 0
179 1 3 31.1018 84 0 0 0 0 0
180 1 3 31.1018 87 0 0 0 0 0
181 1 3 31.1018 90 0 0 0 0 0
182 1 3 31.1018 93 0 0 0 0 0
183 1 3 31.1018 96 0 0 0 0 0
184 1 3 31.1018 99 0 0 0 0 0
185 1 3 31.1018 102 0 0 0 0 0
186 1 3 31.1018 105 0 0 0 0 0
187 1 3 31.1018 108 0 0 0 0 0
188 1 3 31.1018 111 0 0 0 0 0
189 1 3 31.1018 114 0 0 0 0 0
190 1 3 31.1018 117 0 0 0 0 0
191 1 3 31.1018 120 0 0 0 0 0
192 1 3 31.1018 123 0 0 0 0 0
193 1 3 31.1018 126 0 0 0 0 0
194 1 3 31.1018 129 0 0 0 0 0
195 1 3 31.1018 132 0 0 0 0 0
196 1 3 31.1018 135 0 0 0 0 0
197 1 3 31.1018 138 0 0 0 0 0
198 1 3 31.1018 141 0 0 0 0 0
199 1 3 31.1018 144 0 0 0 0 0
200 1 3 31.1018 147 0 0 0 0 0
201 1 3 31.1018 150 0 0 0 0 0
202 1 3 31.1018 153 0 0 0 0 0
203 1 3 31.1018 156 0 0 0 0 0
204 1 3 31.1018 159 0 0 0 0 0
205 1 3 31.1018 162 0 0 0 0 0
206 1 3 31.1018 165 0 0 0 0 0
207 1 3 31.1018 168 0 0 0 0 0
208 1 3 31.1018 171 0 0 0 0 0
209 1 3 31.1018 174 0 0 0 0 0
210 1 3 31.1018 177 0 0 0 0 0
211 1 3 31.1018 180 0 0 0 0 0
212 1 3 31.1018 183 0 0 0 0 0
213 1 3 31.1018 186 0 0 0 0 0
214 1 3 31.1018 189 0 0 0 0 0
215 1 3 31.1018 192 0 0 0 0 0
216 1 3 31.1018 195 0 0 0 0 0
217 1 3 31.1018 198 0 0 0 0 0
218 1 3 31.1018 201 0 0 0 0 0
219 1 3 31.1018 204 0 0 0 0 0
220 1 3 31.1018 207 0 0 0 0 0
221 1 3 31.1018 210 0 0 0 0 0
222 1 3 31.1018 213 0 0 0 0 0
223 1 3 31.1018 216 0 0 0 0 0
224 1 3 31.1018 219 0 0 0 0 0
225 1 3 31.1018 222 0 0 0 0 0
403 2 3 31.1018 1.49989861636405131 -2.36689e-20 2.59757458958593501 -0.0100965 0 0.018598
404 2 3 31.1018 4.49989861636471122 -3.55033e-20 2.59757458905299332 -0.0149344 0 0.0186605
405 2 3 31.1018 7.49989861636537203 -4.73377e-20 2.59757458852005163 -0.0197724 0 0.0187229
406 2 3 31.1018 10.4998986163660319 -5.91722e-20 2.59757458798710994 -0.0246103 0 0.0187853
407 2 3 31.1018 13.4998986163666927 -7.10066e-20 2.59757458745416825 -0.0294482 0 0.0188478
408 2 3 31.1018 16.4998986163673536 -8.2841e-20 2.59757458692122656 -0.0342862 0 0.0189102
409 2 3 31.1018 19.4998986163680144 -9.46755e-20 2.59757458638828487 -0.0391241 0 0.0189726
410 2 3 31.1018 22.4998986163686752 -1.0651e-19 2.59757458585534318 -0.0439621 0 0.0190351
411 2 3 31.1018 25.499898616369336 -1.18344e-19 2.59757458532240149 -0.0488001 0 0.0190975
412 2 3 31.1018 28.4998986163700003 -1.30179e-19 2.5975745847894598 -0.053638 0 0.0191599
413 2 3 31.1018 31.4998986163706611 -1.42013e-19 2.5975745842565181 -0.058476 0 0.0192224
414 2 3 31.1018 34.4998986163713255 -1.53848e-19 2.59757458372357641 -0.063314 0 0.0192848
415 2 3 31.1018 37.4998986163719863 -1.65682e-19 2.59757458319063472 -0.068152 0 0.0193472
416 2 3 31.1018 40.4998986163726471 -1.77517e-19 2.59757458265769303 -0.0729899 0 0.0194096
417 2 3 31.1018 43.4998986163733079 -1.89351e-19 2.59757458212475134 -0.0778279 0 0.0194721
418 2 3 31.1018 46.4998986163739687 -2.01185e-19 2.59757458159180965 -0.0826659 0 0.0195345
419 2 3 31.1018 49.4998986163746295 -2.1302e-19 2.59757458105886796 -0.0875039 0 0.0195969
420 2 3 31.1018 52.4998986163752903 -2.24854e-19 2.59757458052592627 -0.092342 0 0.0196593
421 2 3 31.1018 55.4998986163759511 -2.36689e-19 2.59757457999298458 -0.09718 0 0.0197217
422 2 3 31.1018 58.4998986163766119 -2.48523e-19 2.59757457946004289 -0.102019 0 0.0197849
423 2 3 31.1018 61.4998986163772727 -2.60358e-19 2.5975745789271012 -0.106859 0 0.0198486
424 2 3 31.1018 64.4998986163779335 -2.72192e-19 2.59757457839415951 -0.1117 0 0.0199123
425 2 3 31.1018 67.4998986163785872 -2.84026e-19 2.59757457786121781 -0.11654 0 0.019976
426 2 3 31.1018 70.4998986163792551 -2.95861e-19 2.59757457732827612 -0.12138 0 0.0200397
427 2 3 31.1018 73.4998986163799088 -3.07695e-19 2.59757457679533443 -0.126221 0 0.0201034
428 2 3 31.1018 76.4998986163805768 -3.1953e-19 2.59757457626239274 -0.131061 0 0.0201671
429 2 3 31.1018 79.4998986163812305 -3.31364e-19 2.59757457572945105 -0.135901 0 0.0202308
430 2 3 31.1018 82.4998986163818984 -3.43199e-19 2.59757457519650936 -0.140187 0 0.0199744
431 2 3 31.1018 85.4998986163825521 -3.55033e-19 2.59757457466356767 -0.143765 0 0.0193094
432 2 3 31.1018 88.49989861638322 -3.66867e-19 2.59757457413062598 -0.147344 0 0.0186444
433 2 3 31.1018 91.4998986163838737 -3.78702e-19 2.59757457359768429 -0.150922 0 0.0179793
434 2 3 31.1018 94.4998986163845416 -3.90536e-19 2.5975745730647426 -0.154497 0 0.0173124
435 2 3 31.1018 97.4998986163851953 -4.02371e-19 2.59757457253180091 -0.158072 0 0.0166453
436 2 3 31.1018 100.499898616385863 -4.14205e-19 2.59757457199885922 -0.161647 0 0.0159783
437 2 3 31.1018 103.499898616386517 -4.2604e-19 2.59757457146591753 -0.165222 0 0.0153113
438 2 3 31.1018 106.499898616387185 -4.37874e-19 2.59757457093297583 -0.168796 0 0.0146443
439 2 3 31.1018 109.499898616387839 -4.49708e-19 2.59757457040003414 -0.172371 0 0.0139772
440 2 3 31.1018 112.499898616388506 -4.61543e-19 2.59757456986709245 -0.175946 0 0.0133102
441 2 3 31.1018 115.49989861638916 -4.73377e-19 2.59757456933415076 -0.179521 0 0.0126432
442 2 3 31.1018 118.499898616389828 -4.85212e-19 2.59757456880120907 -0.183096 0 0.0119761
443 2 3 31.1018 121.499898616390482 -4.97046e-19 2.59757456826826738 -0.186671 0 0.0113091
444 2 3 31.1018 124.49989861639115 -5.08881e-19 2.59757456773532569 -0.190246 0 0.010642
445 2 3 31.1018 127.499898616391803 -5.20715e-19 2.597574567202384 -0.193821 0 0.00997499
446 2 3 31.1018 130.499898616392471 -5.3255e-19 2.59757456666944231 -0.197395 0 0.00930795
447 2 3 31.1018 133.499898616393153 -5.44384e-19 2.59757456613650062 -0.20097 0 0.0086409
448 2 3 31.1018 136.499898616393807 -5.56218e-19 2.59757456560355893 -0.204545 0 0.00797385
449 2 3 31.1018 139.499898616394461 -5.68053e-19 2.59757456507061724 -0.20812 0 0.0073068
450 2 3 31.1018 142.499898616395114 -5.79887e-19 2.59757456453767555 -0.211695 0 0.00663974
451 2 3 31.1018 145.499898616395797 -5.91722e-19 2.59757456400473385 -0.21527 0 0.00597269
452 2 3 31.1018 148.49989861639645 -6.03556e-19 2.59757456347179216 -0.218845 0 0.00530561
453 2 3 31.1018 151.499898616397104 -6.15391e-19 2.59757456293885047 -0.222416 0 0.00463654
454 2 3 31.1018 154.499898616397758 -6.27225e-19 2.59757456240590878 -0.225988 0 0.00396747
455 2 3 31.1018 157.49989861639844 -6.39059e-19 2.59757456187296709 -0.229559 0 0.0032984
456 2 3 31.1018 160.499898616399093 -6.50894e-19 2.5975745613400254 -0.233131 0 0.00262932
457 2 3 31.1018 163.499898616399747 -6.62728e-19 2.59757456080708371 -0.236702 0 0.00196025
458 2 3 31.1018 166.499898616400401 -6.74563e-19 2.59757456027414202 -0.240274 0 0.00129117
459 2 3 31.1018 169.499898616401083 -6.86397e-19 2.59757455974120033 -0.243845 0 0.000622091
460 2 3 31.1018 172.499898616401737 -6.98232e-19 2.59757455920825864 -0.247417 0 -4.69894e-05
461 2 3 31.1018 175.49989861640239 -7.10066e-19 2.59757455867531695 -0.250988 0 -0.000715826
462 2 3 31.1018 178.499898616403044 -7.219e-19 2.59757455814237526 -0.254558 0 -0.00138451
463 2 3 31.1018 181.499898616403726 -7.33735e-19 2.59757455760943357 -0.258129 0 -0.00205319
464 2 3 31.1018 184.49989861640438 -7.45569e-19 2.59757455707649187 -0.2617 0 -0.00272188
465 2 3 31.1018 187.499898616405034 -7.57404e-19 2.59757455654355018 -0.265271 0 -0.00339056
466 2 3 31.1018 190.499898616405687 -7.69238e-19 2.59757455601060849 -0.268842 0 -0.00405925
467 2 3 31.1018 193.499898616406369 -7.81073e-19 2.5975745554776668 -0.272412 0 -0.00472795
468 2 3 31.1018 196.499898616407023 -7.92907e-19 2.59757455494472511 -0.275983 0 -0.00539664
469 2 3 31.1018 199.499898616407677 -8.04741e-19 2.59757455441178342 -0.279554 0 -0.00606533
470 2 3 31.1018 202.499898616408331 -8.16576e-19 2.59757455387884173 -0.283125 0 -0.00673403
471 2 3 31.1018 205.499898616409013 -8.2841e-19 2.59757455334590004 -0.286696 0 -0.00740273
472 2 3 31.1018 208.499898616409666 -8.40245e-19 2.59757455281295835 -0.290263 0 -0.00807344
473 2 3 31.1018 211.49989861641032 -8.52079e-19 2.59757455228001666 -0.29383 0 -0.00874414
474 2 3 31.1018 214.499898616410974 -8.63914e-19 2.59757455174707497 -0.297398 0 -0.00941486
475 2 3 31.1018 217.499898616411656 -8.75748e-19 2.59757455121413328 -0.300965 0 -0.0100856
476 2 3 31.1018 220.49989861641231 -8.87583e-19 2.59757455068119159 -0.304533 0 -0.0107563
477 2 3 31.1018 223.499898616412963 -8.99417e-19 2.59757455014824989 -0.3081 0 -0.011427
226 1 3 31.1018 225 0 0 0 0 0
227 1 3 31.1018 228 0 0 0 0 0
228 1 3 31.1018 231 0 0 0 0 0
229 1 3 31.1018 234 0 0 0 0 0
230 1 3 31.1018 237 0 0 0 0 0
231 1 3 31.1018 240 0 0 0 0 0
232 1 3 31.1018 243 0 0 0 0 0
233 1 3 31.1018 246 0 0 0 0 0
234 1 3 31.1018 249 0 0 0 0 0
235 1 3 31.1018 252 0 0 0 0 0
236 1 3 31.1018 255 0 0 0 0 0
237 1 3 31.1018 258 0 0 0 0 0
238 1 3 31.1018 261 0 0 0 0 0
239 1 3 31.1018 264 0 0 0 0 0
240 1 3 31.1018 267 0 0 0 0 0
241 1 3 31.1018 270 0 0 0 0 0
242 1 3 31.1018 273 0 0 0 0 0
243 1 3 31.1018 276 0 0 0 0 0
244 1 3 31.1018 279 0 0 0 0 0
245 1 3 31.1018 282 0 0 0 0 0
246 1 3 31.1018 285 0 0 0 0 0
247 1 3 31.1018 288 0 0 0 0 0
248 1 3 31.1018 291 0 0 0 0 0
249 1 3 31.1018 294 0 0 0 0 0
250 1 3 31.1018 297 0 0 0 0 0
251 1 3 31.1018 300 0 0 0 0 0
252 1 3 31.1018 303 0 0 0 0 0
253 1 3 31.1018 306 0 0 0 0 0
254 1 3 31.1018 309 0 0 0 0 0
255 1 3 31.1018 312 0 0 0 0 0
256 1 3 31.1018 315 0 0 0 0 0
257 1 3 31.1018 318 0 0 0 0 0
258 1 3 31.1018 321 0 0 0 0 0
259 1 3 31.1018 324 0 0 0 0 0
260 1 3 31.1018 327 0 0 0 0 0
261 1 3 31.1018 330 0 0 0 0 0
262 1 3 31.1018 333 0 0 0 0 0
263 1 3 31.1018 336 0 0 0 0 0
264 1 3 31.1018 339 0 0 0 0 0
265 1 3 31.1018 342 0 0 0 0 0
266 1 3 31.1018 345 0 0 0 0 0
267 1 3 31.1018 348 0 0 0 0 0
268 1 3 31.1018 351 0 0 0 0 0
269 1 3 31.1018 354 0 0 0 0 0
270 1 3 31.1018 357 0 0 0 0 0
271 1 3 31.1018 360 0 0 0 0 0
272 1 3 31.1018 363 0 0 0 0 0
273 1 3 31.1018 366 0 0 0 0 0
274 1 3 31.1018 369 0 0 0 0 0
275 1 3 31.1018 372 0 0 0 0 0
276 1 3 31.1018 375 0 0 0 0 0
277 1 3 31.1018 378 0 0 0 0 0
278 1 3 31.1018 381 0 0 0 0 0
279 1 3 31.1018 384 0 0 0 0 0
280 1 3 31.1018 387 0 0 0 0 0
281 1 3 31.1018 390 0 0 0 0 0
282 1 3 31.1018 393 0 0 0 0 0
283 1 3 31.1018 396 0 0 0 0 0
284 1 3 31.1018 399 0 0 0 0 0
285 1 3 31.1018 402 0 0 0 0 0
286 1 3 31.1018 405 0 0 0 0 0
287 1 3 31.1018 408 0 0 0 0 0
288 1 3 31.1018 411 0 0 0 0 0
289 1 3 31.1018 414 0 0 0 0 0
290 1 3 31.1018 417 0 0 0 0 0
291 1 3 31.1018 420 0 0 0 0 0
292 1 3 31.1018 423 0 0 0 0 0
293 1 3 31.1018 426 0 0 0 0 0
294 1 3 31.1018 429 0 0 0 0 0
295 1 3 31.1018 432 0 0 0 0 0
296 1 3 31.1018 435 0 0 0 0 0
297 1 3 31.1018 438 0 0 0 0 0
298 1 3 31.1018 441 0 0 0 0 0
299 1 3 31.1018 444 0 0 0 0 0
300 1 3 31.1018 447 0 0 0 0 0
478 2 3 31.1018 226.499898616413617 -9.11251e-19 2.5975745496153082 -0.311667 0 -0.0120977
479 2 3 31.1018 229.499898616414299 -9.23086e-19 2.59757454908236651 -0.315235 0 -0.0127684
480 2 3 31.1018 232.499898616414953 -9.3492e-19 2.59757454854942482 -0.318802 0 -0.0134392
481 2 3 31.1018 235.499898616415607 -9.46755e-19 2.59757454801648313 -0.32237 0 -0.0141099
482 2 3 31.1018 238.49989861641626 -9.58589e-19 2.59757454748354144 -0.325937 0 -0.0147806
483 2 3 31.1018 241.499898616416942 -9.70424e-19 2.59757454695059975 -0.329504 0 -0.0154513
484 2 3 31.1018 244.499898616417596 -9.82258e-19 2.59757454641765806 -0.333072 0 -0.0161221
485 2 3 31.1018 247.49989861641825 -9.94092e-19 2.59757454588471637 -0.336639 0 -0.0167928
486 2 3 31.1018 250.499898616418903 -1.00593e-18 2.59757454535177468 -0.340207 0 -0.0174635
487 2 3 31.1018 253.499898616419586 -1.01776e-18 2.59757454481883299 -0.343774 0 -0.0181343
488 2 3 31.1018 256.499898616420182 -1.0296e-18 2.5975745442858913 -0.347341 0 -0.018805
489 2 3 31.1018 259.499898616420865 -1.04143e-18 2.59757454375294961 -0.350909 0 -0.0194757
490 2 3 31.1018 262.499898616421547 -1.05326e-18 2.59757454322000791 -0.354476 0 -0.0201465
491 2 3 31.1018 265.499898616422172 -1.0651e-18 2.59757454268706622 -0.35804 0 -0.0208191
492 2 3 31.1018 268.499898616422854 -1.07693e-18 2.59757454215412453 -0.361604 0 -0.0214919
493 2 3 31.1018 271.499898616423536 -1.08877e-18 2.59757454162118284 -0.365168 0 -0.0221646
494 2 3 31.1018 274.499898616424161 -1.1006e-18 2.59757454108824115 -0.368732 0 -0.0228374
495 2 3 31.1018 277.499898616424844 -1.11244e-18 2.59757454055529946 -0.372296 0 -0.0235101
496 2 3 31.1018 280.499898616425469 -1.12427e-18 2.59757454002235777 -0.37586 0 -0.0241829
497 2 3 31.1018 283.499898616426151 -1.13611e-18 2.59757453948941608 -0.379424 0 -0.0248556
498 2 3 31.1018 286.499898616426833 -1.14794e-18 2.59757453895647439 -0.382988 0 -0.0255284
499 2 3 31.1018 289.499898616427458 -1.15977e-18 2.5975745384235327 -0.386552 0 -0.0262011
500 2 3 31.1018 292.49989861642814 -1.17161e-18 2.59757453789059101 -0.390116 0 -0.0268739
501 2 3 31.1018 295.499898616428823 -1.18344e-18 2.59757453735764932 -0.39368 0 -0.0275467
