ITEM: TIMESTEP
3500000
ITEM: NUMBER OF ATOMS
3751
ITEM: BOX BOUNDS pp pp pp
-3.3750000000000000e+03 3.3750000000000000e+03
-1.0000000000000000e+02 1.0000000000000000e+02
-1.0000000000000000e+02 1.0000000000000000e+02
ITEM: ATOMS id type diameter mass xu yu zu fx fy fz
1 1 3 31.1018 -3375 0 0 0 0 0
2 1 3 31.1018 -3372 0 0 0 0 0
3 1 3 31.1018 -3369 0 0 0 0 0
4 1 3 31.1018 -3366 0 0 0 0 0
5 1 3 31.1018 -3363 0 0 0 0 0
6 1 3 31.1018 -3360 0 0 0 0 0
7 1 3 31.1018 -3357 0 0 0 0 0
8 1 3 31.1018 -3354 0 0 0 0 0
9 1 3 31.1018 -3351 0 0 0 0 0
10 1 3 31.1018 -3348 0 0 0 0 0
11 1 3 31.1018 -3345 0 0 0 0 0
12 1 3 31.1018 -3342 0 0 0 0 0
13 1 3 31.1018 -3339 0 0 0 0 0
14 1 3 31.1018 -3336 0 0 0 0 0
15 1 3 31.1018 -3333 0 0 0 0 0
16 1 3 31.1018 -3330 0 0 0 0 0
17 1 3 31.1018 -3327 0 0 0 0 0
18 1 3 31.1018 -3324 0 0 0 0 0
19 1 3 31.1018 -3321 0 0 0 0 0
20 1 3 31.1018 -3318 0 0 0 0 0
21 1 3 31.1018 -3315 0 0 0 0 0
22 1 3 31.1018 -3312 0 0 0 0 0
23 1 3 31.1018 -3309 0 0 0 0 0
24 1 3 31.1018 -3306 0 0 0 0 0
25 1 3 31.1018 -3303 0 0 0 0 0
26 1 3 31.1018 -3300 0 0 0 0 0
27 1 3 31.1018 -3297 0 0 0 0 0
28 1 3 31.1018 -3294 0 0 0 0 0
29 1 3 31.1018 -3291 0 0 0 0 0
30 1 3 31.1018 -3288 0 0 0 0 0
31 1 3 31.1018 -3285 0 0 0 0 0
32 1 3 31.1018 -3282 0 0 0 0 0
33 1 3 31.1018 -3279 0 0 0 0 0
34 1 3 31.1018 -3276 0 0 0 0 0
35 1 3 31.1018 -3273 0 0 0 0 0
36 1 3 31.1018 -3270 0 0 0 0 0
37 1 3 31.1018 -3267 0 0 0 0 0
38 1 3 31.1018 -3264 0 0 0 0 0
39 1 3 31.1018 -3261 0 0 0 0 0
40 1 3 31.1018 -3258 0 0 0 0 0
41 1 3 31.1018 -3255 0 0 0 0 0
42 1 3 31.1018 -3252 0 0 0 0 0
43 1 3 31.1018 -3249 0 0 0 0 0
44 1 3 31.1018 -3246 0 0 0 0 0
45 1 3 31.1018 -3243 0 0 0 0 0
46 1 3 31.1018 -3240 0 0 0 0 0
47 1 3 31.1018 -3237 0 0 0 0 0
48 1 3 31.1018 -3234 0 0 0 0 0
49 1 3 31.1018 -3231 0 0 0 0 0
50 1 3 31.1018 -3228 0 0 0 0 0
51 1 3 31.1018 -3225 0 0 0 0 0
52 1 3 31.1018 -3222 0 0 0 0 0
53 1 3 31.1018 -3219 0 0 0 0 0
54 1 3 31.1018 -3216 0 0 0 0 0
55 1 3 31.1018 -3213 0 0 0 0 0
56 1 3 31.1018 -3210 0 0 0 0 0
57 1 3 31.1018 -3207 0 0 0 0 0
58 1 3 31.1018 -3204 0 0 0 0 0
59 1 3 31.1018 -3201 0 0 0 0 0
60 1 3 31.1018 -3198 0 0 0 0 0
61 1 3 31.1018 -3195 0 0 0 0 0
62 1 3 31.1018 -3192 0 0 0 0 0
63 1 3 31.1018 -3189 0 0 0 0 0
64 1 3 31.1018 -3186 0 0 0 0 0
65 1 3 31.1018 -3183 0 0 0 0 0
66 1 3 31.1018 -3180 0 0 0 0 0
67 1 3 31.1018 -3177 0 0 0 0 0
68 1 3 31.1018 -3174 0 0 0 0 0
69 1 3 31.1018 -3171 0 0 0 0 0
70 1 3 31.1018 -3168 0 0 0 0 0
71 1 3 31.1018 -3165 0 0 0 0 0
72 1 3 31.1018 -3162 0 0 0 0 0
73 1 3 31.1018 -3159 0 0 0 0 0
74 1 3 31.1018 -3156 0 0 0 0 0
75 1 3 31.1018 -3153 0 0 0 0 0
76 1 3 31.1018 -3150 0 0 0 0 0
77 1 3 31.1018 -3147 0 0 0 0 0
78 1 3 31.1018 -3144 0 0 0 0 0
79 1 3 31.1018 -3141 0 0 0 0 0
80 1 3 31.1018 -3138 0 0 0 0 0
81 1 3 31.1018 -3135 0 0 0 0 0
82 1 3 31.1018 -3132 0 0 0 0 0
83 1 3 31.1018 -3129 0 0 0 0 0
84 1 3 31.1018 -3126 0 0 0 0 0
85 1 3 31.1018 -3123 0 0 0 0 0
86 1 3 31.1018 -3120 0 0 0 0 0
87 1 3 31.1018 -3117 0 0 0 0 0
88 1 3 31.1018 -3114 0 0 0 0 0
89 1 3 31.1018 -3111 0 0 0 0 0
90 1 3 31.1018 -3108 0 0 0 0 0
91 1 3 31.1018 -3105 0 0 0 0 0
92 1 3 31.1018 -3102 0 0 0 0 0
93 1 3 31.1018 -3099 0 0 0 0 0
94 1 3 31.1018 -3096 0 0 0 0 0
95 1 3 31.1018 -3093 0 0 0 0 0
96 1 3 31.1018 -3090 0 0 0 0 0
97 1 3 31.1018 -3087 0 0 0 0 0
98 1 3 31.1018 -3084 0 0 0 0 0
99 1 3 31.1018 -3081 0 0 0 0 0
100 1 3 31.1018 -3078 0 0 0 0 0
101 1 3 31.1018 -3075 0 0 0 0 0
102 1 3 31.1018 -3072 0 0 0 0 0
103 1 3 31.1018 -3069 0 0 0 0 0
104 1 3 31.1018 -3066 0 0 0 0 0
105 1 3 31.1018 -3063 0 0 0 0 0
106 1 3 31.1018 -3060 0 0 0 0 0
107 1 3 31.1018 -3057 0 0 0 0 0
108 1 3 31.1018 -3054 0 0 0 0 0
109 1 3 31.1018 -3051 0 0 0 0 0
110 1 3 31.1018 -3048 0 0 0 0 0
111 1 3 31.1018 -3045 0 0 0 0 0
112 1 3 31.1018 -3042 0 0 0 0 0
113 1 3 31.1018 -3039 0 0 0 0 0
114 1 3 31.1018 -3036 0 0 0 0 0
115 1 3 31.1018 -3033 0 0 0 0 0
116 1 3 31.1018 -3030 0 0 0 0 0
117 1 3 31.1018 -3027 0 0 0 0 0
118 1 3 31.1018 -3024 0 0 0 0 0
119 1 3 31.1018 -3021 0 0 0 0 0
120 1 3 31.1018 -3018 0 0 0 0 0
121 1 3 31.1018 -3015 0 0 0 0 0
122 1 3 31.1018 -3012 0 0 0 0 0
123 1 3 31.1018 -3009 0 0 0 0 0
124 1 3 31.1018 -3006 0 0 0 0 0
125 1 3 31.1018 -3003 0 0 0 0 0
126 1 3 31.1018 -3000 0 0 0 0 0
127 1 3 31.1018 -2997 0 0 0 0 0
128 1 3 31.1018 -2994 0 0 0 0 0
129 1 3 31.1018 -2991 0 0 0 0 0
130 1 3 31.1018 -2988 0 0 0 0 0
131 1 3 31.1018 -2985 0 0 0 0 0
132 1 3 31.1018 -2982 0 0 0 0 0
133 1 3 31.1018 -2979 0 0 0 0 0
134 1 3 31.1018 -2976 0 0 0 0 0
135 1 3 31.1018 -2973 0 0 0 0 0
136 1 3 31.1018 -2970 0 0 0 0 0
137 1 3 31.1018 -2967 0 0 0 0 0
138 1 3 31.1018 -2964 0 0 0 0 0
139 1 3 31.1018 -2961 0 0 0 0 0
140 1 3 31.1018 -2958 0 0 0 0 0
141 1 3 31.1018 -2955 0 0 0 0 0
142 1 3 31.1018 -2952 0 0 0 0 0
143 1 3 31.1018 -2949 0 0 0 0 0
144 1 3 31.1018 -2946 0 0 0 0 0
145 1 3 31.1018 -2943 0 0 0 0 0
146 1 3 31.1018 -2940 0 0 0 0 0
147 1 3 31.1018 -2937 0 0 0 0 0
148 1 3 31.1018 -2934 0 0 0 0 0
149 1 3 31.1018 -2931 0 0 0 0 0
150 1 3 31.1018 -2928 0 0 0 0 0
151 1 3 31.1018 -2925 0 0 0 0 0
152 1 3 31.1018 -2922 0 0 0 0 0
153 1 3 31.1018 -2919 0 0 0 0 0
154 1 3 31.1018 -2916 0 0 0 0 0
155 1 3 31.1018 -2913 0 0 0 0 0
156 1 3 31.1018 -2910 0 0 0 0 0
157 1 3 31.1018 -2907 0 0 0 0 0
158 1 3 31.1018 -2904 0 0 0 0 0
159 1 3 31.1018 -2901 0 0 0 0 0
160 1 3 31.1018 -2898 0 0 0 0 0
161 1 3 31.1018 -2895 0 0 0 0 0
162 1 3 31.1018 -2892 0 0 0 0 0
163 1 3 31.1018 -2889 0 0 0 0 0
164 1 3 31.1018 -2886 0 0 0 0 0
165 1 3 31.1018 -2883 0 0 0 0 0
166 1 3 31.1018 -2880 0 0 0 0 0
167 1 3 31.1018 -2877 0 0 0 0 0
168 1 3 31.1018 -2874 0 0 0 0 0
169 1 3 31.1018 -2871 0 0 0 0 0
170 1 3 31.1018 -2868 0 0 0 0 0
171 1 3 31.1018 -2865 0 0 0 0 0
172 1 3 31.1018 -2862 0 0 0 0 0
173 1 3 31.1018 -2859 0 0 0 0 0
174 1 3 31.1018 -2856 0 0 0 0 0
175 1 3 31.1018 -2853 0 0 0 0 0
176 1 3 31.1018 -2850 0 0 0 0 0
177 1 3 31.1018 -2847 0 0 0 0 0
178 1 3 31.1018 -2844 0 0 0 0 0
179 1 3 31.1018 -2841 0 0 0 0 0
180 1 3 31.1018 -2838 0 0 0 0 0
181 1 3 31.1018 -2835 0 0 0 0 0
182 1 3 31.1018 -2832 0 0 0 0 0
183 1 3 31.1018 -2829 0 0 0 0 0
184 1 3 31.1018 -2826 0 0 0 0 0
185 1 3 31.1018 -2823 0 0 0 0 0
186 1 3 31.1018 -2820 0 0 0 0 0
187 1 3 31.1018 -2817 0 0 0 0 0
188 1 3 31.1018 -2814 0 0 0 0 0
189 1 3 31.1018 -2811 0 0 0 0 0
190 1 3 31.1018 -2808 0 0 0 0 0
191 1 3 31.1018 -2805 0 0 0 0 0
192 1 3 31.1018 -2802 0 0 0 0 0
193 1 3 31.1018 -2799 0 0 0 0 0
194 1 3 31.1018 -2796 0 0 0 0 0
195 1 3 31.1018 -2793 0 0 0 0 0
196 1 3 31.1018 -2790 0 0 0 0 0
197 1 3 31.1018 -2787 0 0 0 0 0
198 1 3 31.1018 -2784 0 0 0 0 0
199 1 3 31.1018 -2781 0 0 0 0 0
200 1 3 31.1018 -2778 0 0 0 0 0
201 1 3 31.1018 -2775 0 0 0 0 0
202 1 3 31.1018 -2772 0 0 0 0 0
203 1 3 31.1018 -2769 0 0 0 0 0
204 1 3 31.1018 -2766 0 0 0 0 0
205 1 3 31.1018 -2763 0 0 0 0 0
206 1 3 31.1018 -2760 0 0 0 0 0
207 1 3 31.1018 -2757 0 0 0 0 0
208 1 3 31.1018 -2754 0 0 0 0 0
209 1 3 31.1018 -2751 0 0 0 0 0
210 1 3 31.1018 -2748 0 0 0 0 0
211 1 3 31.1018 -2745 0 0 0 0 0
212 1 3 31.1018 -2742 0 0 0 0 0
213 1 3 31.1018 -2739 0 0 0 0 0
214 1 3 31.1018 -2736 0 0 0 0 0
215 1 3 31.1018 -2733 0 0 0 0 0
216 1 3 31.1018 -2730 0 0 0 0 0
217 1 3 31.1018 -2727 0 0 0 0 0
218 1 3 31.1018 -2724 0 0 0 0 0
219 1 3 31.1018 -2721 0 0 0 0 0
220 1 3 31.1018 -2718 0 0 0 0 0
221 1 3 31.1018 -2715 0 0 0 0 0
222 1 3 31.1018 -2712 0 0 0 0 0
223 1 3 31.1018 -2709 0 0 0 0 0
224 1 3 31.1018 -2706 0 0 0 0 0
225 1 3 31.1018 -2703 0 0 0 0 0
226 1 3 31.1018 -2700 0 0 0 0 0
227 1 3 31.1018 -2697 0 0 0 0 0
228 1 3 31.1018 -2694 0 0 0 0 0
229 1 3 31.1018 -2691 0 0 0 0 0
230 1 3 31.1018 -2688 0 0 0 0 0
231 1 3 31.1018 -2685 0 0 0 0 0
232 1 3 31.1018 -2682 0 0 0 0 0
233 1 3 31.1018 -2679 0 0 0 0 0
234 1 3 31.1018 -2676 0 0 0 0 0
235 1 3 31.1018 -2673 0 0 0 0 0
236 1 3 31.1018 -2670 0 0 0 0 0
237 1 3 31.1018 -2667 0 0 0 0 0
238 1 3 31.1018 -2664 0 0 0 0 0
239 1 3 31.1018 -2661 0 0 0 0 0
240 1 3 31.1018 -2658 0 0 0 0 0
241 1 3 31.1018 -2655 0 0 0 0 0
242 1 3 31.1018 -2652 0 0 0 0 0
243 1 3 31.1018 -2649 0 0 0 0 0
244 1 3 31.1018 -2646 0 0 0 0 0
245 1 3 31.1018 -2643 0 0 0 0 0
246 1 3 31.1018 -2640 0 0 0 0 0
247 1 3 31.1018 -2637 0 0 0 0 0
248 1 3 31.1018 -2634 0 0 0 0 0
249 1 3 31.1018 -2631 0 0 0 0 0
250 1 3 31.1018 -2628 0 0 0 0 0
251 1 3 31.1018 -2625 0 0 0 0 0
252 1 3 31.1018 -2622 0 0 0 0 0
253 1 3 31.1018 -2619 0 0 0 0 0
254 1 3 31.1018 -2616 0 0 0 0 0
255 1 3 31.1018 -2613 0 0 0 0 0
256 1 3 31.1018 -2610 0 0 0 0 0
257 1 3 31.1018 -2607 0 0 0 0 0
258 1 3 31.1018 -2604 0 0 0 0 0
259 1 3 31.1018 -2601 0 0 0 0 0
260 1 3 31.1018 -2598 0 0 0 0 0
261 1 3 31.1018 -2595 0 0 0 0 0
262 1 3 31.1018 -2592 0 0 0 0 0
263 1 3 31.1018 -2589 0 0 0 0 0
264 1 3 31.1018 -2586 0 0 0 0 0
265 1 3 31.1018 -2583 0 0 0 0 0
266 1 3 31.1018 -2580 0 0 0 0 0
267 1 3 31.1018 -2577 0 0 0 0 0
268 1 3 31.1018 -2574 0 0 0 0 0
269 1 3 31.1018 -2571 0 0 0 0 0
270 1 3 31.1018 -2568 0 0 0 0 0
271 1 3 31.1018 -2565 0 0 0 0 0
272 1 3 31.1018 -2562 0 0 0 0 0
273 1 3 31.1018 -2559 0 0 0 0 0
274 1 3 31.1018 -2556 0 0 0 0 0
275 1 3 31.1018 -2553 0 0 0 0 0
276 1 3 31.1018 -2550 0 0 0 0 0
277 1 3 31.1018 -2547 0 0 0 0 0
278 1 3 31.1018 -2544 0 0 0 0 0
279 1 3 31.1018 -2541 0 0 0 0 0
280 1 3 31.1018 -2538 0 0 0 0 0
281 1 3 31.1018 -2535 0 0 0 0 0
282 1 3 31.1018 -2532 0 0 0 0 0
283 1 3 31.1018 -2529 0 0 0 0 0
284 1 3 31.1018 -2526 0 0 0 0 0
285 1 3 31.1018 -2523 0 0 0 0 0
286 1 3 31.1018 -2520 0 0 0 0 0
287 1 3 31.1018 -2517 0 0 0 0 0
288 1 3 31.1018 -2514 0 0 0 0 0
289 1 3 31.1018 -2511 0 0 0 0 0
290 1 3 31.1018 -2508 0 0 0 0 0
291 1 3 31.1018 -2505 0 0 0 0 0
292 1 3 31.1018 -2502 0 0 0 0 0
293 1 3 31.1018 -2499 0 0 0 0 0
294 1 3 31.1018 -2496 0 0 0 0 0
295 1 3 31.1018 -2493 0 0 0 0 0
296 1 3 31.1018 -2490 0 0 0 0 0
297 1 3 31.1018 -2487 0 0 0 0 0
298 1 3 31.1018 -2484 0 0 0 0 0
299 1 3 31.1018 -2481 0 0 0 0 0
300 1 3 31.1018 -2478 0 0 0 0 0
301 1 3 31.1018 -2475 0 0 0 0 0
302 1 3 31.1018 -2472 0 0 0 0 0
303 1 3 31.1018 -2469 0 0 0 0 0
304 1 3 31.1018 -2466 0 0 0 0 0
305 1 3 31.1018 -2463 0 0 0 0 0
306 1 3 31.1018 -2460 0 0 0 0 0
307 1 3 31.1018 -2457 0 0 0 0 0
308 1 3 31.1018 -2454 0 0 0 0 0
309 1 3 31.1018 -2451 0 0 0 0 0
310 1 3 31.1018 -2448 0 0 0 0 0
311 1 3 31.1018 -2445 0 0 0 0 0
312 1 3 31.1018 -2442 0 0 0 0 0
313 1 3 31.1018 -2439 0 0 0 0 0
314 1 3 31.1018 -2436 0 0 0 0 0
315 1 3 31.1018 -2433 0 0 0 0 0
316 1 3 31.1018 -2430 0 0 0 0 0
317 1 3 31.1018 -2427 0 0 0 0 0
318 1 3 31.1018 -2424 0 0 0 0 0
319 1 3 31.1018 -2421 0 0 0 0 0
320 1 3 31.1018 -2418 0 0 0 0 0
321 1 3 31.1018 -2415 0 0 0 0 0
322 1 3 31.1018 -2412 0 0 0 0 0
323 1 3 31.1018 -2409 0 0 0 0 0
324 1 3 31.1018 -2406 0 0 0 0 0
325 1 3 31.1018 -2403 0 0 0 0 0
326 1 3 31.1018 -2400 0 0 0 0 0
327 1 3 31.1018 -2397 0 0 0 0 0
328 1 3 31.1018 -2394 0 0 0 0 0
329 1 3 31.1018 -2391 0 0 0 0 0
330 1 3 31.1018 -2388 0 0 0 0 0
331 1 3 31.1018 -2385 0 0 0 0 0
332 1 3 31.1018 -2382 0 0 0 0 0
333 1 3 31.1018 -2379 0 0 0 0 0
334 1 3 31.1018 -2376 0 0 0 0 0
335 1 3 31.1018 -2373 0 0 0 0 0
336 1 3 31.1018 -2370 0 0 0 0 0
337 1 3 31.1018 -2367 0 0 0 0 0
338 1 3 31.1018 -2364 0 0 0 0 0
339 1 3 31.1018 -2361 0 0 0 0 0
340 1 3 31.1018 -2358 0 0 0 0 0
341 1 3 31.1018 -2355 0 0 0 0 0
342 1 3 31.1018 -2352 0 0 0 0 0
343 1 3 31.1018 -2349 0 0 0 0 0
344 1 3 31.1018 -2346 0 0 0 0 0
345 1 3 31.1018 -2343 0 0 0 0 0
346 1 3 31.1018 -2340 0 0 0 0 0
347 1 3 31.1018 -2337 0 0 0 0 0
348 1 3 31.1018 -2334 0 0 0 0 0
349 1 3 31.1018 -2331 0 0 0 0 0
350 1 3 31.1018 -2328 0 0 0 0 0
351 1 3 31.1018 -2325 0 0 0 0 0
352 1 3 31.1018 -2322 0 0 0 0 0
353 1 3 31.1018 -2319 0 0 0 0 0
354 1 3 31.1018 -2316 0 0 0 0 0
355 1 3 31.1018 -2313 0 0 0 0 0
356 1 3 31.1018 -2310 0 0 0 0 0
357 1 3 31.1018 -2307 0 0 0 0 0
358 1 3 31.1018 -2304 0 0 0 0 0
359 1 3 31.1018 -2301 0 0 0 0 0
360 1 3 31.1018 -2298 0 0 0 0 0
361 1 3 31.1018 -2295 0 0 0 0 0
362 1 3 31.1018 -2292 0 0 0 0 0
363 1 3 31.1018 -2289 0 0 0 0 0
364 1 3 31.1018 -2286 0 0 0 0 0
365 1 3 31.1018 -2283 0 0 0 0 0
366 1 3 31.1018 -2280 0 0 0 0 0
367 1 3 31.1018 -2277 0 0 0 0 0
368 1 3 31.1018 -2274 0 0 0 0 0
369 1 3 31.1018 -2271 0 0 0 0 0
370 1 3 31.1018 -2268 0 0 0 0 0
371 1 3 31.1018 -2265 0 0 0 0 0
372 1 3 31.1018 -2262 0 0 0 0 0
373 1 3 31.1018 -2259 0 0 0 0 0
374 1 3 31.1018 -2256 0 0 0 0 0
375 1 3 31.1018 -2253 0 0 0 0 0
376 1 3 31.1018 -2250 0 0 0 0 0
377 1 3 31.1018 -2247 0 0 0 0 0
378 1 3 31.1018 -2244 0 0 0 0 0
379 1 3 31.1018 -2241 0 0 0 0 0
380 1 3 31.1018 -2238 0 0 0 0 0
381 1 3 31.1018 -2235 0 0 0 0 0
382 1 3 31.1018 -2232 0 0 0 0 0
383 1 3 31.1018 -2229 0 0 0 0 0
384 1 3 31.1018 -2226 0 0 0 0 0
385 1 3 31.1018 -2223 0 0 0 0 0
386 1 3 31.1018 -2220 0 0 0 0 0
387 1 3 31.1018 -2217 0 0 0 0 0
388 1 3 31.1018 -2214 0 0 0 0 0
389 1 3 31.1018 -2211 0 0 0 0 0
390 1 3 31.1018 -2208 0 0 0 0 0
391 1 3 31.1018 -2205 0 0 0 0 0
392 1 3 31.1018 -2202 0 0 0 0 0
393 1 3 31.1018 -2199 0 0 0 0 0
394 1 3 31.1018 -2196 0 0 0 0 0
395 1 3 31.1018 -2193 0 0 0 0 0
396 1 3 31.1018 -2190 0 0 0 0 0
397 1 3 31.1018 -2187 0 0 0 0 0
398 1 3 31.1018 -2184 0 0 0 0 0
399 1 3 31.1018 -2181 0 0 0 0 0
400 1 3 31.1018 -2178 0 0 0 0 0
401 1 3 31.1018 -2175 0 0 0 0 0
402 1 3 31.1018 -2172 0 0 0 0 0
403 1 3 31.1018 -2169 0 0 0 0 0
404 1 3 31.1018 -2166 0 0 0 0 0
405 1 3 31.1018 -2163 0 0 0 0 0
406 1 3 31.1018 -2160 0 0 0 0 0
407 1 3 31.1018 -2157 0 0 0 0 0
408 1 3 31.1018 -2154 0 0 0 0 0
409 1 3 31.1018 -2151 0 0 0 0 0
410 1 3 31.1018 -2148 0 0 0 0 0
411 1 3 31.1018 -2145 0 0 0 0 0
412 1 3 31.1018 -2142 0 0 0 0 0
413 1 3 31.1018 -2139 0 0 0 0 0
414 1 3 31.1018 -2136 0 0 0 0 0
415 1 3 31.1018 -2133 0 0 0 0 0
416 1 3 31.1018 -2130 0 0 0 0 0
417 1 3 31.1018 -2127 0 0 0 0 0
418 1 3 31.1018 -2124 0 0 0 0 0
419 1 3 31.1018 -2121 0 0 0 0 0
420 1 3 31.1018 -2118 0 0 0 0 0
421 1 3 31.1018 -2115 0 0 0 0 0
422 1 3 31.1018 -2112 0 0 0 0 0
423 1 3 31.1018 -2109 0 0 0 0 0
424 1 3 31.1018 -2106 0 0 0 0 0
425 1 3 31.1018 -2103 0 0 0 0 0
426 1 3 31.1018 -2100 0 0 0 0 0
427 1 3 31.1018 -2097 0 0 0 0 0
428 1 3 31.1018 -2094 0 0 0 0 0
429 1 3 31.1018 -2091 0 0 0 0 0
430 1 3 31.1018 -2088 0 0 0 0 0
431 1 3 31.1018 -2085 0 0 0 0 0
432 1 3 31.1018 -2082 0 0 0 0 0
433 1 3 31.1018 -2079 0 0 0 0 0
434 1 3 31.1018 -2076 0 0 0 0 0
435 1 3 31.1018 -2073 0 0 0 0 0
436 1 3 31.1018 -2070 0 0 0 0 0
437 1 3 31.1018 -2067 0 0 0 0 0
438 1 3 31.1018 -2064 0 0 0 0 0
439 1 3 31.1018 -2061 0 0 0 0 0
440 1 3 31.1018 -2058 0 0 0 0 0
441 1 3 31.1018 -2055 0 0 0 0 0
442 1 3 31.1018 -2052 0 0 0 0 0
443 1 3 31.1018 -2049 0 0 0 0 0
444 1 3 31.1018 -2046 0 0 0 0 0
445 1 3 31.1018 -2043 0 0 0 0 0
446 1 3 31.1018 -2040 0 0 0 0 0
447 1 3 31.1018 -2037 0 0 0 0 0
448 1 3 31.1018 -2034 0 0 0 0 0
449 1 3 31.1018 -2031 0 0 0 0 0
450 1 3 31.1018 -2028 0 0 0 0 0
451 1 3 31.1018 -2025 0 0 0 0 0
452 1 3 31.1018 -2022 0 0 0 0 0
453 1 3 31.1018 -2019 0 0 0 0 0
454 1 3 31.1018 -2016 0 0 0 0 0
455 1 3 31.1018 -2013 0 0 0 0 0
456 1 3 31.1018 -2010 0 0 0 0 0
457 1 3 31.1018 -2007 0 0 0 0 0
458 1 3 31.1018 -2004 0 0 0 0 0
459 1 3 31.1018 -2001 0 0 0 0 0
460 1 3 31.1018 -1998 0 0 0 0 0
461 1 3 31.1018 -1995 0 0 0 0 0
462 1 3 31.1018 -1992 0 0 0 0 0
463 1 3 31.1018 -1989 0 0 0 0 0
464 1 3 31.1018 -1986 0 0 0 0 0
465 1 3 31.1018 -1983 0 0 0 0 0
466 1 3 31.1018 -1980 0 0 0 0 0
467 1 3 31.1018 -1977 0 0 0 0 0
468 1 3 31.1018 -1974 0 0 0 0 0
469 1 3 31.1018 -1971 0 0 0 0 0
470 1 3 31.1018 -1968 0 0 0 0 0
471 1 3 31.1018 -1965 0 0 0 0 0
472 1 3 31.1018 -1962 0 0 0 0 0
473 1 3 31.1018 -1959 0 0 0 0 0
474 1 3 31.1018 -1956 0 0 0 0 0
475 1 3 31.1018 -1953 0 0 0 0 0
476 1 3 31.1018 -1950 0 0 0 0 0
477 1 3 31.1018 -1947 0 0 0 0 0
478 1 3 31.1018 -1944 0 0 0 0 0
479 1 3 31.1018 -1941 0 0 0 0 0
480 1 3 31.1018 -1938 0 0 0 0 0
481 1 3 31.1018 -1935 0 0 0 0 0
482 1 3 31.1018 -1932 0 0 0 0 0
483 1 3 31.1018 -1929 0 0 0 0 0
484 1 3 31.1018 -1926 0 0 0 0 0
485 1 3 31.1018 -1923 0 0 0 0 0
486 1 3 31.1018 -1920 0 0 0 0 0
487 1 3 31.1018 -1917 0 0 0 0 0
488 1 3 31.1018 -1914 0 0 0 0 0
489 1 3 31.1018 -1911 0 0 0 0 0
490 1 3 31.1018 -1908 0 0 0 0 0
491 1 3 31.1018 -1905 0 0 0 0 0
492 1 3 31.1018 -1902 0 0 0 0 0
493 1 3 31.1018 -1899 0 0 0 0 0
494 1 3 31.1018 -1896 0 0 0 0 0
495 1 3 31.1018 -1893 0 0 0 0 0
496 1 3 31.1018 -1890 0 0 0 0 0
497 1 3 31.1018 -1887 0 0 0 0 0
498 1 3 31.1018 -1884 0 0 0 0 0
499 1 3 31.1018 -1881 0 0 0 0 0
500 1 3 31.1018 -1878 0 0 0 0 0
501 1 3 31.1018 -1875 0 0 0 0 0
502 1 3 31.1018 -1872 0 0 0 0 0
503 1 3 31.1018 -1869 0 0 0 0 0
504 1 3 31.1018 -1866 0 0 0 0 0
505 1 3 31.1018 -1863 0 0 0 0 0
506 1 3 31.1018 -1860 0 0 0 0 0
507 1 3 31.1018 -1857 0 0 0 0 0
508 1 3 31.1018 -1854 0 0 0 0 0
509 1 3 31.1018 -1851 0 0 0 0 0
510 1 3 31.1018 -1848 0 0 0 0 0
511 1 3 31.1018 -1845 0 0 0 0 0
512 1 3 31.1018 -1842 0 0 0 0 0
513 1 3 31.1018 -1839 0 0 0 0 0
514 1 3 31.1018 -1836 0 0 0 0 0
515 1 3 31.1018 -1833 0 0 0 0 0
516 1 3 31.1018 -1830 0 0 0 0 0
517 1 3 31.1018 -1827 0 0 0 0 0
518 1 3 31.1018 -1824 0 0 0 0 0
519 1 3 31.1018 -1821 0 0 0 0 0
520 1 3 31.1018 -1818 0 0 0 0 0
521 1 3 31.1018 -1815 0 0 0 0 0
522 1 3 31.1018 -1812 0 0 0 0 0
523 1 3 31.1018 -1809 0 0 0 0 0
524 1 3 31.1018 -1806 0 0 0 0 0
525 1 3 31.1018 -1803 0 0 0 0 0
526 1 3 31.1018 -1800 0 0 0 0 0
527 1 3 31.1018 -1797 0 0 0 0 0
528 1 3 31.1018 -1794 0 0 0 0 0
529 1 3 31.1018 -1791 0 0 0 0 0
530 1 3 31.1018 -1788 0 0 0 0 0
531 1 3 31.1018 -1785 0 0 0 0 0
532 1 3 31.1018 -1782 0 0 0 0 0
533 1 3 31.1018 -1779 0 0 0 0 0
534 1 3 31.1018 -1776 0 0 0 0 0
535 1 3 31.1018 -1773 0 0 0 0 0
536 1 3 31.1018 -1770 0 0 0 0 0
537 1 3 31.1018 -1767 0 0 0 0 0
538 1 3 31.1018 -1764 0 0 0 0 0
539 1 3 31.1018 -1761 0 0 0 0 0
540 1 3 31.1018 -1758 0 0 0 0 0
541 1 3 31.1018 -1755 0 0 0 0 0
542 1 3 31.1018 -1752 0 0 0 0 0
543 1 3 31.1018 -1749 0 0 0 0 0
544 1 3 31.1018 -1746 0 0 0 0 0
545 1 3 31.1018 -1743 0 0 0 0 0
546 1 3 31.1018 -1740 0 0 0 0 0
547 1 3 31.1018 -1737 0 0 0 0 0
548 1 3 31.1018 -1734 0 0 0 0 0
549 1 3 31.1018 -1731 0 0 0 0 0
550 1 3 31.1018 -1728 0 0 0 0 0
551 1 3 31.1018 -1725 0 0 0 0 0
552 1 3 31.1018 -1722 0 0 0 0 0
553 1 3 31.1018 -1719 0 0 0 0 0
554 1 3 31.1018 -1716 0 0 0 0 0
555 1 3 31.1018 -1713 0 0 0 0 0
556 1 3 31.1018 -1710 0 0 0 0 0
557 1 3 31.1018 -1707 0 0 0 0 0
558 1 3 31.1018 -1704 0 0 0 0 0
559 1 3 31.1018 -1701 0 0 0 0 0
560 1 3 31.1018 -1698 0 0 0 0 0
561 1 3 31.1018 -1695 0 0 0 0 0
562 1 3 31.1018 -1692 0 0 0 0 0
563 1 3 31.1018 -1689 0 0 0 0 0
2251 2 3 31.1018 -2254.50010138357356 3.27613e-21 2.59757462569917585 0.132783 0 -0.0520511
2252 2 3 31.1018 -2251.50010138357311 3.27176e-21 2.59757462568892716 0.132692 0 -0.0520498
2253 2 3 31.1018 -2248.50010138357266 3.26739e-21 2.59757462567867892 0.1326 0 -0.0520484
2254 2 3 31.1018 -2245.5001013835722 3.26302e-21 2.59757462566843023 0.132509 0 -0.052047
2255 2 3 31.1018 -2242.5001013835722 3.25865e-21 2.59757462565818198 0.132418 0 -0.0520455
2256 2 3 31.1018 -2239.50010138357175 3.25429e-21 2.59757462564793329 0.132327 0 -0.0520441
2257 2 3 31.1018 -2236.50010138357129 3.24992e-21 2.59757462563768504 0.132236 0 -0.0520428
2258 2 3 31.1018 -2233.50010138357084 3.24555e-21 2.59757462562743635 0.132145 0 -0.0520414
2259 2 3 31.1018 -2230.50010138357038 3.24118e-21 2.5975746256171881 0.132054 0 -0.05204
2260 2 3 31.1018 -2227.50010138356993 3.23681e-21 2.59757462560693941 0.131962 0 -0.0520386
2261 2 3 31.1018 -2224.50010138356947 3.23245e-21 2.59757462559669117 0.131871 0 -0.0520372
2262 2 3 31.1018 -2221.50010138356902 3.22808e-21 2.59757462558644248 0.13178 0 -0.0520358
2263 2 3 31.1018 -2218.50010138356856 3.22371e-21 2.59757462557619423 0.131689 0 -0.0520344
2264 2 3 31.1018 -2215.50010138356811 3.21934e-21 2.59757462556594554 0.131598 0 -0.052033
2265 2 3 31.1018 -2212.50010138356765 3.21497e-21 2.59757462555569729 0.131507 0 -0.0520316
2266 2 3 31.1018 -2209.5001013835672 3.2106e-21 2.5975746255454486 0.131415 0 -0.0520302
2267 2 3 31.1018 -2206.50010138356674 3.20624e-21 2.59757462553520035 0.131324 0 -0.0520288
2268 2 3 31.1018 -2203.50010138356629 3.20187e-21 2.59757462552495166 0.131233 0 -0.0520275
2269 2 3 31.1018 -2200.50010138356583 3.1975e-21 2.59757462551470342 0.131142 0 -0.0520261
2270 2 3 31.1018 -2197.50010138356538 3.19313e-21 2.59757462550445473 0.131051 0 -0.0520247
2271 2 3 31.1018 -2194.50010138356492 3.18876e-21 2.59757462549420648 0.130959 0 -0.0520233
2272 2 3 31.1018 -2191.50010138356447 3.1844e-21 2.59757462548395779 0.130868 0 -0.0520219
2273 2 3 31.1018 -2188.50010138356402 3.18003e-21 2.59757462547370954 0.130777 0 -0.0520205
2274 2 3 31.1018 -2185.50010138356356 3.17566e-21 2.59757462546346085 0.130686 0 -0.0520191
2275 2 3 31.1018 -2182.50010138356311 3.17129e-21 2.5975746254532126 0.130595 0 -0.0520177
2276 2 3 31.1018 -2179.50010138356265 3.16692e-21 2.59757462544296391 0.130503 0 -0.0520163
2277 2 3 31.1018 -2176.5001013835622 3.16255e-21 2.59757462543271567 0.130412 0 -0.0520149
2278 2 3 31.1018 -2173.50010138356174 3.15819e-21 2.59757462542246698 0.130321 0 -0.0520135
2279 2 3 31.1018 -2170.50010138356129 3.15382e-21 2.59757462541221873 0.13023 0 -0.0520122
2280 2 3 31.1018 -2167.50010138356083 3.14945e-21 2.59757462540197004 0.130139 0 -0.0520108
2281 2 3 31.1018 -2164.50010138356038 3.14508e-21 2.59757462539172179 0.130047 0 -0.0520094
2282 2 3 31.1018 -2161.50010138355992 3.14071e-21 2.5975746253814731 0.129956 0 -0.052008
2283 2 3 31.1018 -2158.50010138355947 3.13635e-21 2.59757462537122485 0.129865 0 -0.0520066
2284 2 3 31.1018 -2155.50010138355901 3.13198e-21 2.59757462536097616 0.129774 0 -0.0520052
2285 2 3 31.1018 -2152.50010138355856 3.12761e-21 2.59757462535072792 0.129683 0 -0.0520038
2286 2 3 31.1018 -2149.5001013835581 3.12324e-21 2.59757462534047923 0.129592 0 -0.0520024
2287 2 3 31.1018 -2146.50010138355765 3.11887e-21 2.59757462533023098 0.1295 0 -0.052001
2288 2 3 31.1018 -2143.50010138355719 3.1145e-21 2.59757462531998229 0.129409 0 -0.0519996
2289 2 3 31.1018 -2140.50010138355674 3.11014e-21 2.59757462530973404 0.129318 0 -0.0519983
2290 2 3 31.1018 -2137.50010138355674 3.10577e-21 2.59757462529948535 0.129227 0 -0.0519968
2291 2 3 31.1018 -2134.50010138355628 3.1014e-21 2.5975746252892371 0.129136 0 -0.0519954
2292 2 3 31.1018 -2131.50010138355583 3.09703e-21 2.59757462527898841 0.129045 0 -0.051994
2293 2 3 31.1018 -2128.50010138355537 3.09266e-21 2.59757462526874017 0.128954 0 -0.0519926
2294 2 3 31.1018 -2125.50010138355492 3.0883e-21 2.59757462525849148 0.128862 0 -0.0519913
2295 2 3 31.1018 -2122.50010138355447 3.08393e-21 2.59757462524824323 0.128771 0 -0.0519899
2296 2 3 31.1018 -2119.50010138355401 3.07956e-21 2.59757462523799454 0.12868 0 -0.0519885
2297 2 3 31.1018 -2116.50010138355356 3.07519e-21 2.59757462522774629 0.128589 0 -0.0519871
2298 2 3 31.1018 -2113.5001013835531 3.07082e-21 2.5975746252174976 0.128498 0 -0.0519857
2299 2 3 31.1018 -2110.50010138355265 3.06645e-21 2.59757462520724935 0.128407 0 -0.0519843
2300 2 3 31.1018 -2107.50010138355219 3.06209e-21 2.59757462519700066 0.128315 0 -0.0519829
2301 2 3 31.1018 -2104.50010138355174 3.05772e-21 2.59757462518675242 0.128224 0 -0.0519815
2302 2 3 31.1018 -2101.50010138355128 3.05335e-21 2.59757462517650373 0.128133 0 -0.0519801
2303 2 3 31.1018 -2098.50010138355083 3.04898e-21 2.59757462516625548 0.128042 0 -0.0519787
2304 2 3 31.1018 -2095.50010138355037 3.04461e-21 2.59757462515600679 0.127951 0 -0.0519773
2305 2 3 31.1018 -2092.50010138354992 3.04025e-21 2.59757462514575854 0.127859 0 -0.051976
2306 2 3 31.1018 -2089.50010138354946 3.03588e-21 2.59757462513550985 0.127768 0 -0.0519746
2307 2 3 31.1018 -2086.50010138354901 3.03151e-21 2.5975746251252616 0.127677 0 -0.0519732
2308 2 3 31.1018 -2083.50010138354855 3.02714e-21 2.59757462511501291 0.127586 0 -0.0519718
2309 2 3 31.1018 -2080.5001013835481 3.02277e-21 2.59757462510476467 0.127495 0 -0.0519704
2310 2 3 31.1018 -2077.50010138354764 3.0184e-21 2.59757462509451598 0.127403 0 -0.051969
2311 2 3 31.1018 -2074.50010138354719 3.01404e-21 2.59757462508426773 0.127312 0 -0.0519676
2312 2 3 31.1018 -2071.50010138354673 3.00967e-21 2.59757462507401904 0.127221 0 -0.0519662
2313 2 3 31.1018 -2068.50010138354628 3.0053e-21 2.59757462506377079 0.12713 0 -0.0519648
2314 2 3 31.1018 -2065.50010138354583 3.00093e-21 2.5975746250535221 0.127039 0 -0.0519634
2315 2 3 31.1018 -2062.50010138354537 2.99656e-21 2.59757462504327385 0.126947 0 -0.0519621
2316 2 3 31.1018 -2059.50010138354492 2.9922e-21 2.59757462503302516 0.126856 0 -0.0519607
2317 2 3 31.1018 -2056.50010138354446 2.98783e-21 2.59757462502277692 0.126765 0 -0.0519593
2318 2 3 31.1018 -2053.50010138354401 2.98346e-21 2.59757462501252823 0.126674 0 -0.0519579
2319 2 3 31.1018 -2050.50010138354401 2.97909e-21 2.59757462500227998 0.126583 0 -0.0519564
2320 2 3 31.1018 -2047.50010138354378 2.97472e-21 2.59757462499203129 0.126492 0 -0.051955
2321 2 3 31.1018 -2044.50010138354332 2.97036e-21 2.59757462498178304 0.126401 0 -0.0519536
2322 2 3 31.1018 -2041.50010138354287 2.96599e-21 2.59757462497153435 0.12631 0 -0.0519522
2323 2 3 31.1018 -2038.50010138354241 2.96162e-21 2.5975746249612861 0.126219 0 -0.0519509
2324 2 3 31.1018 -2035.50010138354196 2.95725e-21 2.59757462495103741 0.126127 0 -0.0519495
2325 2 3 31.1018 -2032.50010138354151 2.95288e-21 2.59757462494078917 0.126036 0 -0.0519481
2326 2 3 31.1018 -2029.50010138354105 2.94851e-21 2.59757462493054048 0.125945 0 -0.0519467
2327 2 3 31.1018 -2026.5001013835406 2.94415e-21 2.59757462492029223 0.125854 0 -0.0519453
2328 2 3 31.1018 -2023.50010138354014 2.93978e-21 2.59757462491004354 0.125763 0 -0.0519439
2329 2 3 31.1018 -2020.50010138353969 2.93541e-21 2.59757462489979529 0.125672 0 -0.0519425
2330 2 3 31.1018 -2017.50010138353923 2.93104e-21 2.5975746248895466 0.12558 0 -0.0519411
2331 2 3 31.1018 -2014.50010138353878 2.92667e-21 2.59757462487929836 0.125489 0 -0.0519397
2332 2 3 31.1018 -2011.50010138353832 2.92231e-21 2.59757462486904966 0.125398 0 -0.0519383
2333 2 3 31.1018 -2008.50010138353809 2.91794e-21 2.59757462485880142 0.125307 0 -0.0519369
2334 2 3 31.1018 -2005.50010138353764 2.91357e-21 2.59757462484855273 0.125216 0 -0.0519355
2335 2 3 31.1018 -2002.50010138353719 2.9092e-21 2.59757462483830448 0.125125 0 -0.0519341
2336 2 3 31.1018 -1999.50010138353673 2.90483e-21 2.59757462482805579 0.125033 0 -0.0519328
2337 2 3 31.1018 -1996.50010138353628 2.90046e-21 2.59757462481780754 0.124942 0 -0.0519314
2338 2 3 31.1018 -1993.50010138353582 2.8961e-21 2.59757462480755885 0.124851 0 -0.05193
2339 2 3 31.1018 -1990.50010138353537 2.89173e-21 2.59757462479731061 0.12476 0 -0.0519286
2340 2 3 31.1018 -1987.50010138353491 2.88736e-21 2.59757462478706191 0.124669 0 -0.0519272
2341 2 3 31.1018 -1984.50010138353446 2.88299e-21 2.59757462477681367 0.124577 0 -0.0519258
2342 2 3 31.1018 -1981.500101383534 2.87862e-21 2.59757462476656498 0.124486 0 -0.0519244
2343 2 3 31.1018 -1978.50010138353355 2.87426e-21 2.59757462475631673 0.124395 0 -0.051923
2344 2 3 31.1018 -1975.50010138353309 2.86989e-21 2.59757462474606804 0.124304 0 -0.0519216
2345 2 3 31.1018 -1972.50010138353264 2.86552e-21 2.59757462473581979 0.124213 0 -0.0519202
2346 2 3 31.1018 -1969.50010138353218 2.86115e-21 2.5975746247255711 0.124122 0 -0.0519189
2347 2 3 31.1018 -1966.50010138353173 2.85678e-21 2.59757462471532286 0.12403 0 -0.0519175
2348 2 3 31.1018 -1963.50010138353127 2.85241e-21 2.59757462470507416 0.123939 0 -0.0519161
2349 2 3 31.1018 -1960.50010138353082 2.84805e-21 2.59757462469482592 0.123848 0 -0.0519147
2350 2 3 31.1018 -1957.50010138353036 2.84368e-21 2.59757462468457723 0.123757 0 -0.0519133
2351 2 3 31.1018 -1954.50010138353014 2.83931e-21 2.59757462467432898 0.123666 0 -0.0519119
2352 2 3 31.1018 -1951.50010138352968 2.83494e-21 2.59757462466408029 0.123575 0 -0.0519105
2353 2 3 31.1018 -1948.50010138352923 2.83057e-21 2.59757462465383204 0.123483 0 -0.0519091
2354 2 3 31.1018 -1945.50010138352877 2.82621e-21 2.59757462464358335 0.123392 0 -0.0519077
2355 2 3 31.1018 -1942.50010138352832 2.82184e-21 2.59757462463333511 0.123301 0 -0.0519063
2356 2 3 31.1018 -1939.50010138352786 2.81747e-21 2.59757462462308641 0.12321 0 -0.0519049
2357 2 3 31.1018 -1936.50010138352741 2.8131e-21 2.59757462461283817 0.123119 0 -0.0519035
2358 2 3 31.1018 -1933.50010138352695 2.80873e-21 2.59757462460258948 0.123027 0 -0.0519021
2359 2 3 31.1018 -1930.5001013835265 2.80436e-21 2.59757462459234123 0.122936 0 -0.0519007
2360 2 3 31.1018 -1927.50010138352604 2.8e-21 2.59757462458209254 0.122845 0 -0.0518994
2361 2 3 31.1018 -1924.50010138352559 2.79563e-21 2.59757462457184429 0.122754 0 -0.051898
2362 2 3 31.1018 -1921.50010138352513 2.79126e-21 2.5975746245615956 0.122663 0 -0.0518966
2363 2 3 31.1018 -1918.50010138352468 2.78689e-21 2.59757462455134736 0.122572 0 -0.0518952
2364 2 3 31.1018 -1915.50010138352422 2.78252e-21 2.59757462454109866 0.12248 0 -0.0518938
2365 2 3 31.1018 -1912.50010138352377 2.77816e-21 2.59757462453085042 0.122389 0 -0.0518924
2366 2 3 31.1018 -1909.50010138352332 2.77379e-21 2.59757462452060173 0.122298 0 -0.051891
2367 2 3 31.1018 -1906.50010138352286 2.76942e-21 2.59757462451035348 0.122207 0 -0.0518896
2368 2 3 31.1018 -1903.50010138352263 2.76505e-21 2.59757462450010479 0.122116 0 -0.0518882
2369 2 3 31.1018 -1900.50010138352218 2.76068e-21 2.59757462448985654 0.122025 0 -0.0518868
2370 2 3 31.1018 -1897.50010138352172 2.75631e-21 2.59757462447960785 0.121933 0 -0.0518854
2371 2 3 31.1018 -1894.50010138352127 2.75195e-21 2.59757462446935961 0.121842 0 -0.051884
2372 2 3 31.1018 -1891.50010138352081 2.74758e-21 2.59757462445911091 0.121751 0 -0.0518826
2373 2 3 31.1018 -1888.50010138352036 2.74321e-21 2.59757462444886267 0.12166 0 -0.0518813
2374 2 3 31.1018 -1885.5001013835199 2.73884e-21 2.59757462443861398 0.121569 0 -0.0518799
2375 2 3 31.1018 -1882.50010138351945 2.73447e-21 2.59757462442836573 0.121477 0 -0.0518785
2376 2 3 31.1018 -1879.500101383519 2.73011e-21 2.59757462441811704 0.121386 0 -0.0518771
2377 2 3 31.1018 -1876.50010138351854 2.72574e-21 2.59757462440786879 0.121295 0 -0.0518757
2378 2 3 31.1018 -1873.50010138351809 2.72137e-21 2.5975746243976201 0.121204 0 -0.0518743
2379 2 3 31.1018 -1870.50010138351763 2.717e-21 2.59757462438737186 0.121113 0 -0.0518729