ITEM: TIMESTEP
3800000
ITEM: NUMBER OF ATOMS
2751
ITEM: BOX BOUNDS pp pp pp
-2.4750000000000000e+03 2.4750000000000000e+03
-1.0000000000000000e+02 1.0000000000000000e+02
-1.0000000000000000e+02 1.0000000000000000e+02
ITEM: ATOMS id type diameter mass xu yu zu fx fy fz
1 1 3 31.1018 -2475 0 0 0 0 0
2 1 3 31.1018 -2472 0 0 0 0 0
3 1 3 31.1018 -2469 0 0 0 0 0
4 1 3 31.1018 -2466 0 0 0 0 0
5 1 3 31.1018 -2463 0 0 0 0 0
6 1 3 31.1018 -2460 0 0 0 0 0
7 1 3 31.1018 -2457 0 0 0 0 0
8 1 3 31.1018 -2454 0 0 0 0 0
9 1 3 31.1018 -2451 0 0 0 0 0
10 1 3 31.1018 -2448 0 0 0 0 0
11 1 3 31.1018 -2445 0 0 0 0 0
12 1 3 31.1018 -2442 0 0 0 0 0
13 1 3 31.1018 -2439 0 0 0 0 0
14 1 3 31.1018 -2436 0 0 0 0 0
15 1 3 31.1018 -2433 0 0 0 0 0
16 1 3 31.1018 -2430 0 0 0 0 0
17 1 3 31.1018 -2427 0 0 0 0 0
18 1 3 31.1018 -2424 0 0 0 0 0
19 1 3 31.1018 -2421 0 0 0 0 0
20 1 3 31.1018 -2418 0 0 0 0 0
21 1 3 31.1018 -2415 0 0 0 0 0
22 1 3 31.1018 -2412 0 0 0 0 0
23 1 3 31.1018 -2409 0 0 0 0 0
24 1 3 31.1018 -2406 0 0 0 0 0
25 1 3 31.1018 -2403 0 0 0 0 0
26 1 3 31.1018 -2400 0 0 0 0 0
27 1 3 31.1018 -2397 0 0 0 0 0
28 1 3 31.1018 -2394 0 0 0 0 0
29 1 3 31.1018 -2391 0 0 0 0 0
30 1 3 31.1018 -2388 0 0 0 0 0
31 1 3 31.1018 -2385 0 0 0 0 0
32 1 3 31.1018 -2382 0 0 0 0 0
33 1 3 31.1018 -2379 0 0 0 0 0
34 1 3 31.1018 -2376 0 0 0 0 0
35 1 3 31.1018 -2373 0 0 0 0 0
36 1 3 31.1018 -2370 0 0 0 0 0
37 1 3 31.1018 -2367 0 0 0 0 0
38 1 3 31.1018 -2364 0 0 0 0 0
39 1 3 31.1018 -2361 0 0 0 0 0
40 1 3 31.1018 -2358 0 0 0 0 0
41 1 3 31.1018 -2355 0 0 0 0 0
42 1 3 31.1018 -2352 0 0 0 0 0
43 1 3 31.1018 -2349 0 0 0 0 0
44 1 3 31.1018 -2346 0 0 0 0 0
45 1 3 31.1018 -2343 0 0 0 0 0
46 1 3 31.1018 -2340 0 0 0 0 0
47 1 3 31.1018 -2337 0 0 0 0 0
48 1 3 31.1018 -2334 0 0 0 0 0
49 1 3 31.1018 -2331 0 0 0 0 0
50 1 3 31.1018 -2328 0 0 0 0 0
51 1 3 31.1018 -2325 0 0 0 0 0
52 1 3 31.1018 -2322 0 0 0 0 0
53 1 3 31.1018 -2319 0 0 0 0 0
54 1 3 31.1018 -2316 0 0 0 0 0
55 1 3 31.1018 -2313 0 0 0 0 0
56 1 3 31.1018 -2310 0 0 0 0 0
57 1 3 31.1018 -2307 0 0 0 0 0
58 1 3 31.1018 -2304 0 0 0 0 0
59 1 3 31.1018 -2301 0 0 0 0 0
60 1 3 31.1018 -2298 0 0 0 0 0
61 1 3 31.1018 -2295 0 0 0 0 0
62 1 3 31.1018 -2292 0 0 0 0 0
63 1 3 31.1018 -2289 0 0 0 0 0
64 1 3 31.1018 -2286 0 0 0 0 0
65 1 3 31.1018 -2283 0 0 0 0 0
66 1 3 31.1018 -2280 0 0 0 0 0
67 1 3 31.1018 -2277 0 0 0 0 0
68 1 3 31.1018 -2274 0 0 0 0 0
69 1 3 31.1018 -2271 0 0 0 0 0
70 1 3 31.1018 -2268 0 0 0 0 0
71 1 3 31.1018 -2265 0 0 0 0 0
72 1 3 31.1018 -2262 0 0 0 0 0
73 1 3 31.1018 -2259 0 0 0 0 0
74 1 3 31.1018 -2256 0 0 0 0 0
75 1 3 31.1018 -2253 0 0 0 0 0
76 1 3 31.1018 -2250 0 0 0 0 0
77 1 3 31.1018 -2247 0 0 0 0 0
78 1 3 31.1018 -2244 0 0 0 0 0
79 1 3 31.1018 -2241 0 0 0 0 0
80 1 3 31.1018 -2238 0 0 0 0 0
81 1 3 31.1018 -2235 0 0 0 0 0
82 1 3 31.1018 -2232 0 0 0 0 0
83 1 3 31.1018 -2229 0 0 0 0 0
84 1 3 31.1018 -2226 0 0 0 0 0
85 1 3 31.1018 -2223 0 0 0 0 0
86 1 3 31.1018 -2220 0 0 0 0 0
87 1 3 31.1018 -2217 0 0 0 0 0
88 1 3 31.1018 -2214 0 0 0 0 0
89 1 3 31.1018 -2211 0 0 0 0 0
90 1 3 31.1018 -2208 0 0 0 0 0
91 1 3 31.1018 -2205 0 0 0 0 0
92 1 3 31.1018 -2202 0 0 0 0 0
93 1 3 31.1018 -2199 0 0 0 0 0
94 1 3 31.1018 -2196 0 0 0 0 0
95 1 3 31.1018 -2193 0 0 0 0 0
96 1 3 31.1018 -2190 0 0 0 0 0
97 1 3 31.1018 -2187 0 0 0 0 0
98 1 3 31.1018 -2184 0 0 0 0 0
99 1 3 31.1018 -2181 0 0 0 0 0
100 1 3 31.1018 -2178 0 0 0 0 0
101 1 3 31.1018 -2175 0 0 0 0 0
102 1 3 31.1018 -2172 0 0 0 0 0
103 1 3 31.1018 -2169 0 0 0 0 0
104 1 3 31.1018 -2166 0 0 0 0 0
105 1 3 31.1018 -2163 0 0 0 0 0
106 1 3 31.1018 -2160 0 0 0 0 0
107 1 3 31.1018 -2157 0 0 0 0 0
108 1 3 31.1018 -2154 0 0 0 0 0
109 1 3 31.1018 -2151 0 0 0 0 0
110 1 3 31.1018 -2148 0 0 0 0 0
111 1 3 31.1018 -2145 0 0 0 0 0
112 1 3 31.1018 -2142 0 0 0 0 0
113 1 3 31.1018 -2139 0 0 0 0 0
114 1 3 31.1018 -2136 0 0 0 0 0
115 1 3 31.1018 -2133 0 0 0 0 0
116 1 3 31.1018 -2130 0 0 0 0 0
117 1 3 31.1018 -2127 0 0 0 0 0
118 1 3 31.1018 -2124 0 0 0 0 0
119 1 3 31.1018 -2121 0 0 0 0 0
120 1 3 31.1018 -2118 0 0 0 0 0
121 1 3 31.1018 -2115 0 0 0 0 0
122 1 3 31.1018 -2112 0 0 0 0 0
123 1 3 31.1018 -2109 0 0 0 0 0
124 1 3 31.1018 -2106 0 0 0 0 0
125 1 3 31.1018 -2103 0 0 0 0 0
126 1 3 31.1018 -2100 0 0 0 0 0
127 1 3 31.1018 -2097 0 0 0 0 0
128 1 3 31.1018 -2094 0 0 0 0 0
129 1 3 31.1018 -2091 0 0 0 0 0
130 1 3 31.1018 -2088 0 0 0 0 0
131 1 3 31.1018 -2085 0 0 0 0 0
132 1 3 31.1018 -2082 0 0 0 0 0
133 1 3 31.1018 -2079 0 0 0 0 0
134 1 3 31.1018 -2076 0 0 0 0 0
135 1 3 31.1018 -2073 0 0 0 0 0
136 1 3 31.1018 -2070 0 0 0 0 0
137 1 3 31.1018 -2067 0 0 0 0 0
138 1 3 31.1018 -2064 0 0 0 0 0
139 1 3 31.1018 -2061 0 0 0 0 0
140 1 3 31.1018 -2058 0 0 0 0 0
141 1 3 31.1018 -2055 0 0 0 0 0
142 1 3 31.1018 -2052 0 0 0 0 0
143 1 3 31.1018 -2049 0 0 0 0 0
144 1 3 31.1018 -2046 0 0 0 0 0
145 1 3 31.1018 -2043 0 0 0 0 0
146 1 3 31.1018 -2040 0 0 0 0 0
147 1 3 31.1018 -2037 0 0 0 0 0
148 1 3 31.1018 -2034 0 0 0 0 0
149 1 3 31.1018 -2031 0 0 0 0 0
150 1 3 31.1018 -2028 0 0 0 0 0
151 1 3 31.1018 -2025 0 0 0 0 0
152 1 3 31.1018 -2022 0 0 0 0 0
153 1 3 31.1018 -2019 0 0 0 0 0
154 1 3 31.1018 -2016 0 0 0 0 0
155 1 3 31.1018 -2013 0 0 0 0 0
156 1 3 31.1018 -2010 0 0 0 0 0
157 1 3 31.1018 -2007 0 0 0 0 0
158 1 3 31.1018 -2004 0 0 0 0 0
159 1 3 31.1018 -2001 0 0 0 0 0
160 1 3 31.1018 -1998 0 0 0 0 0
161 1 3 31.1018 -1995 0 0 0 0 0
162 1 3 31.1018 -1992 0 0 0 0 0
163 1 3 31.1018 -1989 0 0 0 0 0
164 1 3 31.1018 -1986 0 0 0 0 0
165 1 3 31.1018 -1983 0 0 0 0 0
166 1 3 31.1018 -1980 0 0 0 0 0
167 1 3 31.1018 -1977 0 0 0 0 0
168 1 3 31.1018 -1974 0 0 0 0 0
169 1 3 31.1018 -1971 0 0 0 0 0
170 1 3 31.1018 -1968 0 0 0 0 0
171 1 3 31.1018 -1965 0 0 0 0 0
172 1 3 31.1018 -1962 0 0 0 0 0
173 1 3 31.1018 -1959 0 0 0 0 0
174 1 3 31.1018 -1956 0 0 0 0 0
175 1 3 31.1018 -1953 0 0 0 0 0
176 1 3 31.1018 -1950 0 0 0 0 0
177 1 3 31.1018 -1947 0 0 0 0 0
178 1 3 31.1018 -1944 0 0 0 0 0
179 1 3 31.1018 -1941 0 0 0 0 0
180 1 3 31.1018 -1938 0 0 0 0 0
181 1 3 31.1018 -1935 0 0 0 0 0
182 1 3 31.1018 -1932 0 0 0 0 0
183 1 3 31.1018 -1929 0 0 0 0 0
184 1 3 31.1018 -1926 0 0 0 0 0
185 1 3 31.1018 -1923 0 0 0 0 0
186 1 3 31.1018 -1920 0 0 0 0 0
187 1 3 31.1018 -1917 0 0 0 0 0
188 1 3 31.1018 -1914 0 0 0 0 0
189 1 3 31.1018 -1911 0 0 0 0 0
190 1 3 31.1018 -1908 0 0 0 0 0
191 1 3 31.1018 -1905 0 0 0 0 0
192 1 3 31.1018 -1902 0 0 0 0 0
193 1 3 31.1018 -1899 0 0 0 0 0
194 1 3 31.1018 -1896 0 0 0 0 0
195 1 3 31.1018 -1893 0 0 0 0 0
196 1 3 31.1018 -1890 0 0 0 0 0
197 1 3 31.1018 -1887 0 0 0 0 0
198 1 3 31.1018 -1884 0 0 0 0 0
199 1 3 31.1018 -1881 0 0 0 0 0
200 1 3 31.1018 -1878 0 0 0 0 0
201 1 3 31.1018 -1875 0 0 0 0 0
202 1 3 31.1018 -1872 0 0 0 0 0
203 1 3 31.1018 -1869 0 0 0 0 0
204 1 3 31.1018 -1866 0 0 0 0 0
205 1 3 31.1018 -1863 0 0 0 0 0
206 1 3 31.1018 -1860 0 0 0 0 0
207 1 3 31.1018 -1857 0 0 0 0 0
208 1 3 31.1018 -1854 0 0 0 0 0
209 1 3 31.1018 -1851 0 0 0 0 0
210 1 3 31.1018 -1848 0 0 0 0 0
211 1 3 31.1018 -1845 0 0 0 0 0
212 1 3 31.1018 -1842 0 0 0 0 0
213 1 3 31.1018 -1839 0 0 0 0 0
214 1 3 31.1018 -1836 0 0 0 0 0
215 1 3 31.1018 -1833 0 0 0 0 0
216 1 3 31.1018 -1830 0 0 0 0 0
217 1 3 31.1018 -1827 0 0 0 0 0
218 1 3 31.1018 -1824 0 0 0 0 0
219 1 3 31.1018 -1821 0 0 0 0 0
220 1 3 31.1018 -1818 0 0 0 0 0
221 1 3 31.1018 -1815 0 0 0 0 0
222 1 3 31.1018 -1812 0 0 0 0 0
223 1 3 31.1018 -1809 0 0 0 0 0
224 1 3 31.1018 -1806 0 0 0 0 0
225 1 3 31.1018 -1803 0 0 0 0 0
226 1 3 31.1018 -1800 0 0 0 0 0
227 1 3 31.1018 -1797 0 0 0 0 0
228 1 3 31.1018 -1794 0 0 0 0 0
229 1 3 31.1018 -1791 0 0 0 0 0
230 1 3 31.1018 -1788 0 0 0 0 0
231 1 3 31.1018 -1785 0 0 0 0 0
232 1 3 31.1018 -1782 0 0 0 0 0
233 1 3 31.1018 -1779 0 0 0 0 0
234 1 3 31.1018 -1776 0 0 0 0 0
235 1 3 31.1018 -1773 0 0 0 0 0
236 1 3 31.1018 -1770 0 0 0 0 0
237 1 3 31.1018 -1767 0 0 0 0 0
238 1 3 31.1018 -1764 0 0 0 0 0
239 1 3 31.1018 -1761 0 0 0 0 0
240 1 3 31.1018 -1758 0 0 0 0 0
241 1 3 31.1018 -1755 0 0 0 0 0
242 1 3 31.1018 -1752 0 0 0 0 0
243 1 3 31.1018 -1749 0 0 0 0 0
244 1 3 31.1018 -1746 0 0 0 0 0
245 1 3 31.1018 -1743 0 0 0 0 0
246 1 3 31.1018 -1740 0 0 0 0 0
247 1 3 31.1018 -1737 0 0 0 0 0
248 1 3 31.1018 -1734 0 0 0 0 0
249 1 3 31.1018 -1731 0 0 0 0 0
250 1 3 31.1018 -1728 0 0 0 0 0
251 1 3 31.1018 -1725 0 0 0 0 0
252 1 3 31.1018 -1722 0 0 0 0 0
253 1 3 31.1018 -1719 0 0 0 0 0
254 1 3 31.1018 -1716 0 0 0 0 0
255 1 3 31.1018 -1713 0 0 0 0 0
256 1 3 31.1018 -1710 0 0 0 0 0
257 1 3 31.1018 -1707 0 0 0 0 0
258 1 3 31.1018 -1704 0 0 0 0 0
259 1 3 31.1018 -1701 0 0 0 0 0
260 1 3 31.1018 -1698 0 0 0 0 0
261 1 3 31.1018 -1695 0 0 0 0 0
262 1 3 31.1018 -1692 0 0 0 0 0
263 1 3 31.1018 -1689 0 0 0 0 0
264 1 3 31.1018 -1686 0 0 0 0 0
265 1 3 31.1018 -1683 0 0 0 0 0
266 1 3 31.1018 -1680 0 0 0 0 0
267 1 3 31.1018 -1677 0 0 0 0 0
268 1 3 31.1018 -1674 0 0 0 0 0
269 1 3 31.1018 -1671 0 0 0 0 0
270 1 3 31.1018 -1668 0 0 0 0 0
271 1 3 31.1018 -1665 0 0 0 0 0
272 1 3 31.1018 -1662 0 0 0 0 0
273 1 3 31.1018 -1659 0 0 0 0 0
274 1 3 31.1018 -1656 0 0 0 0 0
275 1 3 31.1018 -1653 0 0 0 0 0
276 1 3 31.1018 -1650 0 0 0 0 0
277 1 3 31.1018 -1647 0 0 0 0 0
278 1 3 31.1018 -1644 0 0 0 0 0
279 1 3 31.1018 -1641 0 0 0 0 0
280 1 3 31.1018 -1638 0 0 0 0 0
281 1 3 31.1018 -1635 0 0 0 0 0
282 1 3 31.1018 -1632 0 0 0 0 0
283 1 3 31.1018 -1629 0 0 0 0 0
284 1 3 31.1018 -1626 0 0 0 0 0
285 1 3 31.1018 -1623 0 0 0 0 0
286 1 3 31.1018 -1620 0 0 0 0 0
287 1 3 31.1018 -1617 0 0 0 0 0
288 1 3 31.1018 -1614 0 0 0 0 0
289 1 3 31.1018 -1611 0 0 0 0 0
290 1 3 31.1018 -1608 0 0 0 0 0
291 1 3 31.1018 -1605 0 0 0 0 0
292 1 3 31.1018 -1602 0 0 0 0 0
293 1 3 31.1018 -1599 0 0 0 0 0
294 1 3 31.1018 -1596 0 0 0 0 0
295 1 3 31.1018 -1593 0 0 0 0 0
296 1 3 31.1018 -1590 0 0 0 0 0
297 1 3 31.1018 -1587 0 0 0 0 0
298 1 3 31.1018 -1584 0 0 0 0 0
299 1 3 31.1018 -1581 0 0 0 0 0
300 1 3 31.1018 -1578 0 0 0 0 0
301 1 3 31.1018 -1575 0 0 0 0 0
302 1 3 31.1018 -1572 0 0 0 0 0
303 1 3 31.1018 -1569 0 0 0 0 0
304 1 3 31.1018 -1566 0 0 0 0 0
305 1 3 31.1018 -1563 0 0 0 0 0
306 1 3 31.1018 -1560 0 0 0 0 0
307 1 3 31.1018 -1557 0 0 0 0 0
308 1 3 31.1018 -1554 0 0 0 0 0
309 1 3 31.1018 -1551 0 0 0 0 0
310 1 3 31.1018 -1548 0 0 0 0 0
311 1 3 31.1018 -1545 0 0 0 0 0
312 1 3 31.1018 -1542 0 0 0 0 0
313 1 3 31.1018 -1539 0 0 0 0 0
314 1 3 31.1018 -1536 0 0 0 0 0
315 1 3 31.1018 -1533 0 0 0 0 0
316 1 3 31.1018 -1530 0 0 0 0 0
317 1 3 31.1018 -1527 0 0 0 0 0
318 1 3 31.1018 -1524 0 0 0 0 0
319 1 3 31.1018 -1521 0 0 0 0 0
320 1 3 31.1018 -1518 0 0 0 0 0
321 1 3 31.1018 -1515 0 0 0 0 0
322 1 3 31.1018 -1512 0 0 0 0 0
323 1 3 31.1018 -1509 0 0 0 0 0
324 1 3 31.1018 -1506 0 0 0 0 0
325 1 3 31.1018 -1503 0 0 0 0 0
326 1 3 31.1018 -1500 0 0 0 0 0
327 1 3 31.1018 -1497 0 0 0 0 0
328 1 3 31.1018 -1494 0 0 0 0 0
329 1 3 31.1018 -1491 0 0 0 0 0
330 1 3 31.1018 -1488 0 0 0 0 0
331 1 3 31.1018 -1485 0 0 0 0 0
332 1 3 31.1018 -1482 0 0 0 0 0
333 1 3 31.1018 -1479 0 0 0 0 0
334 1 3 31.1018 -1476 0 0 0 0 0
335 1 3 31.1018 -1473 0 0 0 0 0
336 1 3 31.1018 -1470 0 0 0 0 0
337 1 3 31.1018 -1467 0 0 0 0 0
338 1 3 31.1018 -1464 0 0 0 0 0
339 1 3 31.1018 -1461 0 0 0 0 0
340 1 3 31.1018 -1458 0 0 0 0 0
341 1 3 31.1018 -1455 0 0 0 0 0
342 1 3 31.1018 -1452 0 0 0 0 0
343 1 3 31.1018 -1449 0 0 0 0 0
344 1 3 31.1018 -1446 0 0 0 0 0
345 1 3 31.1018 -1443 0 0 0 0 0
346 1 3 31.1018 -1440 0 0 0 0 0
347 1 3 31.1018 -1437 0 0 0 0 0
348 1 3 31.1018 -1434 0 0 0 0 0
349 1 3 31.1018 -1431 0 0 0 0 0
350 1 3 31.1018 -1428 0 0 0 0 0
351 1 3 31.1018 -1425 0 0 0 0 0
352 1 3 31.1018 -1422 0 0 0 0 0
353 1 3 31.1018 -1419 0 0 0 0 0
354 1 3 31.1018 -1416 0 0 0 0 0
355 1 3 31.1018 -1413 0 0 0 0 0
356 1 3 31.1018 -1410 0 0 0 0 0
357 1 3 31.1018 -1407 0 0 0 0 0
358 1 3 31.1018 -1404 0 0 0 0 0
359 1 3 31.1018 -1401 0 0 0 0 0
360 1 3 31.1018 -1398 0 0 0 0 0
361 1 3 31.1018 -1395 0 0 0 0 0
362 1 3 31.1018 -1392 0 0 0 0 0
363 1 3 31.1018 -1389 0 0 0 0 0
364 1 3 31.1018 -1386 0 0 0 0 0
365 1 3 31.1018 -1383 0 0 0 0 0
366 1 3 31.1018 -1380 0 0 0 0 0
367 1 3 31.1018 -1377 0 0 0 0 0
368 1 3 31.1018 -1374 0 0 0 0 0
369 1 3 31.1018 -1371 0 0 0 0 0
370 1 3 31.1018 -1368 0 0 0 0 0
371 1 3 31.1018 -1365 0 0 0 0 0
372 1 3 31.1018 -1362 0 0 0 0 0
373 1 3 31.1018 -1359 0 0 0 0 0
374 1 3 31.1018 -1356 0 0 0 0 0
375 1 3 31.1018 -1353 0 0 0 0 0
376 1 3 31.1018 -1350 0 0 0 0 0
377 1 3 31.1018 -1347 0 0 0 0 0
378 1 3 31.1018 -1344 0 0 0 0 0
379 1 3 31.1018 -1341 0 0 0 0 0
380 1 3 31.1018 -1338 0 0 0 0 0
381 1 3 31.1018 -1335 0 0 0 0 0
382 1 3 31.1018 -1332 0 0 0 0 0
383 1 3 31.1018 -1329 0 0 0 0 0
384 1 3 31.1018 -1326 0 0 0 0 0
385 1 3 31.1018 -1323 0 0 0 0 0
386 1 3 31.1018 -1320 0 0 0 0 0
387 1 3 31.1018 -1317 0 0 0 0 0
388 1 3 31.1018 -1314 0 0 0 0 0
389 1 3 31.1018 -1311 0 0 0 0 0
390 1 3 31.1018 -1308 0 0 0 0 0
391 1 3 31.1018 -1305 0 0 0 0 0
392 1 3 31.1018 -1302 0 0 0 0 0
393 1 3 31.1018 -1299 0 0 0 0 0
394 1 3 31.1018 -1296 0 0 0 0 0
395 1 3 31.1018 -1293 0 0 0 0 0
396 1 3 31.1018 -1290 0 0 0 0 0
397 1 3 31.1018 -1287 0 0 0 0 0
398 1 3 31.1018 -1284 0 0 0 0 0
399 1 3 31.1018 -1281 0 0 0 0 0
400 1 3 31.1018 -1278 0 0 0 0 0
401 1 3 31.1018 -1275 0 0 0 0 0
402 1 3 31.1018 -1272 0 0 0 0 0
403 1 3 31.1018 -1269 0 0 0 0 0
404 1 3 31.1018 -1266 0 0 0 0 0
405 1 3 31.1018 -1263 0 0 0 0 0
406 1 3 31.1018 -1260 0 0 0 0 0
407 1 3 31.1018 -1257 0 0 0 0 0
408 1 3 31.1018 -1254 0 0 0 0 0
409 1 3 31.1018 -1251 0 0 0 0 0
410 1 3 31.1018 -1248 0 0 0 0 0
411 1 3 31.1018 -1245 0 0 0 0 0
412 1 3 31.1018 -1242 0 0 0 0 0
413 1 3 31.1018 -1239 0 0 0 0 0
1651 2 3 31.1018 -1654.50010136577293 8.11614e-21 2.59757461458283245 0.0928012 0 0.000883394
1652 2 3 31.1018 -1651.50010136577339 8.10138e-21 2.59757461456401062 0.0926328 0 0.000885767
1653 2 3 31.1018 -1648.50010136577362 8.08662e-21 2.59757461454518923 0.0924642 0 0.000888116
1654 2 3 31.1018 -1645.50010136577384 8.07187e-21 2.5975746145263674 0.0922955 0 0.000890466
1655 2 3 31.1018 -1642.5001013657743 8.05711e-21 2.59757461450754601 0.0921271 0 0.000892839
1656 2 3 31.1018 -1639.50010136577453 8.04235e-21 2.59757461448872418 0.0919585 0 0.000895189
1657 2 3 31.1018 -1636.50010136577475 8.0276e-21 2.59757461446990279 0.0917898 0 0.000897539
1658 2 3 31.1018 -1633.50010136577521 8.01284e-21 2.59757461445108095 0.0916214 0 0.000899911
1659 2 3 31.1018 -1630.50010136577544 7.99808e-21 2.59757461443225957 0.0914528 0 0.00090226
1660 2 3 31.1018 -1627.50010136577566 7.98333e-21 2.59757461441343773 0.0912841 0 0.000904611
1661 2 3 31.1018 -1624.50010136577612 7.96857e-21 2.59757461439461634 0.0911157 0 0.000906983
1662 2 3 31.1018 -1621.50010136577635 7.95381e-21 2.59757461437579451 0.0909471 0 0.000909332
1663 2 3 31.1018 -1618.50010136577657 7.93906e-21 2.59757461435697312 0.0907784 0 0.00091168
1664 2 3 31.1018 -1615.50010136577703 7.9243e-21 2.59757461433815129 0.09061 0 0.000914055
1665 2 3 31.1018 -1612.50010136577725 7.90955e-21 2.5975746143193299 0.0904414 0 0.000916404
1666 2 3 31.1018 -1609.50010136577748 7.89479e-21 2.59757461430050807 0.0902727 0 0.000918755
1667 2 3 31.1018 -1606.50010136577794 7.88003e-21 2.59757461428168668 0.0901043 0 0.000921126
1668 2 3 31.1018 -1603.50010136577816 7.86528e-21 2.59757461426286484 0.0899356 0 0.000923476
1669 2 3 31.1018 -1600.50010136577839 7.85052e-21 2.59757461424404346 0.089767 0 0.000925826
1670 2 3 31.1018 -1597.50010136577885 7.83576e-21 2.59757461422522162 0.0895986 0 0.000928199
1671 2 3 31.1018 -1594.50010136577907 7.82101e-21 2.59757461420640023 0.0894299 0 0.000930547
1672 2 3 31.1018 -1591.50010136577953 7.80625e-21 2.5975746141875784 0.0892615 0 0.000932921
1673 2 3 31.1018 -1588.50010136577976 7.79149e-21 2.59757461416875701 0.0890929 0 0.000935269
1674 2 3 31.1018 -1585.50010136577998 7.77674e-21 2.59757461414993518 0.0889242 0 0.000937619
1675 2 3 31.1018 -1582.50010136578044 7.76198e-21 2.59757461413111379 0.0887558 0 0.000939992
1676 2 3 31.1018 -1579.50010136578067 7.74722e-21 2.59757461411229196 0.0885872 0 0.000942342
1677 2 3 31.1018 -1576.50010136578089 7.73247e-21 2.59757461409347057 0.0884185 0 0.000944691
1678 2 3 31.1018 -1573.50010136578135 7.71771e-21 2.59757461407464874 0.0882501 0 0.000947064
1679 2 3 31.1018 -1570.50010136578157 7.70295e-21 2.59757461405582735 0.0880815 0 0.000949414
1680 2 3 31.1018 -1567.5001013657818 7.6882e-21 2.59757461403700551 0.0879128 0 0.000951763
1681 2 3 31.1018 -1564.50010136578226 7.67344e-21 2.59757461401818412 0.0877444 0 0.000954135
1682 2 3 31.1018 -1561.50010136578248 7.65868e-21 2.59757461399936229 0.0875758 0 0.000956485
1683 2 3 31.1018 -1558.50010136578271 7.64393e-21 2.5975746139805409 0.0874071 0 0.000958835
1684 2 3 31.1018 -1555.50010136578317 7.62917e-21 2.59757461396171907 0.0872387 0 0.000961208
1685 2 3 31.1018 -1552.50010136578339 7.61441e-21 2.59757461394289768 0.0870701 0 0.000963557
1686 2 3 31.1018 -1549.50010136578362 7.59966e-21 2.59757461392407585 0.0869014 0 0.000965908
1687 2 3 31.1018 -1546.50010136578408 7.5849e-21 2.59757461390525446 0.086733 0 0.000968278
1688 2 3 31.1018 -1543.5001013657843 7.57014e-21 2.59757461388643263 0.0865644 0 0.000970629
1689 2 3 31.1018 -1540.50010136578476 7.55539e-21 2.59757461386761124 0.0863959 0 0.000973001
1690 2 3 31.1018 -1537.50010136578499 7.54063e-21 2.5975746138487894 0.0862273 0 0.000975351
1691 2 3 31.1018 -1534.50010136578521 7.52587e-21 2.59757461382996802 0.0860587 0 0.0009777
1692 2 3 31.1018 -1531.50010136578567 7.51112e-21 2.59757461381114618 0.0858902 0 0.000980073
1693 2 3 31.1018 -1528.50010136578589 7.49636e-21 2.59757461379232479 0.0857216 0 0.000982421
1694 2 3 31.1018 -1525.50010136578612 7.4816e-21 2.59757461377350296 0.085553 0 0.000984772
1695 2 3 31.1018 -1522.50010136578658 7.46685e-21 2.59757461375468157 0.0853845 0 0.000987144
1696 2 3 31.1018 -1519.5001013657868 7.45209e-21 2.59757461373585974 0.0852159 0 0.000989495
1697 2 3 31.1018 -1516.50010136578703 7.43733e-21 2.59757461371703835 0.0850473 0 0.000991844
1698 2 3 31.1018 -1513.50010136578749 7.42258e-21 2.59757461369821652 0.0848788 0 0.000994216
1699 2 3 31.1018 -1510.50010136578771 7.40782e-21 2.59757461367939513 0.0847102 0 0.000996566
1700 2 3 31.1018 -1507.50010136578794 7.39306e-21 2.59757461366057329 0.0845415 0 0.000998915
1701 2 3 31.1018 -1504.5001013657884 7.37831e-21 2.59757461364175191 0.0843731 0 0.00100129
1702 2 3 31.1018 -1501.50010136578862 7.36355e-21 2.59757461362293007 0.0842045 0 0.00100364
1703 2 3 31.1018 -1498.50010136578885 7.34879e-21 2.59757461360410868 0.0840358 0 0.00100599
1704 2 3 31.1018 -1495.50010136578931 7.33404e-21 2.59757461358528685 0.0838674 0 0.00100836
1705 2 3 31.1018 -1492.50010136578953 7.31928e-21 2.59757461356646546 0.0836988 0 0.00101071
1706 2 3 31.1018 -1489.50010136578976 7.30452e-21 2.59757461354764363 0.0835301 0 0.00101306
1707 2 3 31.1018 -1486.50010136579021 7.28977e-21 2.59757461352882224 0.0833617 0 0.00101543
1708 2 3 31.1018 -1483.50010136579044 7.27501e-21 2.59757461351000041 0.0831931 0 0.00101778
1709 2 3 31.1018 -1480.5001013657909 7.26025e-21 2.59757461349117902 0.0830247 0 0.00102015
1710 2 3 31.1018 -1477.50010136579112 7.2455e-21 2.59757461347235719 0.082856 0 0.0010225
1711 2 3 31.1018 -1474.50010136579135 7.23074e-21 2.5975746134535358 0.0826874 0 0.00102485
1712 2 3 31.1018 -1471.50010136579181 7.21598e-21 2.59757461343471396 0.082519 0 0.00102723
1713 2 3 31.1018 -1468.50010136579203 7.20123e-21 2.59757461341589257 0.0823503 0 0.00102957
1714 2 3 31.1018 -1465.50010136579226 7.18647e-21 2.59757461339707074 0.0821817 0 0.00103192
1715 2 3 31.1018 -1462.50010136579272 7.17171e-21 2.59757461337824935 0.0820132 0 0.0010343
1716 2 3 31.1018 -1459.50010136579294 7.15696e-21 2.59757461335942752 0.0818446 0 0.00103665
1717 2 3 31.1018 -1456.50010136579317 7.1422e-21 2.59757461334060613 0.081676 0 0.001039
1718 2 3 31.1018 -1453.50010136579363 7.12744e-21 2.5975746133217843 0.0815075 0 0.00104137
1719 2 3 31.1018 -1450.50010136579385 7.11269e-21 2.59757461330296291 0.0813389 0 0.00104372
1720 2 3 31.1018 -1447.50010136579408 7.09793e-21 2.59757461328414108 0.0811703 0 0.00104607
1721 2 3 31.1018 -1444.50010136579454 7.08317e-21 2.59757461326531969 0.0810018 0 0.00104844
1722 2 3 31.1018 -1441.50010136579476 7.06842e-21 2.59757461324649785 0.0808332 0 0.00105079
1723 2 3 31.1018 -1438.50010136579499 7.05366e-21 2.59757461322767647 0.0806646 0 0.00105314
1724 2 3 31.1018 -1435.50010136579544 7.0389e-21 2.59757461320885463 0.0804961 0 0.00105551
1725 2 3 31.1018 -1432.50010136579567 7.02415e-21 2.59757461319003324 0.0803275 0 0.00105786
1726 2 3 31.1018 -1429.5001013657959 7.00939e-21 2.59757461317121141 0.0801588 0 0.00106021
1727 2 3 31.1018 -1426.50010136579635 6.99464e-21 2.59757461315239002 0.0799904 0 0.00106258
1728 2 3 31.1018 -1423.50010136579658 6.97988e-21 2.59757461313356819 0.0798218 0 0.00106493
1729 2 3 31.1018 -1420.50010136579704 6.96512e-21 2.5975746131147468 0.0796534 0 0.00106731
1730 2 3 31.1018 -1417.50010136579726 6.95037e-21 2.59757461309592497 0.0794847 0 0.00106965
1731 2 3 31.1018 -1414.50010136579749 6.93561e-21 2.59757461307710358 0.0793161 0 0.001072
1732 2 3 31.1018 -1411.50010136579795 6.92085e-21 2.59757461305828175 0.0791477 0 0.00107438
1733 2 3 31.1018 -1408.50010136579817 6.9061e-21 2.59757461303946036 0.078979 0 0.00107673
1734 2 3 31.1018 -1405.5001013657984 6.89134e-21 2.59757461302063852 0.0788104 0 0.00107907
1735 2 3 31.1018 -1402.50010136579886 6.87658e-21 2.59757461300181713 0.078642 0 0.00108145
1736 2 3 31.1018 -1399.50010136579908 6.86183e-21 2.5975746129829953 0.0784733 0 0.0010838
1737 2 3 31.1018 -1396.50010136579931 6.84707e-21 2.59757461296417391 0.0783047 0 0.00108615
1738 2 3 31.1018 -1393.50010136579976 6.83231e-21 2.59757461294535208 0.0781363 0 0.00108852
1739 2 3 31.1018 -1390.50010136579999 6.81756e-21 2.59757461292653069 0.0779676 0 0.00109087
1740 2 3 31.1018 -1387.50010136580022 6.8028e-21 2.59757461290770886 0.077799 0 0.00109322
1741 2 3 31.1018 -1384.50010136580067 6.78804e-21 2.59757461288888747 0.0776305 0 0.00109559
1742 2 3 31.1018 -1381.5001013658009 6.77329e-21 2.59757461287006564 0.0774619 0 0.00109794
1743 2 3 31.1018 -1378.50010136580113 6.75853e-21 2.59757461285124425 0.0772933 0 0.00110029
1744 2 3 31.1018 -1375.50010136580158 6.74377e-21 2.59757461283242241 0.0771248 0 0.00110266
1745 2 3 31.1018 -1372.50010136580181 6.72902e-21 2.59757461281360102 0.0769562 0 0.00110501
1746 2 3 31.1018 -1369.50010136580204 6.71426e-21 2.59757461279477919 0.0767876 0 0.00110736
1747 2 3 31.1018 -1366.50010136580249 6.6995e-21 2.5975746127759578 0.0766191 0 0.00110973
1748 2 3 31.1018 -1363.50010136580272 6.68475e-21 2.59757461275713597 0.0764505 0 0.00111208
1749 2 3 31.1018 -1360.50010136580318 6.66999e-21 2.59757461273831458 0.0762821 0 0.00111446
1750 2 3 31.1018 -1357.5001013658034 6.65523e-21 2.59757461271949275 0.0761134 0 0.00111681
1751 2 3 31.1018 -1354.50010136580363 6.64048e-21 2.59757461270067136 0.0759448 0 0.00111916
1752 2 3 31.1018 -1351.50010136580408 6.62572e-21 2.59757461268184953 0.0757764 0 0.00112153
1753 2 3 31.1018 -1348.50010136580431 6.61096e-21 2.59757461266302814 0.0756077 0 0.00112388
1754 2 3 31.1018 -1345.50010136580454 6.59621e-21 2.5975746126442063 0.0754391 0 0.00112623
1755 2 3 31.1018 -1342.50010136580499 6.58145e-21 2.59757461262538492 0.0752707 0 0.0011286
1756 2 3 31.1018 -1339.50010136580522 6.56669e-21 2.59757461260656308 0.075102 0 0.00113095
1757 2 3 31.1018 -1336.50010136580545 6.55194e-21 2.59757461258774169 0.0749334 0 0.0011333
1758 2 3 31.1018 -1333.5001013658059 6.53718e-21 2.59757461256891986 0.074765 0 0.00113567
1759 2 3 31.1018 -1330.50010136580613 6.52242e-21 2.59757461255009847 0.0745963 0 0.00113802
1760 2 3 31.1018 -1327.50010136580636 6.50767e-21 2.59757461253127664 0.0744277 0 0.00114037
1761 2 3 31.1018 -1324.50010136580681 6.49291e-21 2.59757461251245525 0.0742593 0 0.00114274
1762 2 3 31.1018 -1321.50010136580704 6.47815e-21 2.59757461249363342 0.0740906 0 0.00114509
1763 2 3 31.1018 -1318.50010136580727 6.4634e-21 2.59757461247481203 0.073922 0 0.00114744
1764 2 3 31.1018 -1315.50010136580772 6.44864e-21 2.5975746124559902 0.0737536 0 0.00114981
1765 2 3 31.1018 -1312.50010136580795 6.43388e-21 2.59757461243716881 0.0735849 0 0.00115216
1766 2 3 31.1018 -1309.50010136580818 6.41913e-21 2.59757461241834697 0.0734163 0 0.00115451
1767 2 3 31.1018 -1306.50010136580863 6.40437e-21 2.59757461239952558 0.0732478 0 0.00115688
1768 2 3 31.1018 -1303.50010136580886 6.38961e-21 2.59757461238070375 0.0730792 0 0.00115923
1769 2 3 31.1018 -1300.50010136580931 6.37486e-21 2.59757461236188236 0.0729108 0 0.00116161
1770 2 3 31.1018 -1297.50010136580954 6.3601e-21 2.59757461234306053 0.0727421 0 0.00116396
1771 2 3 31.1018 -1294.50010136580977 6.34534e-21 2.59757461232423914 0.0725735 0 0.0011663
1772 2 3 31.1018 -1291.50010136581022 6.33059e-21 2.59757461230541731 0.0724051 0 0.00116868
1773 2 3 31.1018 -1288.50010136581045 6.31583e-21 2.59757461228659592 0.0722364 0 0.00117103
1774 2 3 31.1018 -1285.50010136581068 6.30107e-21 2.59757461226777409 0.0720678 0 0.00117338
1775 2 3 31.1018 -1282.50010136581113 6.28632e-21 2.5975746122489527 0.0718994 0 0.00117575
1776 2 3 31.1018 -1279.50010136581136 6.27156e-21 2.59757461223013086 0.0717307 0 0.0011781
1777 2 3 31.1018 -1276.50010136581159 6.2568e-21 2.59757461221130947 0.0715621 0 0.00118045
1778 2 3 31.1018 -1273.50010136581204 6.24205e-21 2.59757461219248764 0.0713937 0 0.00118282
1779 2 3 31.1018 -1270.50010136581227 6.22729e-21 2.59757461217366625 0.071225 0 0.00118517
1780 2 3 31.1018 -1267.5001013658125 6.21253e-21 2.59757461215484442 0.0710564 0 0.00118752
1781 2 3 31.1018 -1264.50010136581295 6.19778e-21 2.59757461213602303 0.070888 0 0.00118989
1782 2 3 31.1018 -1261.50010136581318 6.18302e-21 2.5975746121172012 0.0707193 0 0.00119224
1783 2 3 31.1018 -1258.50010136581341 6.16826e-21 2.59757461209837981 0.0705507 0 0.00119459
1784 2 3 31.1018 -1255.50010136581386 6.15351e-21 2.59757461207955798 0.0703823 0 0.00119696
1785 2 3 31.1018 -1252.50010136581409 6.13875e-21 2.59757461206073659 0.0702136 0 0.00119931
1786 2 3 31.1018 -1249.50010136581454 6.12399e-21 2.59757461204191475 0.0700452 0 0.00120169
1787 2 3 31.1018 -1246.50010136581477 6.10924e-21 2.59757461202309337 0.0698765 0 0.00120403
1788 2 3 31.1018 -1243.500101365815 6.09448e-21 2.59757461200427153 0.0697079 0 0.00120639
1789 2 3 31.1018 -1240.50010136581545 6.07972e-21 2.59757461198545014 0.0695395 0 0.00120876
414 1 3 31.1018 -1236 0 0 0 0 0
415 1 3 31.1018 -1233 0 0 0 0 0
416 1 3 31.1018 -1230 0 0 0 0 0
417 1 3 31.1018 -1227 0 0 0 0 0
418 1 3 31.1018 -1224 0 0 0 0 0
419 1 3 31.1018 -1221 0 0 0 0 0
420 1 3 31.1018 -1218 0 0 0 0 0
421 1 3 31.1018 -1215 0 0 0 0 0
422 1 3 31.1018 -1212 0 0 0 0 0
423 1 3 31.1018 -1209 0 0 0 0 0
424 1 3 31.1018 -1206 0 0 0 0 0
425 1 3 31.1018 -1203 0 0 0 0 0
426 1 3 31.1018 -1200 0 0 0 0 0
427 1 3 31.1018 -1197 0 0 0 0 0
428 1 3 31.1018 -1194 0 0 0 0 0
429 1 3 31.1018 -1191 0 0 0 0 0
430 1 3 31.1018 -1188 0 0 0 0 0
431 1 3 31.1018 -1185 0 0 0 0 0
432 1 3 31.1018 -1182 0 0 0 0 0
433 1 3 31.1018 -1179 0 0 0 0 0
434 1 3 31.1018 -1176 0 0 0 0 0
435 1 3 31.1018 -1173 0 0 0 0 0
436 1 3 31.1018 -1170 0 0 0 0 0
437 1 3 31.1018 -1167 0 0 0 0 0
438 1 3 31.1018 -1164 0 0 0 0 0
439 1 3 31.1018 -1161 0 0 0 0 0
440 1 3 31.1018 -1158 0 0 0 0 0
441 1 3 31.1018 -1155 0 0 0 0 0
442 1 3 31.1018 -1152 0 0 0 0 0
443 1 3 31.1018 -1149 0 0 0 0 0
444 1 3 31.1018 -1146 0 0 0 0 0
445 1 3 31.1018 -1143 0 0 0 0 0
446 1 3 31.1018 -1140 0 0 0 0 0
447 1 3 31.1018 -1137 0 0 0 0 0
448 1 3 31.1018 -1134 0 0 0 0 0
449 1 3 31.1018 -1131 0 0 0 0 0
450 1 3 31.1018 -1128 0 0 0 0 0
451 1 3 31.1018 -1125 0 0 0 0 0
452 1 3 31.1018 -1122 0 0 0 0 0
453 1 3 31.1018 -1119 0 0 0 0 0
454 1 3 31.1018 -1116 0 0 0 0 0
455 1 3 31.1018 -1113 0 0 0 0 0
456 1 3 31.1018 -1110 0 0 0 0 0
457 1 3 31.1018 -1107 0 0 0 0 0
458 1 3 31.1018 -1104 0 0 0 0 0
459 1 3 31.1018 -1101 0 0 0 0 0
460 1 3 31.1018 -1098 0 0 0 0 0
461 1 3 31.1018 -1095 0 0 0 0 0
462 1 3 31.1018 -1092 0 0 0 0 0
463 1 3 31.1018 -1089 0 0 0 0 0
464 1 3 31.1018 -1086 0 0 0 0 0
465 1 3 31.1018 -1083 0 0 0 0 0
466 1 3 31.1018 -1080 0 0 0 0 0
467 1 3 31.1018 -1077 0 0 0 0 0
468 1 3 31.1018 -1074 0 0 0 0 0
469 1 3 31.1018 -1071 0 0 0 0 0
470 1 3 31.1018 -1068 0 0 0 0 0
471 1 3 31.1018 -1065 0 0 0 0 0
472 1 3 31.1018 -1062 0 0 0 0 0
473 1 3 31.1018 -1059 0 0 0 0 0
474 1 3 31.1018 -1056 0 0 0 0 0
475 1 3 31.1018 -1053 0 0 0 0 0
476 1 3 31.1018 -1050 0 0 0 0 0
477 1 3 31.1018 -1047 0 0 0 0 0
478 1 3 31.1018 -1044 0 0 0 0 0
479 1 3 31.1018 -1041 0 0 0 0 0
480 1 3 31.1018 -1038 0 0 0 0 0
481 1 3 31.1018 -1035 0 0 0 0 0
482 1 3 31.1018 -1032 0 0 0 0 0
483 1 3 31.1018 -1029 0 0 0 0 0
484 1 3 31.1018 -1026 0 0 0 0 0
485 1 3 31.1018 -1023 0 0 0 0 0
486 1 3 31.1018 -1020 0 0 0 0 0
487 1 3 31.1018 -1017 0 0 0 0 0
488 1 3 31.1018 -1014 0 0 0 0 0
489 1 3 31.1018 -1011 0 0 0 0 0
490 1 3 31.1018 -1008 0 0 0 0 0
491 1 3 31.1018 -1005 0 0 0 0 0
492 1 3 31.1018 -1002 0 0 0 0 0
493 1 3 31.1018 -999 0 0 0 0 0
494 1 3 31.1018 -996 0 0 0 0 0
495 1 3 31.1018 -993 0 0 0 0 0
496 1 3 31.1018 -990 0 0 0 0 0
497 1 3 31.1018 -987 0 0 0 0 0
498 1 3 31.1018 -984 0 0 0 0 0
499 1 3 31.1018 -981 0 0 0 0 0
500 1 3 31.1018 -978 0 0 0 0 0
501 1 3 31.1018 -975 0 0 0 0 0
502 1 3 31.1018 -972 0 0 0 0 0
503 1 3 31.1018 -969 0 0 0 0 0
504 1 3 31.1018 -966 0 0 0 0 0
505 1 3 31.1018 -963 0 0 0 0 0
506 1 3 31.1018 -960 0 0 0 0 0
507 1 3 31.1018 -957 0 0 0 0 0
508 1 3 31.1018 -954 0 0 0 0 0
509 1 3 31.1018 -951 0 0 0 0 0
510 1 3 31.1018 -948 0 0 0 0 0
511 1 3 31.1018 -945 0 0 0 0 0
512 1 3 31.1018 -942 0 0 0 0 0
513 1 3 31.1018 -939 0 0 0 0 0
514 1 3 31.1018 -936 0 0 0 0 0
515 1 3 31.1018 -933 0 0 0 0 0
516 1 3 31.1018 -930 0 0 0 0 0
517 1 3 31.1018 -927 0 0 0 0 0
518 1 3 31.1018 -924 0 0 0 0 0
519 1 3 31.1018 -921 0 0 0 0 0
520 1 3 31.1018 -918 0 0 0 0 0
521 1 3 31.1018 -915 0 0 0 0 0
522 1 3 31.1018 -912 0 0 0 0 0
523 1 3 31.1018 -909 0 0 0 0 0
524 1 3 31.1018 -906 0 0 0 0 0
525 1 3 31.1018 -903 0 0 0 0 0
526 1 3 31.1018 -900 0 0 0 0 0
527 1 3 31.1018 -897 0 0 0 0 0
528 1 3 31.1018 -894 0 0 0 0 0
529 1 3 31.1018 -891 0 0 0 0 0
530 1 3 31.1018 -888 0 0 0 0 0