ITEM: TIMESTEP
3500000
ITEM: NUMBER OF ATOMS
501
ITEM: BOX BOUNDS pp pp pp
-4.5000000000000000e+02 4.5000000000000000e+02
-1.0000000000000000e+02 1.0000000000000000e+02
-1.0000000000000000e+02 1.0000000000000000e+02
ITEM: ATOMS id type diameter mass xu yu zu fx fy fz
1 1 3 31.1018 -450 0 0 0 0 0
2 1 3 31.1018 -447 0 0 0 0 0
3 1 3 31.1018 -444 0 0 0 0 0
4 1 3 31.1018 -441 0 0 0 0 0
5 1 3 31.1018 -438 0 0 0 0 0
6 1 3 31.1018 -435 0 0 0 0 0
7 1 3 31.1018 -432 0 0 0 0 0
8 1 3 31.1018 -429 0 0 0 0 0
9 1 3 31.1018 -426 0 0 0 0 0
10 1 3 31.1018 -423 0 0 0 0 0
11 1 3 31.1018 -420 0 0 0 0 0
12 1 3 31.1018 -417 0 0 0 0 0
13 1 3 31.1018 -414 0 0 0 0 0
14 1 3 31.1018 -411 0 0 0 0 0
15 1 3 31.1018 -408 0 0 0 0 0
16 1 3 31.1018 -405 0 0 0 0 0
17 1 3 31.1018 -402 0 0 0 0 0
18 1 3 31.1018 -399 0 0 0 0 0
19 1 3 31.1018 -396 0 0 0 0 0
20 1 3 31.1018 -393 0 0 0 0 0
21 1 3 31.1018 -390 0 0 0 0 0
22 1 3 31.1018 -387 0 0 0 0 0
23 1 3 31.1018 -384 0 0 0 0 0
24 1 3 31.1018 -381 0 0 0 0 0
25 1 3 31.1018 -378 0 0 0 0 0
26 1 3 31.1018 -375 0 0 0 0 0
27 1 3 31.1018 -372 0 0 0 0 0
28 1 3 31.1018 -369 0 0 0 0 0
29 1 3 31.1018 -366 0 0 0 0 0
30 1 3 31.1018 -363 0 0 0 0 0
31 1 3 31.1018 -360 0 0 0 0 0
32 1 3 31.1018 -357 0 0 0 0 0
33 1 3 31.1018 -354 0 0 0 0 0
34 1 3 31.1018 -351 0 0 0 0 0
35 1 3 31.1018 -348 0 0 0 0 0
36 1 3 31.1018 -345 0 0 0 0 0
37 1 3 31.1018 -342 0 0 0 0 0
38 1 3 31.1018 -339 0 0 0 0 0
39 1 3 31.1018 -336 0 0 0 0 0
40 1 3 31.1018 -333 0 0 0 0 0
41 1 3 31.1018 -330 0 0 0 0 0
42 1 3 31.1018 -327 0 0 0 0 0
43 1 3 31.1018 -324 0 0 0 0 0
44 1 3 31.1018 -321 0 0 0 0 0
45 1 3 31.1018 -318 0 0 0 0 0
46 1 3 31.1018 -315 0 0 0 0 0
47 1 3 31.1018 -312 0 0 0 0 0
48 1 3 31.1018 -309 0 0 0 0 0
49 1 3 31.1018 -306 0 0 0 0 0
50 1 3 31.1018 -303 0 0 0 0 0
51 1 3 31.1018 -300 0 0 0 0 0
52 1 3 31.1018 -297 0 0 0 0 0
53 1 3 31.1018 -294 0 0 0 0 0
54 1 3 31.1018 -291 0 0 0 0 0
55 1 3 31.1018 -288 0 0 0 0 0
56 1 3 31.1018 -285 0 0 0 0 0
57 1 3 31.1018 -282 0 0 0 0 0
58 1 3 31.1018 -279 0 0 0 0 0
59 1 3 31.1018 -276 0 0 0 0 0
60 1 3 31.1018 -273 0 0 0 0 0
61 1 3 31.1018 -270 0 0 0 0 0
62 1 3 31.1018 -267 0 0 0 0 0
63 1 3 31.1018 -264 0 0 0 0 0
64 1 3 31.1018 -261 0 0 0 0 0
65 1 3 31.1018 -258 0 0 0 0 0
66 1 3 31.1018 -255 0 0 0 0 0
67 1 3 31.1018 -252 0 0 0 0 0
68 1 3 31.1018 -249 0 0 0 0 0
69 1 3 31.1018 -246 0 0 0 0 0
70 1 3 31.1018 -243 0 0 0 0 0
71 1 3 31.1018 -240 0 0 0 0 0
72 1 3 31.1018 -237 0 0 0 0 0
73 1 3 31.1018 -234 0 0 0 0 0
74 1 3 31.1018 -231 0 0 0 0 0
75 1 3 31.1018 -228 0 0 0 0 0
301 2 3 31.1018 -304.500101405291275 -1.66522e-14 2.59757465781750696 0.374334 0 -0.145081
302 2 3 31.1018 -301.50010140529082 -1.64857e-14 2.59757465729336179 0.3766 0 -0.14096
303 2 3 31.1018 -298.500101405290366 -1.63192e-14 2.59757465676921662 0.378865 0 -0.136839
304 2 3 31.1018 -295.500101405289911 -1.61526e-14 2.59757465624507189 0.381129 0 -0.132717
305 2 3 31.1018 -292.500101405289456 -1.59861e-14 2.59757465572092672 0.383392 0 -0.128595
306 2 3 31.1018 -289.500101405288945 -1.58196e-14 2.59757465519678155 0.385656 0 -0.124473
307 2 3 31.1018 -286.50010140528849 -1.56531e-14 2.59757465467263637 0.387919 0 -0.120351
308 2 3 31.1018 -283.500101405288035 -1.54865e-14 2.59757465414849165 0.390183 0 -0.116229
309 2 3 31.1018 -280.50010140528758 -1.532e-14 2.59757465362434647 0.392446 0 -0.112107
310 2 3 31.1018 -277.500101405287126 -1.51535e-14 2.5975746531002013 0.39471 0 -0.107985
311 2 3 31.1018 -274.500101405286614 -1.4987e-14 2.59757465257605613 0.396973 0 -0.103862
312 2 3 31.1018 -271.500101405286159 -1.48205e-14 2.5975746520519114 0.399237 0 -0.0997402
313 2 3 31.1018 -268.500101405285704 -1.46539e-14 2.59757465152776623 0.4015 0 -0.0956181
314 2 3 31.1018 -265.50010140528525 -1.44874e-14 2.59757465100362106 0.403764 0 -0.0914959
315 2 3 31.1018 -262.500101405284738 -1.43209e-14 2.59757465047947589 0.406027 0 -0.0873738
316 2 3 31.1018 -259.50010140528434 -1.41544e-14 2.59757464995533116 0.408291 0 -0.0832516
317 2 3 31.1018 -256.500101405283829 -1.39878e-14 2.59757464943118599 0.410554 0 -0.0791294
318 2 3 31.1018 -253.500101405283402 -1.38213e-14 2.59757464890704082 0.412818 0 -0.0750072
319 2 3 31.1018 -250.500101405282919 -1.36548e-14 2.59757464838289565 0.408482 0 -0.0746962
320 2 3 31.1018 -247.500101405282464 -1.34883e-14 2.59757464785875092 0.403877 0 -0.0745403
321 2 3 31.1018 -244.500101405281981 -1.33218e-14 2.59757464733460575 0.399273 0 -0.0743844
322 2 3 31.1018 -241.500101405281526 -1.31552e-14 2.59757464681046057 0.394668 0 -0.0742285
323 2 3 31.1018 -238.500101405281072 -1.29887e-14 2.5975746462863154 0.390063 0 -0.0740726
324 2 3 31.1018 -235.500101405280589 -1.28222e-14 2.59757464576217068 0.385459 0 -0.0739167
325 2 3 31.1018 -232.500101405280134 -1.26557e-14 2.5975746452380255 0.380854 0 -0.0737608
326 2 3 31.1018 -229.500101405279651 -1.24892e-14 2.59757464471388033 0.37625 0 -0.0736049
327 2 3 31.1018 -226.500101405279196 -1.23226e-14 2.59757464418973516 0.371645 0 -0.073449
76 1 3 31.1018 -225 0 0 0 0 0
77 1 3 31.1018 -222 0 0 0 0 0
78 1 3 31.1018 -219 0 0 0 0 0
79 1 3 31.1018 -216 0 0 0 0 0
80 1 3 31.1018 -213 0 0 0 0 0
81 1 3 31.1018 -210 0 0 0 0 0
82 1 3 31.1018 -207 0 0 0 0 0
83 1 3 31.1018 -204 0 0 0 0 0
84 1 3 31.1018 -201 0 0 0 0 0
85 1 3 31.1018 -198 0 0 0 0 0
86 1 3 31.1018 -195 0 0 0 0 0
87 1 3 31.1018 -192 0 0 0 0 0
88 1 3 31.1018 -189 0 0 0 0 0
89 1 3 31.1018 -186 0 0 0 0 0
90 1 3 31.1018 -183 0 0 0 0 0
91 1 3 31.1018 -180 0 0 0 0 0
92 1 3 31.1018 -177 0 0 0 0 0
93 1 3 31.1018 -174 0 0 0 0 0
94 1 3 31.1018 -171 0 0 0 0 0
95 1 3 31.1018 -168 0 0 0 0 0
96 1 3 31.1018 -165 0 0 0 0 0
97 1 3 31.1018 -162 0 0 0 0 0
98 1 3 31.1018 -159 0 0 0 0 0
99 1 3 31.1018 -156 0 0 0 0 0
100 1 3 31.1018 -153 0 0 0 0 0
101 1 3 31.1018 -150 0 0 0 0 0
102 1 3 31.1018 -147 0 0 0 0 0
103 1 3 31.1018 -144 0 0 0 0 0
104 1 3 31.1018 -141 0 0 0 0 0
105 1 3 31.1018 -138 0 0 0 0 0
106 1 3 31.1018 -135 0 0 0 0 0
107 1 3 31.1018 -132 0 0 0 0 0
108 1 3 31.1018 -129 0 0 0 0 0
109 1 3 31.1018 -126 0 0 0 0 0
110 1 3 31.1018 -123 0 0 0 0 0
111 1 3 31.1018 -120 0 0 0 0 0
112 1 3 31.1018 -117 0 0 0 0 0
113 1 3 31.1018 -114 0 0 0 0 0
114 1 3 31.1018 -111 0 0 0 0 0
115 1 3 31.1018 -108 0 0 0 0 0
116 1 3 31.1018 -105 0 0 0 0 0
117 1 3 31.1018 -102 0 0 0 0 0
118 1 3 31.1018 -99 0 0 0 0 0
119 1 3 31.1018 -96 0 0 0 0 0
120 1 3 31.1018 -93 0 0 0 0 0
121 1 3 31.1018 -90 0 0 0 0 0
122 1 3 31.1018 -87 0 0 0 0 0
123 1 3 31.1018 -84 0 0 0 0 0
124 1 3 31.1018 -81 0 0 0 0 0
125 1 3 31.1018 -78 0 0 0 0 0
126 1 3 31.1018 -75 0 0 0 0 0
127 1 3 31.1018 -72 0 0 0 0 0
128 1 3 31.1018 -69 0 0 0 0 0
129 1 3 31.1018 -66 0 0 0 0 0
130 1 3 31.1018 -63 0 0 0 0 0
131 1 3 31.1018 -60 0 0 0 0 0
132 1 3 31.1018 -57 0 0 0 0 0
133 1 3 31.1018 -54 0 0 0 0 0
134 1 3 31.1018 -51 0 0 0 0 0
135 1 3 31.1018 -48 0 0 0 0 0
136 1 3 31.1018 -45 0 0 0 0 0
137 1 3 31.1018 -42 0 0 0 0 0
138 1 3 31.1018 -39 0 0 0 0 0
139 1 3 31.1018 -36 0 0 0 0 0
140 1 3 31.1018 -33 0 0 0 0 0
141 1 3 31.1018 -30 0 0 0 0 0
142 1 3 31.1018 -27 0 0 0 0 0
143 1 3 31.1018 -24 0 0 0 0 0
144 1 3 31.1018 -21 0 0 0 0 0
145 1 3 31.1018 -18 0 0 0 0 0
146 1 3 31.1018 -15 0 0 0 0 0
147 1 3 31.1018 -12 0 0 0 0 0
148 1 3 31.1018 -9 0 0 0 0 0
149 1 3 31.1018 -6 0 0 0 0 0
150 1 3 31.1018 -3 0 0 0 0 0
328 2 3 31.1018 -223.500101405278713 -1.21561e-14 2.59757464366559043 0.367041 0 -0.0732932
329 2 3 31.1018 -220.500101405278258 -1.19896e-14 2.59757464314144526 0.362436 0 -0.0731373
330 2 3 31.1018 -217.500101405277803 -1.18231e-14 2.59757464261730009 0.357832 0 -0.0729814
331 2 3 31.1018 -214.50010140527732 -1.16565e-14 2.59757464209315492 0.35515 0 -0.0717151
332 2 3 31.1018 -211.500101405276865 -1.149e-14 2.59757464156901019 0.357622 0 -0.0674725
333 2 3 31.1018 -208.500101405276382 -1.13235e-14 2.59757464104486502 0.360093 0 -0.0632294
334 2 3 31.1018 -205.500101405275927 -1.1157e-14 2.59757464052071985 0.362562 0 -0.0589855
335 2 3 31.1018 -202.500101405275444 -1.09905e-14 2.59757463999657467 0.365032 0 -0.0547416
336 2 3 31.1018 -199.500101405274989 -1.08239e-14 2.59757463947242995 0.367502 0 -0.0504977
337 2 3 31.1018 -196.500101405274506 -1.06574e-14 2.59757463894828478 0.369971 0 -0.0462538
338 2 3 31.1018 -193.500101405274052 -1.04909e-14 2.5975746384241396 0.372441 0 -0.0420098
339 2 3 31.1018 -190.500101405273597 -1.03244e-14 2.59757463789999443 0.373346 0 -0.0386697
340 2 3 31.1018 -187.500101405273114 -1.01578e-14 2.5975746373758497 0.368512 0 -0.0386434
341 2 3 31.1018 -184.500101405272659 -9.99132e-15 2.59757463685170453 0.363679 0 -0.0386171
342 2 3 31.1018 -181.500101405272176 -9.8248e-15 2.59757463632755936 0.358845 0 -0.0385908
343 2 3 31.1018 -178.500101405271721 -9.65828e-15 2.59757463580341419 0.354012 0 -0.0385646
344 2 3 31.1018 -175.500101405271238 -9.49175e-15 2.59757463527926946 0.349178 0 -0.0385383
345 2 3 31.1018 -172.500101405270783 -9.32523e-15 2.59757463475512429 0.344345 0 -0.038512
346 2 3 31.1018 -169.500101405270328 -9.15871e-15 2.59757463423097912 0.339511 0 -0.0384857
347 2 3 31.1018 -166.500101405269845 -8.99219e-15 2.59757463370683395 0.334677 0 -0.0384595
348 2 3 31.1018 -163.50010140526939 -8.82567e-15 2.59757463318268922 0.329844 0 -0.0384332
349 2 3 31.1018 -160.500101405268907 -8.65914e-15 2.59757463265854405 0.32501 0 -0.0384069
350 2 3 31.1018 -157.500101405268452 -8.49262e-15 2.59757463213439888 0.320177 0 -0.0383806
351 2 3 31.1018 -154.500101405267969 -8.3261e-15 2.5975746316102537 0.315343 0 -0.0383544
352 2 3 31.1018 -151.500101405267515 -8.15958e-15 2.59757463108610898 0.310509 0 -0.0383281
353 2 3 31.1018 -148.50010140526706 -7.99306e-15 2.5975746305619638 0.305676 0 -0.0383018
354 2 3 31.1018 -145.500101405266577 -7.82653e-15 2.59757463003781863 0.300842 0 -0.0382756
355 2 3 31.1018 -142.500101405266122 -7.66001e-15 2.59757462951367346 0.296009 0 -0.0382493
356 2 3 31.1018 -139.500101405265639 -7.49349e-15 2.59757462898952873 0.291175 0 -0.0382231
357 2 3 31.1018 -136.500101405265184 -7.32697e-15 2.59757462846538356 0.286341 0 -0.0381968
358 2 3 31.1018 -133.500101405264701 -7.16045e-15 2.59757462794123839 0.281508 0 -0.0381705
359 2 3 31.1018 -130.500101405264246 -6.99392e-15 2.59757462741709322 0.276674 0 -0.0381443
360 2 3 31.1018 -127.500101405263777 -6.8274e-15 2.59757462689294849 0.27184 0 -0.038118
361 2 3 31.1018 -124.500101405263308 -6.66088e-15 2.59757462636880332 0.267007 0 -0.0380918
362 2 3 31.1018 -121.500101405262853 -6.49436e-15 2.59757462584465815 0.262173 0 -0.0380655
363 2 3 31.1018 -118.500101405262384 -6.32784e-15 2.59757462532051298 0.257337 0 -0.0380381
364 2 3 31.1018 -115.500101405261915 -6.16131e-15 2.59757462479636825 0.252502 0 -0.0380105
365 2 3 31.1018 -112.500101405261447 -5.99479e-15 2.59757462427222308 0.247666 0 -0.037983
366 2 3 31.1018 -109.500101405260978 -5.82827e-15 2.5975746237480779 0.24283 0 -0.0379555
367 2 3 31.1018 -106.500101405260509 -5.66175e-15 2.59757462322393273 0.237994 0 -0.0379279
368 2 3 31.1018 -103.50010140526004 -5.49523e-15 2.59757462269978801 0.233158 0 -0.0379004
369 2 3 31.1018 -100.500101405259571 -5.3287e-15 2.59757462217564283 0.228322 0 -0.0378728
370 2 3 31.1018 -97.5001014052591159 -5.16218e-15 2.59757462165149766 0.223486 0 -0.0378453
371 2 3 31.1018 -94.500101405258647 -4.99566e-15 2.59757462112735249 0.21865 0 -0.0378177
372 2 3 31.1018 -91.500101405258178 -4.82914e-15 2.59757462060320776 0.213814 0 -0.0377902
373 2 3 31.1018 -88.5001014052577091 -4.66262e-15 2.59757462007906259 0.208978 0 -0.0377627
374 2 3 31.1018 -85.5001014052572401 -4.49609e-15 2.59757461955491742 0.204142 0 -0.0377351
375 2 3 31.1018 -82.5001014052567712 -4.32957e-15 2.59757461903077225 0.199306 0 -0.0377076
376 2 3 31.1018 -79.5001014052563022 -4.16305e-15 2.59757461850662752 0.19447 0 -0.0376801
377 2 3 31.1018 -76.5001014052558475 -3.99653e-15 2.59757461798248235 0.189634 0 -0.0376525
378 2 3 31.1018 -73.5001014052553785 -3.83001e-15 2.59757461745833718 0.184798 0 -0.037625
379 2 3 31.1018 -70.5001014052549095 -3.66348e-15 2.597574616934192 0.179962 0 -0.0375975
380 2 3 31.1018 -67.5001014052544406 -3.49696e-15 2.59757461641004728 0.175126 0 -0.0375699
381 2 3 31.1018 -64.5001014052539716 -3.33044e-15 2.59757461588590211 0.17029 0 -0.0375424
382 2 3 31.1018 -61.5001014052535027 -3.16392e-15 2.59757461536175693 0.165454 0 -0.0375149
383 2 3 31.1018 -58.5001014052530337 -2.9974e-15 2.59757461483761176 0.160618 0 -0.0374874
384 2 3 31.1018 -55.5001014052525647 -2.83087e-15 2.59757461431346703 0.155782 0 -0.0374598
385 2 3 31.1018 -52.5001014052520958 -2.66435e-15 2.59757461378932186 0.150946 0 -0.0374323
386 2 3 31.1018 -49.5001014052516339 -2.49783e-15 2.59757461326517669 0.14611 0 -0.0374048
387 2 3 31.1018 -46.500101405251165 -2.33131e-15 2.59757461274103152 0.141274 0 -0.0373773
388 2 3 31.1018 -43.500101405250696 -2.16479e-15 2.59757461221688679 0.136438 0 -0.0373497
389 2 3 31.1018 -40.5001014052502342 -1.99826e-15 2.59757461169274162 0.131602 0 -0.0373222
390 2 3 31.1018 -37.5001014052497652 -1.83174e-15 2.59757461116859645 0.126766 0 -0.0372947
391 2 3 31.1018 -34.5001014052493034 -1.66522e-15 2.59757461064445128 0.12193 0 -0.0372672
392 2 3 31.1018 -31.5001014052488344 -1.4987e-15 2.59757461012030655 0.117093 0 -0.0372393
393 2 3 31.1018 -28.5001014052483654 -1.33218e-15 2.59757460959616138 0.112255 0 -0.0372105
394 2 3 31.1018 -25.5001014052479 -1.16565e-15 2.59757460907201621 0.107416 0 -0.0371817
395 2 3 31.1018 -22.5001014052474346 -9.99132e-16 2.59757460854787103 0.102578 0 -0.0371529
396 2 3 31.1018 -19.5001014052469657 -8.3261e-16 2.59757460802372631 0.0977398 0 -0.0371241
397 2 3 31.1018 -16.5001014052465003 -6.66088e-16 2.59757460749958113 0.0929017 0 -0.0370951
398 2 3 31.1018 -13.5001014052460349 -4.99566e-16 2.59757460697543596 0.088064 0 -0.0370659
399 2 3 31.1018 -10.5001014052455659 -3.33044e-16 2.59757460645129079 0.0832263 0 -0.0370368
400 2 3 31.1018 -7.50010140524509872 -1.66522e-16 2.59757460592714606 0.0783886 0 -0.0370076
401 2 3 31.1018 -4.50010140524463154 -1.47903e-31 2.59757460540300089 0.0735509 0 -0.0369784
402 2 3 31.1018 -1.50010140524416435 1.66522e-16 2.59757460487885572 0.0687132 0 -0.0369492
151 1 3 31.1018 0 0 0 0 0 0
152 1 3 31.1018 3 0 0 0 0 0
153 1 3 31.1018 6 0 0 0 0 0
154 1 3 31.1018 9 0 0 0 0 0
155 1 3 31.1018 12 0 0 0 0 0
156 1 3 31.1018 15 0 0 0 0 0
157 1 3 31.1018 18 0 0 0 0 0
158 1 3 31.1018 21 0 0 0 0 0
159 1 3 31.1018 24 0 0 0 0 0
160 1 3 31.1018 27 0 0 0 0 0
161 1 3 31.1018 30 0 0 0 0 0
162 1 3 31.1018 33 0 0 0 0 0
163 1 3 31.1018 36 0 0 0 0 0
164 1 3 31.1018 39 0 0 0 0 0
165 1 3 31.1018 42 0 0 0 0 0
166 1 3 31.1018 45 0 0 0 0 0
167 1 3 31.1018 48 0 0 0 0 0
168 1 3 31.1018 51 0 0 0 0 0
169 1 3 31.1018 54 0 0 0 0 0
170 1 3 31.1018 57 0 0 0 0 0
171 1 3 31.1018 60 0 0 0 0 0
172 1 3 31.1018 63 0 0 0 0 0
173 1 3 31.1018 66 0 0 0 0 0
174 1 3 31.1018 69 0 0 0 0 0
175 1 3 31.1018 72 0 0 0 0 0
176 1 3 31.1018 75 0 0 0 0 0
177 1 3 31.1018 78 0 0 0 0 0
178 1 3 31.1018 81 0 0 0 0 0
179 1 3 31.1018 84 0 0 0 0 0
180 1 3 31.1018 87 0 0 0 0 0
181 1 3 31.1018 90 0 0 0 0 0
182 1 3 31.1018 93 0 0 0 0 0
183 1 3 31.1018 96 0 0 0 0 0
184 1 3 31.1018 99 0 0 0 0 0
185 1 3 31.1018 102 0 0 0 0 0
186 1 3 31.1018 105 0 0 0 0 0
187 1 3 31.1018 108 0 0 0 0 0
188 1 3 31.1018 111 0 0 0 0 0
189 1 3 31.1018 114 0 0 0 0 0
190 1 3 31.1018 117 0 0 0 0 0
191 1 3 31.1018 120 0 0 0 0 0
192 1 3 31.1018 123 0 0 0 0 0
193 1 3 31.1018 126 0 0 0 0 0
194 1 3 31.1018 129 0 0 0 0 0
195 1 3 31.1018 132 0 0 0 0 0
196 1 3 31.1018 135 0 0 0 0 0
197 1 3 31.1018 138 0 0 0 0 0
198 1 3 31.1018 141 0 0 0 0 0
199 1 3 31.1018 144 0 0 0 0 0
200 1 3 31.1018 147 0 0 0 0 0
201 1 3 31.1018 150 0 0 0 0 0
202 1 3 31.1018 153 0 0 0 0 0
203 1 3 31.1018 156 0 0 0 0 0
204 1 3 31.1018 159 0 0 0 0 0
205 1 3 31.1018 162 0 0 0 0 0
206 1 3 31.1018 165 0 0 0 0 0
207 1 3 31.1018 168 0 0 0 0 0
208 1 3 31.1018 171 0 0 0 0 0
209 1 3 31.1018 174 0 0 0 0 0
210 1 3 31.1018 177 0 0 0 0 0
211 1 3 31.1018 180 0 0 0 0 0
212 1 3 31.1018 183 0 0 0 0 0
213 1 3 31.1018 186 0 0 0 0 0
214 1 3 31.1018 189 0 0 0 0 0
215 1 3 31.1018 192 0 0 0 0 0
216 1 3 31.1018 195 0 0 0 0 0
217 1 3 31.1018 198 0 0 0 0 0
218 1 3 31.1018 201 0 0 0 0 0
219 1 3 31.1018 204 0 0 0 0 0
220 1 3 31.1018 207 0 0 0 0 0
221 1 3 31.1018 210 0 0 0 0 0
222 1 3 31.1018 213 0 0 0 0 0
223 1 3 31.1018 216 0 0 0 0 0
224 1 3 31.1018 219 0 0 0 0 0
225 1 3 31.1018 222 0 0 0 0 0
403 2 3 31.1018 1.49989859475630283 3.33044e-16 2.59757460435471099 0.0638755 0 -0.0369201
404 2 3 31.1018 4.49989859475676912 4.99566e-16 2.59757460383056582 0.0590378 0 -0.0368909
405 2 3 31.1018 7.4998985947572363 6.66088e-16 2.59757460330642065 0.0542 0 -0.0368617
406 2 3 31.1018 10.4998985947577026 8.3261e-16 2.59757460278227548 0.0493623 0 -0.0368326
407 2 3 31.1018 13.4998985947581716 9.99132e-16 2.59757460225813075 0.0445246 0 -0.0368034
408 2 3 31.1018 16.499898594758637 1.16565e-15 2.59757460173398558 0.0396868 0 -0.0367742
409 2 3 31.1018 19.4998985947591059 1.33218e-15 2.59757460120984041 0.0348491 0 -0.036745
410 2 3 31.1018 22.4998985947595713 1.4987e-15 2.59757460068569523 0.0300113 0 -0.0367159
411 2 3 31.1018 25.4998985947600367 1.66522e-15 2.59757460016155051 0.0251736 0 -0.0366867
412 2 3 31.1018 28.4998985947605092 1.83174e-15 2.59757459963740533 0.0203358 0 -0.0366576
413 2 3 31.1018 31.4998985947609782 1.99826e-15 2.59757459911326016 0.015498 0 -0.0366284
414 2 3 31.1018 34.4998985947614401 2.16479e-15 2.59757459858911499 0.0106603 0 -0.0365992
415 2 3 31.1018 37.499898594761909 2.33131e-15 2.59757459806497026 0.00582247 0 -0.0365701
416 2 3 31.1018 40.499898594762378 2.49783e-15 2.59757459754082509 0.000984683 0 -0.0365409
417 2 3 31.1018 43.4998985947628469 2.66435e-15 2.59757459701667992 -0.00385311 0 -0.0365118
418 2 3 31.1018 46.4998985947633088 2.83087e-15 2.59757459649253475 -0.00869091 0 -0.0364826
419 2 3 31.1018 49.4998985947637777 2.9974e-15 2.59757459596839002 -0.0135287 0 -0.0364534
420 2 3 31.1018 52.4998985947642467 3.16392e-15 2.59757459544424485 -0.0183665 0 -0.0364243
421 2 3 31.1018 55.4998985947647085 3.33044e-15 2.59757459492009968 -0.0232043 0 -0.0363951
422 2 3 31.1018 58.4998985947651775 3.49696e-15 2.59757459439595451 -0.0280434 0 -0.0363653
423 2 3 31.1018 61.4998985947656465 3.66348e-15 2.59757459387180978 -0.0328835 0 -0.0363348
424 2 3 31.1018 64.4998985947661083 3.83001e-15 2.59757459334766461 -0.0377235 0 -0.0363044
425 2 3 31.1018 67.4998985947665773 3.99653e-15 2.59757459282351943 -0.0425636 0 -0.0362739
426 2 3 31.1018 70.499898594767032 4.16305e-15 2.59757459229937426 -0.0474037 0 -0.0362435
427 2 3 31.1018 73.499898594767501 4.32957e-15 2.59757459177522954 -0.0522437 0 -0.0362131
428 2 3 31.1018 76.4998985947679699 4.49609e-15 2.59757459125108436 -0.0570838 0 -0.0361826
429 2 3 31.1018 79.4998985947684389 4.66262e-15 2.59757459072693919 -0.0619239 0 -0.0361522
430 2 3 31.1018 82.4998985947689079 4.82914e-15 2.59757459020279402 -0.0662096 0 -0.0364419
431 2 3 31.1018 85.4998985947693768 4.99566e-15 2.59757458967864929 -0.0697878 0 -0.0371402
432 2 3 31.1018 88.4998985947698458 5.16218e-15 2.59757458915450412 -0.0733659 0 -0.0378384
433 2 3 31.1018 91.4998985947703147 5.3287e-15 2.59757458863035895 -0.076944 0 -0.0385367
434 2 3 31.1018 94.4998985947707695 5.49523e-15 2.59757458810621378 -0.0805187 0 -0.0392369
435 2 3 31.1018 97.4998985947712384 5.66175e-15 2.59757458758206905 -0.0840934 0 -0.0399372
436 2 3 31.1018 100.499898594771707 5.82827e-15 2.59757458705792388 -0.087668 0 -0.0406375
437 2 3 31.1018 103.499898594772176 5.99479e-15 2.59757458653377871 -0.0912427 0 -0.0413378
438 2 3 31.1018 106.499898594772645 6.16131e-15 2.59757458600963353 -0.0948173 0 -0.0420381
439 2 3 31.1018 109.499898594773114 6.32784e-15 2.59757458548548881 -0.098392 0 -0.0427384
440 2 3 31.1018 112.499898594773583 6.49436e-15 2.59757458496134364 -0.101967 0 -0.0434387
441 2 3 31.1018 115.499898594774038 6.66088e-15 2.59757458443719846 -0.105541 0 -0.044139
442 2 3 31.1018 118.499898594774507 6.8274e-15 2.59757458391305329 -0.109116 0 -0.0448393
443 2 3 31.1018 121.499898594774976 6.99392e-15 2.59757458338890856 -0.112691 0 -0.0455396
444 2 3 31.1018 124.499898594775431 7.16045e-15 2.59757458286476339 -0.116265 0 -0.0462399
445 2 3 31.1018 127.499898594775914 7.32697e-15 2.59757458234061822 -0.11984 0 -0.0469402
446 2 3 31.1018 130.499898594776369 7.49349e-15 2.59757458181647305 -0.123415 0 -0.0476405
447 2 3 31.1018 133.499898594776852 7.66001e-15 2.59757458129232832 -0.126989 0 -0.0483409
448 2 3 31.1018 136.499898594777306 7.82653e-15 2.59757458076818315 -0.130564 0 -0.0490412
449 2 3 31.1018 139.49989859477779 7.99306e-15 2.59757458024403798 -0.134139 0 -0.0497415
450 2 3 31.1018 142.499898594778244 8.15958e-15 2.59757457971989281 -0.137714 0 -0.0504418
451 2 3 31.1018 145.499898594778699 8.3261e-15 2.59757457919574808 -0.141288 0 -0.0511421
452 2 3 31.1018 148.499898594779182 8.49262e-15 2.59757457867160291 -0.144863 0 -0.0518425
453 2 3 31.1018 151.499898594779637 8.65914e-15 2.59757457814745774 -0.148434 0 -0.0525448
454 2 3 31.1018 154.49989859478012 8.82567e-15 2.59757457762331256 -0.152006 0 -0.0532471
455 2 3 31.1018 157.499898594780575 8.99219e-15 2.59757457709916784 -0.155577 0 -0.0539495
456 2 3 31.1018 160.499898594781058 9.15871e-15 2.59757457657502266 -0.159148 0 -0.0546518
457 2 3 31.1018 163.499898594781513 9.32523e-15 2.59757457605087749 -0.162719 0 -0.0553541
458 2 3 31.1018 166.499898594781968 9.49175e-15 2.59757457552673232 -0.166291 0 -0.0560565
459 2 3 31.1018 169.499898594782451 9.65828e-15 2.59757457500258759 -0.169862 0 -0.0567588
460 2 3 31.1018 172.499898594782906 9.8248e-15 2.59757457447844242 -0.173433 0 -0.0574612
461 2 3 31.1018 175.499898594783389 9.99132e-15 2.59757457395429725 -0.177004 0 -0.0581633
462 2 3 31.1018 178.499898594783843 1.01578e-14 2.59757457343015208 -0.180575 0 -0.0588652
463 2 3 31.1018 181.499898594784327 1.03244e-14 2.59757457290600735 -0.184145 0 -0.0595672
464 2 3 31.1018 184.499898594784781 1.04909e-14 2.59757457238186218 -0.187716 0 -0.0602691
465 2 3 31.1018 187.499898594785265 1.06574e-14 2.59757457185771701 -0.191286 0 -0.0609711
466 2 3 31.1018 190.499898594785719 1.08239e-14 2.59757457133357184 -0.194857 0 -0.061673
467 2 3 31.1018 193.499898594786174 1.09905e-14 2.59757457080942711 -0.198428 0 -0.062375
468 2 3 31.1018 196.499898594786657 1.1157e-14 2.59757457028528194 -0.201998 0 -0.0630769
469 2 3 31.1018 199.499898594787112 1.13235e-14 2.59757456976113676 -0.205569 0 -0.0637789
470 2 3 31.1018 202.499898594787595 1.149e-14 2.59757456923699159 -0.209139 0 -0.0644809
471 2 3 31.1018 205.49989859478805 1.16565e-14 2.59757456871284687 -0.21271 0 -0.0651828
472 2 3 31.1018 208.499898594788533 1.18231e-14 2.59757456818870169 -0.216277 0 -0.0658868
473 2 3 31.1018 211.499898594788988 1.19896e-14 2.59757456766455652 -0.219844 0 -0.0665908
474 2 3 31.1018 214.499898594789443 1.21561e-14 2.59757456714041135 -0.223411 0 -0.0672947
475 2 3 31.1018 217.499898594789926 1.23226e-14 2.59757456661626662 -0.226979 0 -0.0679987
476 2 3 31.1018 220.49989859479038 1.24892e-14 2.59757456609212145 -0.230546 0 -0.0687027
477 2 3 31.1018 223.499898594790864 1.26557e-14 2.59757456556797628 -0.234113 0 -0.0694067
226 1 3 31.1018 225 0 0 0 0 0
227 1 3 31.1018 228 0 0 0 0 0
228 1 3 31.1018 231 0 0 0 0 0
229 1 3 31.1018 234 0 0 0 0 0
230 1 3 31.1018 237 0 0 0 0 0
231 1 3 31.1018 240 0 0 0 0 0
232 1 3 31.1018 243 0 0 0 0 0
233 1 3 31.1018 246 0 0 0 0 0
234 1 3 31.1018 249 0 0 0 0 0
235 1 3 31.1018 252 0 0 0 0 0
236 1 3 31.1018 255 0 0 0 0 0
237 1 3 31.1018 258 0 0 0 0 0
238 1 3 31.1018 261 0 0 0 0 0
239 1 3 31.1018 264 0 0 0 0 0
240 1 3 31.1018 267 0 0 0 0 0
241 1 3 31.1018 270 0 0 0 0 0
242 1 3 31.1018 273 0 0 0 0 0
243 1 3 31.1018 276 0 0 0 0 0
244 1 3 31.1018 279 0 0 0 0 0
245 1 3 31.1018 282 0 0 0 0 0
246 1 3 31.1018 285 0 0 0 0 0
247 1 3 31.1018 288 0 0 0 0 0
248 1 3 31.1018 291 0 0 0 0 0
249 1 3 31.1018 294 0 0 0 0 0
250 1 3 31.1018 297 0 0 0 0 0
251 1 3 31.1018 300 0 0 0 0 0
252 1 3 31.1018 303 0 0 0 0 0
253 1 3 31.1018 306 0 0 0 0 0
254 1 3 31.1018 309 0 0 0 0 0
255 1 3 31.1018 312 0 0 0 0 0
256 1 3 31.1018 315 0 0 0 0 0
257 1 3 31.1018 318 0 0 0 0 0
258 1 3 31.1018 321 0 0 0 0 0
259 1 3 31.1018 324 0 0 0 0 0
260 1 3 31.1018 327 0 0 0 0 0
261 1 3 31.1018 330 0 0 0 0 0
262 1 3 31.1018 333 0 0 0 0 0
263 1 3 31.1018 336 0 0 0 0 0
264 1 3 31.1018 339 0 0 0 0 0
265 1 3 31.1018 342 0 0 0 0 0
266 1 3 31.1018 345 0 0 0 0 0
267 1 3 31.1018 348 0 0 0 0 0
268 1 3 31.1018 351 0 0 0 0 0
269 1 3 31.1018 354 0 0 0 0 0
270 1 3 31.1018 357 0 0 0 0 0
271 1 3 31.1018 360 0 0 0 0 0
272 1 3 31.1018 363 0 0 0 0 0
273 1 3 31.1018 366 0 0 0 0 0
274 1 3 31.1018 369 0 0 0 0 0
275 1 3 31.1018 372 0 0 0 0 0
276 1 3 31.1018 375 0 0 0 0 0
277 1 3 31.1018 378 0 0 0 0 0
278 1 3 31.1018 381 0 0 0 0 0
279 1 3 31.1018 384 0 0 0 0 0
280 1 3 31.1018 387 0 0 0 0 0
281 1 3 31.1018 390 0 0 0 0 0
282 1 3 31.1018 393 0 0 0 0 0
283 1 3 31.1018 396 0 0 0 0 0
284 1 3 31.1018 399 0 0 0 0 0
285 1 3 31.1018 402 0 0 0 0 0
286 1 3 31.1018 405 0 0 0 0 0
287 1 3 31.1018 408 0 0 0 0 0
288 1 3 31.1018 411 0 0 0 0 0
289 1 3 31.1018 414 0 0 0 0 0
290 1 3 31.1018 417 0 0 0 0 0
291 1 3 31.1018 420 0 0 0 0 0
292 1 3 31.1018 423 0 0 0 0 0
293 1 3 31.1018 426 0 0 0 0 0
294 1 3 31.1018 429 0 0 0 0 0
295 1 3 31.1018 432 0 0 0 0 0
296 1 3 31.1018 435 0 0 0 0 0
297 1 3 31.1018 438 0 0 0 0 0
298 1 3 31.1018 441 0 0 0 0 0
299 1 3 31.1018 444 0 0 0 0 0
300 1 3 31.1018 447 0 0 0 0 0
478 2 3 31.1018 226.499898594791318 1.28222e-14 2.59757456504383111 -0.23768 0 -0.0701106
479 2 3 31.1018 229.499898594791802 1.29887e-14 2.59757456451968638 -0.241247 0 -0.0708146
480 2 3 31.1018 232.499898594792256 1.31552e-14 2.59757456399554121 -0.244815 0 -0.0715186
481 2 3 31.1018 235.499898594792711 1.33218e-14 2.59757456347139604 -0.248382 0 -0.0722226
482 2 3 31.1018 238.499898594793194 1.34883e-14 2.59757456294725086 -0.251949 0 -0.0729266
483 2 3 31.1018 241.499898594793649 1.36548e-14 2.59757456242310614 -0.255516 0 -0.0736306
484 2 3 31.1018 244.499898594794132 1.38213e-14 2.59757456189896097 -0.259083 0 -0.0743346
485 2 3 31.1018 247.499898594794587 1.39878e-14 2.59757456137481579 -0.262651 0 -0.0750386
486 2 3 31.1018 250.49989859479507 1.41544e-14 2.59757456085067062 -0.266218 0 -0.0757426
487 2 3 31.1018 253.499898594795496 1.43209e-14 2.59757456032652589 -0.269785 0 -0.0764466
488 2 3 31.1018 256.499898594796036 1.44874e-14 2.59757455980238072 -0.273352 0 -0.0771506
489 2 3 31.1018 259.499898594796491 1.46539e-14 2.59757455927823555 -0.27692 0 -0.0778546
490 2 3 31.1018 262.499898594796946 1.48205e-14 2.59757455875409038 -0.280487 0 -0.0785586
491 2 3 31.1018 265.499898594797401 1.4987e-14 2.59757455822994565 -0.284051 0 -0.0792645
492 2 3 31.1018 268.499898594797912 1.51535e-14 2.59757455770580048 -0.287615 0 -0.0799705
493 2 3 31.1018 271.499898594798367 1.532e-14 2.59757455718165531 -0.291178 0 -0.0806765
494 2 3 31.1018 274.499898594798822 1.54865e-14 2.59757455665751014 -0.294742 0 -0.0813825
495 2 3 31.1018 277.499898594799276 1.56531e-14 2.59757455613336541 -0.298306 0 -0.0820885
496 2 3 31.1018 280.499898594799731 1.58196e-14 2.59757455560922024 -0.30187 0 -0.0827945
497 2 3 31.1018 283.499898594800243 1.59861e-14 2.59757455508507507 -0.305433 0 -0.0835006
498 2 3 31.1018 286.499898594800698 1.61526e-14 2.59757455456092989 -0.308997 0 -0.0842066
499 2 3 31.1018 289.499898594801152 1.63192e-14 2.59757455403678517 -0.312561 0 -0.0849126
500 2 3 31.1018 292.499898594801607 1.64857e-14 2.59757455351263999 -0.316125 0 -0.0856186
501 2 3 31.1018 295.499898594802062 1.66522e-14 2.59757455298849482 -0.319689 0 -0.0863247
