ITEM: TIMESTEP
4000000
ITEM: NUMBER OF ATOMS
751
ITEM: BOX BOUNDS pp pp pp
-6.7500000000000000e+02 6.7500000000000000e+02
-1.0000000000000000e+02 1.0000000000000000e+02
-1.0000000000000000e+02 1.0000000000000000e+02
ITEM: ATOMS id type diameter mass xu yu zu fx fy fz
1 1 3 31.1018 -675 0 0 0 0 0
2 1 3 31.1018 -672 0 0 0 0 0
3 1 3 31.1018 -669 0 0 0 0 0
4 1 3 31.1018 -666 0 0 0 0 0
5 1 3 31.1018 -663 0 0 0 0 0
6 1 3 31.1018 -660 0 0 0 0 0
7 1 3 31.1018 -657 0 0 0 0 0
8 1 3 31.1018 -654 0 0 0 0 0
9 1 3 31.1018 -651 0 0 0 0 0
10 1 3 31.1018 -648 0 0 0 0 0
11 1 3 31.1018 -645 0 0 0 0 0
12 1 3 31.1018 -642 0 0 0 0 0
13 1 3 31.1018 -639 0 0 0 0 0
14 1 3 31.1018 -636 0 0 0 0 0
15 1 3 31.1018 -633 0 0 0 0 0
16 1 3 31.1018 -630 0 0 0 0 0
17 1 3 31.1018 -627 0 0 0 0 0
18 1 3 31.1018 -624 0 0 0 0 0
19 1 3 31.1018 -621 0 0 0 0 0
20 1 3 31.1018 -618 0 0 0 0 0
21 1 3 31.1018 -615 0 0 0 0 0
22 1 3 31.1018 -612 0 0 0 0 0
23 1 3 31.1018 -609 0 0 0 0 0
24 1 3 31.1018 -606 0 0 0 0 0
25 1 3 31.1018 -603 0 0 0 0 0
26 1 3 31.1018 -600 0 0 0 0 0
27 1 3 31.1018 -597 0 0 0 0 0
28 1 3 31.1018 -594 0 0 0 0 0
29 1 3 31.1018 -591 0 0 0 0 0
30 1 3 31.1018 -588 0 0 0 0 0
31 1 3 31.1018 -585 0 0 0 0 0
32 1 3 31.1018 -582 0 0 0 0 0
33 1 3 31.1018 -579 0 0 0 0 0
34 1 3 31.1018 -576 0 0 0 0 0
35 1 3 31.1018 -573 0 0 0 0 0
36 1 3 31.1018 -570 0 0 0 0 0
37 1 3 31.1018 -567 0 0 0 0 0
38 1 3 31.1018 -564 0 0 0 0 0
39 1 3 31.1018 -561 0 0 0 0 0
40 1 3 31.1018 -558 0 0 0 0 0
41 1 3 31.1018 -555 0 0 0 0 0
42 1 3 31.1018 -552 0 0 0 0 0
43 1 3 31.1018 -549 0 0 0 0 0
44 1 3 31.1018 -546 0 0 0 0 0
45 1 3 31.1018 -543 0 0 0 0 0
46 1 3 31.1018 -540 0 0 0 0 0
47 1 3 31.1018 -537 0 0 0 0 0
48 1 3 31.1018 -534 0 0 0 0 0
49 1 3 31.1018 -531 0 0 0 0 0
50 1 3 31.1018 -528 0 0 0 0 0
51 1 3 31.1018 -525 0 0 0 0 0
52 1 3 31.1018 -522 0 0 0 0 0
53 1 3 31.1018 -519 0 0 0 0 0
54 1 3 31.1018 -516 0 0 0 0 0
55 1 3 31.1018 -513 0 0 0 0 0
56 1 3 31.1018 -510 0 0 0 0 0
57 1 3 31.1018 -507 0 0 0 0 0
58 1 3 31.1018 -504 0 0 0 0 0
59 1 3 31.1018 -501 0 0 0 0 0
60 1 3 31.1018 -498 0 0 0 0 0
61 1 3 31.1018 -495 0 0 0 0 0
62 1 3 31.1018 -492 0 0 0 0 0
63 1 3 31.1018 -489 0 0 0 0 0
64 1 3 31.1018 -486 0 0 0 0 0
65 1 3 31.1018 -483 0 0 0 0 0
66 1 3 31.1018 -480 0 0 0 0 0
67 1 3 31.1018 -477 0 0 0 0 0
68 1 3 31.1018 -474 0 0 0 0 0
69 1 3 31.1018 -471 0 0 0 0 0
70 1 3 31.1018 -468 0 0 0 0 0
71 1 3 31.1018 -465 0 0 0 0 0
72 1 3 31.1018 -462 0 0 0 0 0
73 1 3 31.1018 -459 0 0 0 0 0
74 1 3 31.1018 -456 0 0 0 0 0
75 1 3 31.1018 -453 0 0 0 0 0
76 1 3 31.1018 -450 0 0 0 0 0
77 1 3 31.1018 -447 0 0 0 0 0
78 1 3 31.1018 -444 0 0 0 0 0
79 1 3 31.1018 -441 0 0 0 0 0
80 1 3 31.1018 -438 0 0 0 0 0
81 1 3 31.1018 -435 0 0 0 0 0
82 1 3 31.1018 -432 0 0 0 0 0
83 1 3 31.1018 -429 0 0 0 0 0
84 1 3 31.1018 -426 0 0 0 0 0
85 1 3 31.1018 -423 0 0 0 0 0
86 1 3 31.1018 -420 0 0 0 0 0
87 1 3 31.1018 -417 0 0 0 0 0
88 1 3 31.1018 -414 0 0 0 0 0
89 1 3 31.1018 -411 0 0 0 0 0
90 1 3 31.1018 -408 0 0 0 0 0
91 1 3 31.1018 -405 0 0 0 0 0
92 1 3 31.1018 -402 0 0 0 0 0
93 1 3 31.1018 -399 0 0 0 0 0
94 1 3 31.1018 -396 0 0 0 0 0
95 1 3 31.1018 -393 0 0 0 0 0
96 1 3 31.1018 -390 0 0 0 0 0
97 1 3 31.1018 -387 0 0 0 0 0
98 1 3 31.1018 -384 0 0 0 0 0
99 1 3 31.1018 -381 0 0 0 0 0
100 1 3 31.1018 -378 0 0 0 0 0
101 1 3 31.1018 -375 0 0 0 0 0
102 1 3 31.1018 -372 0 0 0 0 0
103 1 3 31.1018 -369 0 0 0 0 0
104 1 3 31.1018 -366 0 0 0 0 0
105 1 3 31.1018 -363 0 0 0 0 0
106 1 3 31.1018 -360 0 0 0 0 0
107 1 3 31.1018 -357 0 0 0 0 0
108 1 3 31.1018 -354 0 0 0 0 0
109 1 3 31.1018 -351 0 0 0 0 0
110 1 3 31.1018 -348 0 0 0 0 0
111 1 3 31.1018 -345 0 0 0 0 0
112 1 3 31.1018 -342 0 0 0 0 0
113 1 3 31.1018 -339 0 0 0 0 0
451 2 3 31.1018 -454.500101367752677 4.28126e-19 2.5975746408855791 0.282701 0 -0.0323283
452 2 3 31.1018 -451.500101367753018 4.25272e-19 2.59757464062385379 0.283804 0 -0.0303301
453 2 3 31.1018 -448.500101367753359 4.22418e-19 2.59757464036212804 0.284907 0 -0.0283319
454 2 3 31.1018 -445.5001013677537 4.19564e-19 2.59757464010040229 0.28601 0 -0.0263337
455 2 3 31.1018 -442.500101367754098 4.16709e-19 2.59757463983867654 0.287114 0 -0.0243355
456 2 3 31.1018 -439.500101367754439 4.13855e-19 2.59757463957695123 0.286292 0 -0.0234478
457 2 3 31.1018 -436.50010136775478 4.11001e-19 2.59757463931522548 0.284117 0 -0.0233416
458 2 3 31.1018 -433.500101367755121 4.08147e-19 2.59757463905349972 0.281942 0 -0.0232354
459 2 3 31.1018 -430.500101367755462 4.05293e-19 2.59757463879177397 0.279767 0 -0.0231292
460 2 3 31.1018 -427.500101367755803 4.02439e-19 2.59757463853004866 0.277592 0 -0.023023
461 2 3 31.1018 -424.500101367756145 3.99584e-19 2.59757463826832291 0.275416 0 -0.0229168
462 2 3 31.1018 -421.500101367756542 3.9673e-19 2.59757463800659716 0.273241 0 -0.0228106
463 2 3 31.1018 -418.500101367756884 3.93876e-19 2.59757463774487141 0.271066 0 -0.0227044
464 2 3 31.1018 -415.500101367757225 3.91022e-19 2.5975746374831461 0.268891 0 -0.0225982
465 2 3 31.1018 -412.500101367757566 3.88168e-19 2.59757463722142035 0.266716 0 -0.022492
466 2 3 31.1018 -409.500101367757907 3.85314e-19 2.59757463695969459 0.264541 0 -0.0223858
467 2 3 31.1018 -406.500101367758248 3.82459e-19 2.59757463669796884 0.262366 0 -0.0222796
468 2 3 31.1018 -403.500101367758646 3.79605e-19 2.59757463643624353 0.260191 0 -0.0221734
469 2 3 31.1018 -400.500101367758987 3.76751e-19 2.59757463617451778 0.258016 0 -0.0220672
470 2 3 31.1018 -397.500101367759328 3.73897e-19 2.59757463591279203 0.255841 0 -0.0219607
471 2 3 31.1018 -394.500101367759669 3.71043e-19 2.59757463565106628 0.253667 0 -0.0218541
472 2 3 31.1018 -391.50010136776001 3.68189e-19 2.59757463538934097 0.251492 0 -0.0217475
473 2 3 31.1018 -388.500101367760351 3.65334e-19 2.59757463512761522 0.249318 0 -0.021641
474 2 3 31.1018 -385.500101367760692 3.6248e-19 2.59757463486588946 0.247144 0 -0.0215344
475 2 3 31.1018 -382.50010136776109 3.59626e-19 2.59757463460416371 0.244969 0 -0.0214278
476 2 3 31.1018 -379.500101367761431 3.56772e-19 2.5975746343424384 0.242795 0 -0.0213213
477 2 3 31.1018 -376.500101367761772 3.53918e-19 2.59757463408071265 0.24062 0 -0.0212147
478 2 3 31.1018 -373.500101367762113 3.51063e-19 2.5975746338189869 0.241728 0 -0.0192125
479 2 3 31.1018 -370.500101367762454 3.48209e-19 2.59757463355726115 0.242911 0 -0.0171673
480 2 3 31.1018 -367.500101367762795 3.45355e-19 2.59757463329553584 0.244093 0 -0.0151222
481 2 3 31.1018 -364.500101367763136 3.42501e-19 2.59757463303381009 0.245276 0 -0.013077
482 2 3 31.1018 -361.500101367763534 3.39647e-19 2.59757463277208434 0.246458 0 -0.0110318
483 2 3 31.1018 -358.500101367763875 3.36793e-19 2.59757463251035858 0.247641 0 -0.0089866
484 2 3 31.1018 -355.500101367764216 3.33938e-19 2.59757463224863328 0.248823 0 -0.00694141
485 2 3 31.1018 -352.500101367764557 3.31084e-19 2.59757463198690752 0.250005 0 -0.00489622
486 2 3 31.1018 -349.500101367764898 3.2823e-19 2.59757463172518177 0.251188 0 -0.00285104
487 2 3 31.1018 -346.50010136776524 3.25376e-19 2.59757463146345602 0.25237 0 -0.000805848
488 2 3 31.1018 -343.500101367765581 3.22522e-19 2.59757463120173071 0.250465 0 -0.000543816
489 2 3 31.1018 -340.500101367765978 3.19668e-19 2.59757463094000496 0.248215 0 -0.000480822
114 1 3 31.1018 -336 0 0 0 0 0
115 1 3 31.1018 -333 0 0 0 0 0
116 1 3 31.1018 -330 0 0 0 0 0
117 1 3 31.1018 -327 0 0 0 0 0
118 1 3 31.1018 -324 0 0 0 0 0
119 1 3 31.1018 -321 0 0 0 0 0
120 1 3 31.1018 -318 0 0 0 0 0
121 1 3 31.1018 -315 0 0 0 0 0
122 1 3 31.1018 -312 0 0 0 0 0
123 1 3 31.1018 -309 0 0 0 0 0
124 1 3 31.1018 -306 0 0 0 0 0
125 1 3 31.1018 -303 0 0 0 0 0
126 1 3 31.1018 -300 0 0 0 0 0
127 1 3 31.1018 -297 0 0 0 0 0
128 1 3 31.1018 -294 0 0 0 0 0
129 1 3 31.1018 -291 0 0 0 0 0
130 1 3 31.1018 -288 0 0 0 0 0
131 1 3 31.1018 -285 0 0 0 0 0
132 1 3 31.1018 -282 0 0 0 0 0
133 1 3 31.1018 -279 0 0 0 0 0
134 1 3 31.1018 -276 0 0 0 0 0
135 1 3 31.1018 -273 0 0 0 0 0
136 1 3 31.1018 -270 0 0 0 0 0
137 1 3 31.1018 -267 0 0 0 0 0
138 1 3 31.1018 -264 0 0 0 0 0
139 1 3 31.1018 -261 0 0 0 0 0
140 1 3 31.1018 -258 0 0 0 0 0
141 1 3 31.1018 -255 0 0 0 0 0
142 1 3 31.1018 -252 0 0 0 0 0
143 1 3 31.1018 -249 0 0 0 0 0
144 1 3 31.1018 -246 0 0 0 0 0
145 1 3 31.1018 -243 0 0 0 0 0
146 1 3 31.1018 -240 0 0 0 0 0
147 1 3 31.1018 -237 0 0 0 0 0
148 1 3 31.1018 -234 0 0 0 0 0
149 1 3 31.1018 -231 0 0 0 0 0
150 1 3 31.1018 -228 0 0 0 0 0
151 1 3 31.1018 -225 0 0 0 0 0
152 1 3 31.1018 -222 0 0 0 0 0
153 1 3 31.1018 -219 0 0 0 0 0
154 1 3 31.1018 -216 0 0 0 0 0
155 1 3 31.1018 -213 0 0 0 0 0
156 1 3 31.1018 -210 0 0 0 0 0
157 1 3 31.1018 -207 0 0 0 0 0
158 1 3 31.1018 -204 0 0 0 0 0
159 1 3 31.1018 -201 0 0 0 0 0
160 1 3 31.1018 -198 0 0 0 0 0
161 1 3 31.1018 -195 0 0 0 0 0
162 1 3 31.1018 -192 0 0 0 0 0
163 1 3 31.1018 -189 0 0 0 0 0
164 1 3 31.1018 -186 0 0 0 0 0
165 1 3 31.1018 -183 0 0 0 0 0
166 1 3 31.1018 -180 0 0 0 0 0
167 1 3 31.1018 -177 0 0 0 0 0
168 1 3 31.1018 -174 0 0 0 0 0
169 1 3 31.1018 -171 0 0 0 0 0
170 1 3 31.1018 -168 0 0 0 0 0
171 1 3 31.1018 -165 0 0 0 0 0
172 1 3 31.1018 -162 0 0 0 0 0
173 1 3 31.1018 -159 0 0 0 0 0
174 1 3 31.1018 -156 0 0 0 0 0
175 1 3 31.1018 -153 0 0 0 0 0
176 1 3 31.1018 -150 0 0 0 0 0
177 1 3 31.1018 -147 0 0 0 0 0
178 1 3 31.1018 -144 0 0 0 0 0
179 1 3 31.1018 -141 0 0 0 0 0
180 1 3 31.1018 -138 0 0 0 0 0
181 1 3 31.1018 -135 0 0 0 0 0
182 1 3 31.1018 -132 0 0 0 0 0
183 1 3 31.1018 -129 0 0 0 0 0
184 1 3 31.1018 -126 0 0 0 0 0
185 1 3 31.1018 -123 0 0 0 0 0
186 1 3 31.1018 -120 0 0 0 0 0
187 1 3 31.1018 -117 0 0 0 0 0
188 1 3 31.1018 -114 0 0 0 0 0
189 1 3 31.1018 -111 0 0 0 0 0
190 1 3 31.1018 -108 0 0 0 0 0
191 1 3 31.1018 -105 0 0 0 0 0
192 1 3 31.1018 -102 0 0 0 0 0
193 1 3 31.1018 -99 0 0 0 0 0
194 1 3 31.1018 -96 0 0 0 0 0
195 1 3 31.1018 -93 0 0 0 0 0
196 1 3 31.1018 -90 0 0 0 0 0
197 1 3 31.1018 -87 0 0 0 0 0
198 1 3 31.1018 -84 0 0 0 0 0
199 1 3 31.1018 -81 0 0 0 0 0
200 1 3 31.1018 -78 0 0 0 0 0
201 1 3 31.1018 -75 0 0 0 0 0
202 1 3 31.1018 -72 0 0 0 0 0
203 1 3 31.1018 -69 0 0 0 0 0
204 1 3 31.1018 -66 0 0 0 0 0
205 1 3 31.1018 -63 0 0 0 0 0
206 1 3 31.1018 -60 0 0 0 0 0
207 1 3 31.1018 -57 0 0 0 0 0
208 1 3 31.1018 -54 0 0 0 0 0
209 1 3 31.1018 -51 0 0 0 0 0
210 1 3 31.1018 -48 0 0 0 0 0
211 1 3 31.1018 -45 0 0 0 0 0
212 1 3 31.1018 -42 0 0 0 0 0
213 1 3 31.1018 -39 0 0 0 0 0
214 1 3 31.1018 -36 0 0 0 0 0
215 1 3 31.1018 -33 0 0 0 0 0
216 1 3 31.1018 -30 0 0 0 0 0
217 1 3 31.1018 -27 0 0 0 0 0
218 1 3 31.1018 -24 0 0 0 0 0
219 1 3 31.1018 -21 0 0 0 0 0
220 1 3 31.1018 -18 0 0 0 0 0
221 1 3 31.1018 -15 0 0 0 0 0
222 1 3 31.1018 -12 0 0 0 0 0
223 1 3 31.1018 -9 0 0 0 0 0
224 1 3 31.1018 -6 0 0 0 0 0
225 1 3 31.1018 -3 0 0 0 0 0
490 2 3 31.1018 -337.50010136776632 3.16813e-19 2.59757463067827921 0.245965 0 -0.000417835
491 2 3 31.1018 -334.500101367766661 3.13959e-19 2.59757463041655345 0.243715 0 -0.000354847
492 2 3 31.1018 -331.500101367767002 3.11105e-19 2.59757463015482815 0.241465 0 -0.000291862
493 2 3 31.1018 -328.500101367767343 3.08251e-19 2.59757462989310239 0.239215 0 -0.000228875
494 2 3 31.1018 -325.500101367767684 3.05397e-19 2.59757462963137664 0.236966 0 -0.00016589
495 2 3 31.1018 -322.500101367768025 3.02543e-19 2.59757462936965089 0.234716 0 -0.000102904
496 2 3 31.1018 -319.500101367768423 2.99688e-19 2.59757462910792558 0.232466 0 -3.99134e-05
497 2 3 31.1018 -316.500101367768764 2.96834e-19 2.59757462884619983 0.230216 0 2.30721e-05
498 2 3 31.1018 -313.500101367769105 2.9398e-19 2.59757462858447408 0.227966 0 8.60584e-05
499 2 3 31.1018 -310.500101367769446 2.91126e-19 2.59757462832274832 0.225716 0 0.000149042
500 2 3 31.1018 -307.500101367769787 2.88272e-19 2.59757462806102302 0.223466 0 0.000212026
501 2 3 31.1018 -304.500101367770128 2.85417e-19 2.59757462779929726 0.221216 0 0.00027501
502 2 3 31.1018 -301.500101367770469 2.82563e-19 2.59757462753757151 0.218966 0 0.000337995
503 2 3 31.1018 -298.500101367770867 2.79709e-19 2.59757462727584576 0.216716 0 0.000400985
504 2 3 31.1018 -295.500101367771208 2.76855e-19 2.59757462701412045 0.214466 0 0.000463967
505 2 3 31.1018 -292.500101367771549 2.74001e-19 2.5975746267523947 0.212216 0 0.00052695
506 2 3 31.1018 -289.50010136777189 2.71147e-19 2.59757462649066895 0.209966 0 0.000589934
507 2 3 31.1018 -286.500101367772231 2.68292e-19 2.5975746262289432 0.207716 0 0.000652916
508 2 3 31.1018 -283.500101367772572 2.65438e-19 2.59757462596721789 0.205466 0 0.000715897
509 2 3 31.1018 -280.50010136777297 2.62584e-19 2.59757462570549214 0.203217 0 0.000778886
510 2 3 31.1018 -277.500101367773311 2.5973e-19 2.59757462544376638 0.200967 0 0.000841868
511 2 3 31.1018 -274.500101367773652 2.56876e-19 2.59757462518204063 0.198717 0 0.00090485
512 2 3 31.1018 -271.500101367773993 2.54022e-19 2.59757462492031532 0.196467 0 0.000967831
513 2 3 31.1018 -268.500101367774334 2.51167e-19 2.59757462465858957 0.194217 0 0.00103081
514 2 3 31.1018 -265.500101367774676 2.48313e-19 2.59757462439686382 0.191967 0 0.00109379
515 2 3 31.1018 -262.500101367775017 2.45459e-19 2.59757462413513807 0.189717 0 0.00115684
516 2 3 31.1018 -259.500101367775358 2.42605e-19 2.59757462387341276 0.187467 0 0.00122003
517 2 3 31.1018 -256.500101367775699 2.39751e-19 2.59757462361168701 0.185218 0 0.00128322
518 2 3 31.1018 -253.500101367776097 2.36896e-19 2.59757462334996125 0.182968 0 0.00134641
519 2 3 31.1018 -250.500101367776438 2.34042e-19 2.5975746230882355 0.180719 0 0.00140959
520 2 3 31.1018 -247.500101367776779 2.31188e-19 2.59757462282651019 0.178469 0 0.00147278
521 2 3 31.1018 -244.500101367777148 2.28334e-19 2.59757462256478444 0.176219 0 0.00153596
522 2 3 31.1018 -241.500101367777489 2.2548e-19 2.59757462230305869 0.173969 0 0.00159954
523 2 3 31.1018 -238.50010136777783 2.22626e-19 2.59757462204133294 0.171718 0 0.0016633
524 2 3 31.1018 -235.500101367778171 2.19771e-19 2.59757462177960763 0.169468 0 0.00172706
525 2 3 31.1018 -232.500101367778541 2.16917e-19 2.59757462151788188 0.167217 0 0.00179083
526 2 3 31.1018 -229.500101367778882 2.14063e-19 2.59757462125615612 0.164967 0 0.00185459
527 2 3 31.1018 -226.500101367779223 2.11209e-19 2.59757462099443037 0.162716 0 0.00191835
528 2 3 31.1018 -223.500101367779592 2.08355e-19 2.59757462073270506 0.160465 0 0.00198211
529 2 3 31.1018 -220.500101367779934 2.05501e-19 2.59757462047097931 0.158215 0 0.00204587
530 2 3 31.1018 -217.500101367780275 2.02646e-19 2.59757462020925356 0.155964 0 0.00210964
531 2 3 31.1018 -214.500101367780616 1.99792e-19 2.59757461994752781 0.153713 0 0.0021734
532 2 3 31.1018 -211.500101367780985 1.96938e-19 2.5975746196858025 0.151463 0 0.00223716
533 2 3 31.1018 -208.500101367781326 1.94084e-19 2.59757461942407675 0.149212 0 0.00230092
534 2 3 31.1018 -205.500101367781667 1.9123e-19 2.597574619162351 0.146962 0 0.00236467
535 2 3 31.1018 -202.500101367782037 1.88376e-19 2.59757461890062524 0.144711 0 0.00242844
536 2 3 31.1018 -199.500101367782378 1.85521e-19 2.59757461863889993 0.14246 0 0.00249219
537 2 3 31.1018 -196.500101367782719 1.82667e-19 2.59757461837717418 0.14021 0 0.00255595
538 2 3 31.1018 -193.500101367783088 1.79813e-19 2.59757461811544843 0.137959 0 0.00261971
539 2 3 31.1018 -190.500101367783429 1.76959e-19 2.59757461785372268 0.135708 0 0.00268347
540 2 3 31.1018 -187.50010136778377 1.74105e-19 2.59757461759199737 0.133458 0 0.00274723
541 2 3 31.1018 -184.500101367784112 1.7125e-19 2.59757461733027162 0.131207 0 0.00281099
542 2 3 31.1018 -181.500101367784481 1.68396e-19 2.59757461706854587 0.128957 0 0.00287475
543 2 3 31.1018 -178.500101367784822 1.65542e-19 2.59757461680682011 0.126706 0 0.0029385
544 2 3 31.1018 -175.500101367785163 1.62688e-19 2.59757461654509481 0.124455 0 0.00300226
545 2 3 31.1018 -172.500101367785533 1.59834e-19 2.59757461628336905 0.122205 0 0.00306602
546 2 3 31.1018 -169.500101367785874 1.5698e-19 2.5975746160216433 0.119954 0 0.00312977
547 2 3 31.1018 -166.500101367786215 1.54125e-19 2.59757461575991755 0.117703 0 0.00319353
548 2 3 31.1018 -163.500101367786556 1.51271e-19 2.59757461549819224 0.115453 0 0.00325728
549 2 3 31.1018 -160.500101367786925 1.48417e-19 2.59757461523646649 0.113202 0 0.00332104
550 2 3 31.1018 -157.500101367787266 1.45563e-19 2.59757461497474074 0.110951 0 0.0033848
551 2 3 31.1018 -154.500101367787607 1.42709e-19 2.59757461471301498 0.108701 0 0.00344855
552 2 3 31.1018 -151.500101367787977 1.39855e-19 2.59757461445128968 0.10645 0 0.00351231
553 2 3 31.1018 -148.500101367788318 1.37e-19 2.59757461418956392 0.1042 0 0.00357606
554 2 3 31.1018 -145.500101367788659 1.34146e-19 2.59757461392783817 0.101949 0 0.00363982
555 2 3 31.1018 -142.500101367789028 1.31292e-19 2.59757461366611242 0.0996982 0 0.00370357
556 2 3 31.1018 -139.50010136778937 1.28438e-19 2.59757461340438711 0.0974476 0 0.00376733
557 2 3 31.1018 -136.500101367789711 1.25584e-19 2.59757461314266136 0.0951969 0 0.00383108
558 2 3 31.1018 -133.500101367790052 1.2273e-19 2.59757461288093561 0.0929462 0 0.00389483
559 2 3 31.1018 -130.500101367790421 1.19875e-19 2.59757461261920986 0.0906956 0 0.00395859
560 2 3 31.1018 -127.500101367790776 1.17021e-19 2.59757461235748455 0.088445 0 0.00402234
561 2 3 31.1018 -124.500101367791132 1.14167e-19 2.59757461209575879 0.0861943 0 0.0040861
562 2 3 31.1018 -121.500101367791473 1.11313e-19 2.59757461183403304 0.0839436 0 0.00414985
563 2 3 31.1018 -118.500101367791828 1.08459e-19 2.59757461157230729 0.081693 0 0.0042136
564 2 3 31.1018 -115.500101367792169 1.05604e-19 2.59757461131058198 0.0794423 0 0.00427735
565 2 3 31.1018 -112.500101367792524 1.0275e-19 2.59757461104885623 0.0771917 0 0.00434111
566 2 3 31.1018 -109.500101367792865 9.98961e-20 2.59757461078713048 0.074941 0 0.00440486
567 2 3 31.1018 -106.500101367793221 9.70419e-20 2.59757461052540473 0.0726903 0 0.00446861
568 2 3 31.1018 -103.500101367793576 9.41878e-20 2.59757461026367942 0.0704397 0 0.00453236
569 2 3 31.1018 -100.500101367793917 9.13336e-20 2.59757461000195367 0.068189 0 0.00459611
570 2 3 31.1018 -97.5001013677942723 8.84794e-20 2.59757460974022791 0.0659383 0 0.00465986
571 2 3 31.1018 -94.5001013677946133 8.56252e-20 2.59757460947850216 0.0636876 0 0.00472361
572 2 3 31.1018 -91.5001013677949686 8.27711e-20 2.59757460921677685 0.061437 0 0.00478736
573 2 3 31.1018 -88.5001013677953239 7.99169e-20 2.5975746089550511 0.0591863 0 0.00485111
574 2 3 31.1018 -85.5001013677956649 7.70627e-20 2.59757460869332535 0.0569356 0 0.00491486
575 2 3 31.1018 -82.5001013677960202 7.42085e-20 2.5975746084315996 0.0546849 0 0.00497861
576 2 3 31.1018 -79.5001013677963613 7.13544e-20 2.59757460816987429 0.0524343 0 0.00504236
577 2 3 31.1018 -76.5001013677967165 6.85002e-20 2.59757460790814854 0.0501836 0 0.00510611
578 2 3 31.1018 -73.5001013677970718 6.5646e-20 2.59757460764642278 0.0479329 0 0.00516986
579 2 3 31.1018 -70.5001013677974129 6.27918e-20 2.59757460738469703 0.0456822 0 0.0052336
580 2 3 31.1018 -67.5001013677977539 5.99377e-20 2.59757460712297172 0.0434315 0 0.00529735
581 2 3 31.1018 -64.5001013677981092 5.70835e-20 2.59757460686124597 0.0411809 0 0.0053611
582 2 3 31.1018 -61.5001013677984645 5.42293e-20 2.59757460659952022 0.0389302 0 0.00542485
583 2 3 31.1018 -58.5001013677988126 5.13751e-20 2.59757460633779447 0.0366795 0 0.0054886
584 2 3 31.1018 -55.5001013677991608 4.8521e-20 2.59757460607606916 0.0344288 0 0.00555234
585 2 3 31.1018 -52.500101367799509 4.56668e-20 2.59757460581434341 0.0321781 0 0.00561609
586 2 3 31.1018 -49.5001013677998571 4.28126e-20 2.59757460555261765 0.0299274 0 0.00567983
587 2 3 31.1018 -46.5001013678002124 3.99584e-20 2.5975746052908919 0.0276767 0 0.00574358
588 2 3 31.1018 -43.5001013678005606 3.71043e-20 2.59757460502916659 0.0254258 0 0.00580747
589 2 3 31.1018 -40.5001013678009087 3.42501e-20 2.59757460476744084 0.0231741 0 0.00587179
590 2 3 31.1018 -37.5001013678012569 3.13959e-20 2.59757460450571509 0.0209224 0 0.00593611
591 2 3 31.1018 -34.5001013678016051 2.85417e-20 2.59757460424398934 0.0186707 0 0.00600043
592 2 3 31.1018 -31.5001013678019497 2.56876e-20 2.59757460398226403 0.016419 0 0.00606476
593 2 3 31.1018 -28.5001013678022979 2.28334e-20 2.59757460372053828 0.0141673 0 0.00612908
594 2 3 31.1018 -25.5001013678026496 1.99792e-20 2.59757460345881253 0.0119156 0 0.0061934
595 2 3 31.1018 -22.5001013678029977 1.7125e-20 2.59757460319708677 0.00966391 0 0.00625772
596 2 3 31.1018 -19.5001013678033495 1.42709e-20 2.59757460293536147 0.00741221 0 0.00632204
597 2 3 31.1018 -16.5001013678036976 1.14167e-20 2.59757460267363571 0.00516051 0 0.00638636
598 2 3 31.1018 -13.5001013678040458 8.56252e-21 2.59757460241190996 0.0029088 0 0.00645068
599 2 3 31.1018 -10.5001013678043975 5.70835e-21 2.59757460215018421 0.000657097 0 0.006515
600 2 3 31.1018 -7.50010136780474568 2.85417e-21 2.5975746018884589 -0.00159461 0 0.00657932
601 2 3 31.1018 -4.50010136780509562 -1.56315e-35 2.59757460162673315 -0.00384632 0 0.00664364
602 2 3 31.1018 -1.50010136780544512 -2.85417e-21 2.5975746013650074 -0.00609803 0 0.00670796
226 1 3 31.1018 0 0 0 0 0 0
227 1 3 31.1018 3 0 0 0 0 0
228 1 3 31.1018 6 0 0 0 0 0
229 1 3 31.1018 9 0 0 0 0 0
230 1 3 31.1018 12 0 0 0 0 0
231 1 3 31.1018 15 0 0 0 0 0
232 1 3 31.1018 18 0 0 0 0 0
233 1 3 31.1018 21 0 0 0 0 0
234 1 3 31.1018 24 0 0 0 0 0
235 1 3 31.1018 27 0 0 0 0 0
236 1 3 31.1018 30 0 0 0 0 0
237 1 3 31.1018 33 0 0 0 0 0
238 1 3 31.1018 36 0 0 0 0 0
239 1 3 31.1018 39 0 0 0 0 0
240 1 3 31.1018 42 0 0 0 0 0
241 1 3 31.1018 45 0 0 0 0 0
242 1 3 31.1018 48 0 0 0 0 0
243 1 3 31.1018 51 0 0 0 0 0
244 1 3 31.1018 54 0 0 0 0 0
245 1 3 31.1018 57 0 0 0 0 0
246 1 3 31.1018 60 0 0 0 0 0
247 1 3 31.1018 63 0 0 0 0 0
248 1 3 31.1018 66 0 0 0 0 0
249 1 3 31.1018 69 0 0 0 0 0
250 1 3 31.1018 72 0 0 0 0 0
251 1 3 31.1018 75 0 0 0 0 0
252 1 3 31.1018 78 0 0 0 0 0
253 1 3 31.1018 81 0 0 0 0 0
254 1 3 31.1018 84 0 0 0 0 0
255 1 3 31.1018 87 0 0 0 0 0
256 1 3 31.1018 90 0 0 0 0 0
257 1 3 31.1018 93 0 0 0 0 0
258 1 3 31.1018 96 0 0 0 0 0
259 1 3 31.1018 99 0 0 0 0 0
260 1 3 31.1018 102 0 0 0 0 0
261 1 3 31.1018 105 0 0 0 0 0
262 1 3 31.1018 108 0 0 0 0 0
263 1 3 31.1018 111 0 0 0 0 0
264 1 3 31.1018 114 0 0 0 0 0
265 1 3 31.1018 117 0 0 0 0 0
266 1 3 31.1018 120 0 0 0 0 0
267 1 3 31.1018 123 0 0 0 0 0
268 1 3 31.1018 126 0 0 0 0 0
269 1 3 31.1018 129 0 0 0 0 0
270 1 3 31.1018 132 0 0 0 0 0
271 1 3 31.1018 135 0 0 0 0 0
272 1 3 31.1018 138 0 0 0 0 0
273 1 3 31.1018 141 0 0 0 0 0
274 1 3 31.1018 144 0 0 0 0 0
275 1 3 31.1018 147 0 0 0 0 0
276 1 3 31.1018 150 0 0 0 0 0
277 1 3 31.1018 153 0 0 0 0 0
278 1 3 31.1018 156 0 0 0 0 0
279 1 3 31.1018 159 0 0 0 0 0
280 1 3 31.1018 162 0 0 0 0 0
281 1 3 31.1018 165 0 0 0 0 0
282 1 3 31.1018 168 0 0 0 0 0
283 1 3 31.1018 171 0 0 0 0 0
284 1 3 31.1018 174 0 0 0 0 0
285 1 3 31.1018 177 0 0 0 0 0
286 1 3 31.1018 180 0 0 0 0 0
287 1 3 31.1018 183 0 0 0 0 0
288 1 3 31.1018 186 0 0 0 0 0
289 1 3 31.1018 189 0 0 0 0 0
290 1 3 31.1018 192 0 0 0 0 0
291 1 3 31.1018 195 0 0 0 0 0
292 1 3 31.1018 198 0 0 0 0 0
293 1 3 31.1018 201 0 0 0 0 0
294 1 3 31.1018 204 0 0 0 0 0
295 1 3 31.1018 207 0 0 0 0 0
296 1 3 31.1018 210 0 0 0 0 0
297 1 3 31.1018 213 0 0 0 0 0
298 1 3 31.1018 216 0 0 0 0 0
299 1 3 31.1018 219 0 0 0 0 0
300 1 3 31.1018 222 0 0 0 0 0
301 1 3 31.1018 225 0 0 0 0 0
302 1 3 31.1018 228 0 0 0 0 0
303 1 3 31.1018 231 0 0 0 0 0
304 1 3 31.1018 234 0 0 0 0 0
305 1 3 31.1018 237 0 0 0 0 0
306 1 3 31.1018 240 0 0 0 0 0
307 1 3 31.1018 243 0 0 0 0 0
308 1 3 31.1018 246 0 0 0 0 0
309 1 3 31.1018 249 0 0 0 0 0
310 1 3 31.1018 252 0 0 0 0 0
311 1 3 31.1018 255 0 0 0 0 0
312 1 3 31.1018 258 0 0 0 0 0
313 1 3 31.1018 261 0 0 0 0 0
314 1 3 31.1018 264 0 0 0 0 0
315 1 3 31.1018 267 0 0 0 0 0
316 1 3 31.1018 270 0 0 0 0 0
317 1 3 31.1018 273 0 0 0 0 0
318 1 3 31.1018 276 0 0 0 0 0
319 1 3 31.1018 279 0 0 0 0 0
320 1 3 31.1018 282 0 0 0 0 0
321 1 3 31.1018 285 0 0 0 0 0
322 1 3 31.1018 288 0 0 0 0 0
323 1 3 31.1018 291 0 0 0 0 0
324 1 3 31.1018 294 0 0 0 0 0
325 1 3 31.1018 297 0 0 0 0 0
326 1 3 31.1018 300 0 0 0 0 0
327 1 3 31.1018 303 0 0 0 0 0
328 1 3 31.1018 306 0 0 0 0 0
329 1 3 31.1018 309 0 0 0 0 0
330 1 3 31.1018 312 0 0 0 0 0
331 1 3 31.1018 315 0 0 0 0 0
332 1 3 31.1018 318 0 0 0 0 0
333 1 3 31.1018 321 0 0 0 0 0
334 1 3 31.1018 324 0 0 0 0 0
335 1 3 31.1018 327 0 0 0 0 0
336 1 3 31.1018 330 0 0 0 0 0
337 1 3 31.1018 333 0 0 0 0 0
338 1 3 31.1018 336 0 0 0 0 0
603 2 3 31.1018 1.49989863219420538 -5.70835e-21 2.59757460110328209 -0.00834974 0 0.00677228
604 2 3 31.1018 4.49989863219385544 -8.56252e-21 2.59757460084155634 -0.0106015 0 0.0068366
605 2 3 31.1018 7.4998986321935055 -1.14167e-20 2.59757460057983058 -0.0128532 0 0.00690092
606 2 3 31.1018 10.4998986321931582 -1.42709e-20 2.59757460031810483 -0.0151049 0 0.00696523
607 2 3 31.1018 13.4998986321928101 -1.7125e-20 2.59757460005637952 -0.0173566 0 0.00702955
608 2 3 31.1018 16.4998986321924619 -1.99792e-20 2.59757459979465377 -0.0196083 0 0.00709387
609 2 3 31.1018 19.4998986321921102 -2.28334e-20 2.59757459953292802 -0.02186 0 0.00715819
610 2 3 31.1018 22.499898632191762 -2.56876e-20 2.59757459927120227 -0.0241118 0 0.0072225
611 2 3 31.1018 25.4998986321914138 -2.85417e-20 2.59757459900947696 -0.0263635 0 0.00728682
612 2 3 31.1018 28.4998986321910657 -3.13959e-20 2.59757459874775121 -0.0286152 0 0.00735113
613 2 3 31.1018 31.4998986321907175 -3.42501e-20 2.59757459848602545 -0.0308669 0 0.00741545
614 2 3 31.1018 34.4998986321903587 -3.71043e-20 2.5975745982242997 -0.0331186 0 0.00747977
615 2 3 31.1018 37.4998986321900105 -3.99584e-20 2.59757459796257439 -0.0353704 0 0.00754408
616 2 3 31.1018 40.4998986321896552 -4.28126e-20 2.59757459770084864 -0.0376221 0 0.0076084
617 2 3 31.1018 43.4998986321893071 -4.56668e-20 2.59757459743912289 -0.0398738 0 0.00767272
618 2 3 31.1018 46.4998986321889589 -4.8521e-20 2.59757459717739714 -0.0421256 0 0.00773703
619 2 3 31.1018 49.4998986321886107 -5.13751e-20 2.59757459691567183 -0.0443773 0 0.00780134
620 2 3 31.1018 52.4998986321882626 -5.42293e-20 2.59757459665394608 -0.046629 0 0.00786566
621 2 3 31.1018 55.4998986321879144 -5.70835e-20 2.59757459639222033 -0.0488808 0 0.00792997
622 2 3 31.1018 58.4998986321875591 -5.99377e-20 2.59757459613049457 -0.0511325 0 0.00799429
623 2 3 31.1018 61.499898632187211 -6.27918e-20 2.59757459586876926 -0.0533842 0 0.0080586
624 2 3 31.1018 64.4998986321868699 -6.5646e-20 2.59757459560704351 -0.055636 0 0.00812291
625 2 3 31.1018 67.4998986321865146 -6.85002e-20 2.59757459534531776 -0.0578877 0 0.00818723
626 2 3 31.1018 70.4998986321861594 -7.13544e-20 2.59757459508359201 -0.0601394 0 0.00825154
627 2 3 31.1018 73.4998986321858183 -7.42085e-20 2.5975745948218667 -0.0623912 0 0.00831585
628 2 3 31.1018 76.499898632185463 -7.70627e-20 2.59757459456014095 -0.0646429 0 0.00838017
629 2 3 31.1018 79.499898632185122 -7.99169e-20 2.5975745942984152 -0.0668947 0 0.00844448
630 2 3 31.1018 82.4998986321847667 -8.27711e-20 2.59757459403668944 -0.0691464 0 0.00850879
631 2 3 31.1018 85.4998986321844114 -8.56252e-20 2.59757459377496414 -0.0713982 0 0.0085731
632 2 3 31.1018 88.4998986321840704 -8.84794e-20 2.59757459351323838 -0.0736499 0 0.00863741
633 2 3 31.1018 91.4998986321837151 -9.13336e-20 2.59757459325151263 -0.0759017 0 0.00870173
634 2 3 31.1018 94.499898632183374 -9.41878e-20 2.59757459298978688 -0.0781534 0 0.00876604
635 2 3 31.1018 97.4998986321830188 -9.70419e-20 2.59757459272806157 -0.0804052 0 0.00883035
636 2 3 31.1018 100.499898632182664 -9.98961e-20 2.59757459246633582 -0.0826569 0 0.00889466
637 2 3 31.1018 103.499898632182322 -1.0275e-19 2.59757459220461007 -0.0849087 0 0.00895897
638 2 3 31.1018 106.499898632181967 -1.05604e-19 2.59757459194288431 -0.0871604 0 0.00902328
639 2 3 31.1018 109.499898632181626 -1.08459e-19 2.59757459168115901 -0.0894118 0 0.0090878
640 2 3 31.1018 112.499898632181271 -1.11313e-19 2.59757459141943325 -0.0916632 0 0.00915233
641 2 3 31.1018 115.49989863218093 -1.14167e-19 2.5975745911577075 -0.0939146 0 0.00921685
642 2 3 31.1018 118.499898632180575 -1.17021e-19 2.59757459089598175 -0.096166 0 0.00928138
643 2 3 31.1018 121.499898632180219 -1.19875e-19 2.59757459063425644 -0.0984174 0 0.0093459
644 2 3 31.1018 124.499898632179878 -1.2273e-19 2.59757459037253069 -0.100669 0 0.00941043
645 2 3 31.1018 127.499898632179537 -1.25584e-19 2.59757459011080494 -0.10292 0 0.00947496
646 2 3 31.1018 130.499898632179196 -1.28438e-19 2.59757458984907919 -0.105172 0 0.00953948
647 2 3 31.1018 133.499898632178855 -1.31292e-19 2.59757458958735388 -0.107423 0 0.009604
648 2 3 31.1018 136.499898632178486 -1.34146e-19 2.59757458932562812 -0.109674 0 0.00966853
649 2 3 31.1018 139.499898632178144 -1.37e-19 2.59757458906390237 -0.111926 0 0.00973305
650 2 3 31.1018 142.499898632177803 -1.39855e-19 2.59757458880217662 -0.114177 0 0.00979758
651 2 3 31.1018 145.499898632177434 -1.42709e-19 2.59757458854045131 -0.116428 0 0.0098621
652 2 3 31.1018 148.499898632177093 -1.45563e-19 2.59757458827872556 -0.11868 0 0.00992663
653 2 3 31.1018 151.499898632176752 -1.48417e-19 2.59757458801699981 -0.120931 0 0.00999115
654 2 3 31.1018 154.499898632176382 -1.51271e-19 2.59757458775527406 -0.123183 0 0.0100557
655 2 3 31.1018 157.499898632176041 -1.54125e-19 2.59757458749354875 -0.125435 0 0.0101205
656 2 3 31.1018 160.4998986321757 -1.5698e-19 2.597574587231823 -0.127687 0 0.0101856
657 2 3 31.1018 163.499898632175359 -1.59834e-19 2.59757458697009724 -0.12994 0 0.0102507
658 2 3 31.1018 166.49989863217499 -1.62688e-19 2.59757458670837149 -0.132192 0 0.0103158
659 2 3 31.1018 169.499898632174649 -1.65542e-19 2.59757458644664618 -0.134444 0 0.0103809
660 2 3 31.1018 172.499898632174308 -1.68396e-19 2.59757458618492043 -0.136697 0 0.010446
661 2 3 31.1018 175.499898632173938 -1.7125e-19 2.59757458592319468 -0.138949 0 0.0105111
662 2 3 31.1018 178.499898632173597 -1.74105e-19 2.59757458566146893 -0.141202 0 0.0105762
663 2 3 31.1018 181.499898632173256 -1.76959e-19 2.59757458539974362 -0.143454 0 0.0106413
664 2 3 31.1018 184.499898632172915 -1.79813e-19 2.59757458513801787 -0.145479 0 0.010575