ITEM: TIMESTEP
4900000
ITEM: NUMBER OF ATOMS
3751
ITEM: BOX BOUNDS pp pp pp
-3.3750000000000000e+03 3.3750000000000000e+03
-1.0000000000000000e+02 1.0000000000000000e+02
-1.0000000000000000e+02 1.0000000000000000e+02
ITEM: ATOMS id type diameter mass xu yu zu fx fy fz
1 1 3 31.1018 -3375 0 0 0 0 0
2 1 3 31.1018 -3372 0 0 0 0 0
3 1 3 31.1018 -3369 0 0 0 0 0
4 1 3 31.1018 -3366 0 0 0 0 0
5 1 3 31.1018 -3363 0 0 0 0 0
6 1 3 31.1018 -3360 0 0 0 0 0
7 1 3 31.1018 -3357 0 0 0 0 0
8 1 3 31.1018 -3354 0 0 0 0 0
9 1 3 31.1018 -3351 0 0 0 0 0
10 1 3 31.1018 -3348 0 0 0 0 0
11 1 3 31.1018 -3345 0 0 0 0 0
12 1 3 31.1018 -3342 0 0 0 0 0
13 1 3 31.1018 -3339 0 0 0 0 0
14 1 3 31.1018 -3336 0 0 0 0 0
15 1 3 31.1018 -3333 0 0 0 0 0
16 1 3 31.1018 -3330 0 0 0 0 0
17 1 3 31.1018 -3327 0 0 0 0 0
18 1 3 31.1018 -3324 0 0 0 0 0
19 1 3 31.1018 -3321 0 0 0 0 0
20 1 3 31.1018 -3318 0 0 0 0 0
21 1 3 31.1018 -3315 0 0 0 0 0
22 1 3 31.1018 -3312 0 0 0 0 0
23 1 3 31.1018 -3309 0 0 0 0 0
24 1 3 31.1018 -3306 0 0 0 0 0
25 1 3 31.1018 -3303 0 0 0 0 0
26 1 3 31.1018 -3300 0 0 0 0 0
27 1 3 31.1018 -3297 0 0 0 0 0
28 1 3 31.1018 -3294 0 0 0 0 0
29 1 3 31.1018 -3291 0 0 0 0 0
30 1 3 31.1018 -3288 0 0 0 0 0
31 1 3 31.1018 -3285 0 0 0 0 0
32 1 3 31.1018 -3282 0 0 0 0 0
33 1 3 31.1018 -3279 0 0 0 0 0
34 1 3 31.1018 -3276 0 0 0 0 0
35 1 3 31.1018 -3273 0 0 0 0 0
36 1 3 31.1018 -3270 0 0 0 0 0
37 1 3 31.1018 -3267 0 0 0 0 0
38 1 3 31.1018 -3264 0 0 0 0 0
39 1 3 31.1018 -3261 0 0 0 0 0
40 1 3 31.1018 -3258 0 0 0 0 0
41 1 3 31.1018 -3255 0 0 0 0 0
42 1 3 31.1018 -3252 0 0 0 0 0
43 1 3 31.1018 -3249 0 0 0 0 0
44 1 3 31.1018 -3246 0 0 0 0 0
45 1 3 31.1018 -3243 0 0 0 0 0
46 1 3 31.1018 -3240 0 0 0 0 0
47 1 3 31.1018 -3237 0 0 0 0 0
48 1 3 31.1018 -3234 0 0 0 0 0
49 1 3 31.1018 -3231 0 0 0 0 0
50 1 3 31.1018 -3228 0 0 0 0 0
51 1 3 31.1018 -3225 0 0 0 0 0
52 1 3 31.1018 -3222 0 0 0 0 0
53 1 3 31.1018 -3219 0 0 0 0 0
54 1 3 31.1018 -3216 0 0 0 0 0
55 1 3 31.1018 -3213 0 0 0 0 0
56 1 3 31.1018 -3210 0 0 0 0 0
57 1 3 31.1018 -3207 0 0 0 0 0
58 1 3 31.1018 -3204 0 0 0 0 0
59 1 3 31.1018 -3201 0 0 0 0 0
60 1 3 31.1018 -3198 0 0 0 0 0
61 1 3 31.1018 -3195 0 0 0 0 0
62 1 3 31.1018 -3192 0 0 0 0 0
63 1 3 31.1018 -3189 0 0 0 0 0
64 1 3 31.1018 -3186 0 0 0 0 0
65 1 3 31.1018 -3183 0 0 0 0 0
66 1 3 31.1018 -3180 0 0 0 0 0
67 1 3 31.1018 -3177 0 0 0 0 0
68 1 3 31.1018 -3174 0 0 0 0 0
69 1 3 31.1018 -3171 0 0 0 0 0
70 1 3 31.1018 -3168 0 0 0 0 0
71 1 3 31.1018 -3165 0 0 0 0 0
72 1 3 31.1018 -3162 0 0 0 0 0
73 1 3 31.1018 -3159 0 0 0 0 0
74 1 3 31.1018 -3156 0 0 0 0 0
75 1 3 31.1018 -3153 0 0 0 0 0
76 1 3 31.1018 -3150 0 0 0 0 0
77 1 3 31.1018 -3147 0 0 0 0 0
78 1 3 31.1018 -3144 0 0 0 0 0
79 1 3 31.1018 -3141 0 0 0 0 0
80 1 3 31.1018 -3138 0 0 0 0 0
81 1 3 31.1018 -3135 0 0 0 0 0
82 1 3 31.1018 -3132 0 0 0 0 0
83 1 3 31.1018 -3129 0 0 0 0 0
84 1 3 31.1018 -3126 0 0 0 0 0
85 1 3 31.1018 -3123 0 0 0 0 0
86 1 3 31.1018 -3120 0 0 0 0 0
87 1 3 31.1018 -3117 0 0 0 0 0
88 1 3 31.1018 -3114 0 0 0 0 0
89 1 3 31.1018 -3111 0 0 0 0 0
90 1 3 31.1018 -3108 0 0 0 0 0
91 1 3 31.1018 -3105 0 0 0 0 0
92 1 3 31.1018 -3102 0 0 0 0 0
93 1 3 31.1018 -3099 0 0 0 0 0
94 1 3 31.1018 -3096 0 0 0 0 0
95 1 3 31.1018 -3093 0 0 0 0 0
96 1 3 31.1018 -3090 0 0 0 0 0
97 1 3 31.1018 -3087 0 0 0 0 0
98 1 3 31.1018 -3084 0 0 0 0 0
99 1 3 31.1018 -3081 0 0 0 0 0
100 1 3 31.1018 -3078 0 0 0 0 0
101 1 3 31.1018 -3075 0 0 0 0 0
102 1 3 31.1018 -3072 0 0 0 0 0
103 1 3 31.1018 -3069 0 0 0 0 0
104 1 3 31.1018 -3066 0 0 0 0 0
105 1 3 31.1018 -3063 0 0 0 0 0
106 1 3 31.1018 -3060 0 0 0 0 0
107 1 3 31.1018 -3057 0 0 0 0 0
108 1 3 31.1018 -3054 0 0 0 0 0
109 1 3 31.1018 -3051 0 0 0 0 0
110 1 3 31.1018 -3048 0 0 0 0 0
111 1 3 31.1018 -3045 0 0 0 0 0
112 1 3 31.1018 -3042 0 0 0 0 0
113 1 3 31.1018 -3039 0 0 0 0 0
114 1 3 31.1018 -3036 0 0 0 0 0
115 1 3 31.1018 -3033 0 0 0 0 0
116 1 3 31.1018 -3030 0 0 0 0 0
117 1 3 31.1018 -3027 0 0 0 0 0
118 1 3 31.1018 -3024 0 0 0 0 0
119 1 3 31.1018 -3021 0 0 0 0 0
120 1 3 31.1018 -3018 0 0 0 0 0
121 1 3 31.1018 -3015 0 0 0 0 0
122 1 3 31.1018 -3012 0 0 0 0 0
123 1 3 31.1018 -3009 0 0 0 0 0
124 1 3 31.1018 -3006 0 0 0 0 0
125 1 3 31.1018 -3003 0 0 0 0 0
126 1 3 31.1018 -3000 0 0 0 0 0
127 1 3 31.1018 -2997 0 0 0 0 0
128 1 3 31.1018 -2994 0 0 0 0 0
129 1 3 31.1018 -2991 0 0 0 0 0
130 1 3 31.1018 -2988 0 0 0 0 0
131 1 3 31.1018 -2985 0 0 0 0 0
132 1 3 31.1018 -2982 0 0 0 0 0
133 1 3 31.1018 -2979 0 0 0 0 0
134 1 3 31.1018 -2976 0 0 0 0 0
135 1 3 31.1018 -2973 0 0 0 0 0
136 1 3 31.1018 -2970 0 0 0 0 0
137 1 3 31.1018 -2967 0 0 0 0 0
138 1 3 31.1018 -2964 0 0 0 0 0
139 1 3 31.1018 -2961 0 0 0 0 0
140 1 3 31.1018 -2958 0 0 0 0 0
141 1 3 31.1018 -2955 0 0 0 0 0
142 1 3 31.1018 -2952 0 0 0 0 0
143 1 3 31.1018 -2949 0 0 0 0 0
144 1 3 31.1018 -2946 0 0 0 0 0
145 1 3 31.1018 -2943 0 0 0 0 0
146 1 3 31.1018 -2940 0 0 0 0 0
147 1 3 31.1018 -2937 0 0 0 0 0
148 1 3 31.1018 -2934 0 0 0 0 0
149 1 3 31.1018 -2931 0 0 0 0 0
150 1 3 31.1018 -2928 0 0 0 0 0
151 1 3 31.1018 -2925 0 0 0 0 0
152 1 3 31.1018 -2922 0 0 0 0 0
153 1 3 31.1018 -2919 0 0 0 0 0
154 1 3 31.1018 -2916 0 0 0 0 0
155 1 3 31.1018 -2913 0 0 0 0 0
156 1 3 31.1018 -2910 0 0 0 0 0
157 1 3 31.1018 -2907 0 0 0 0 0
158 1 3 31.1018 -2904 0 0 0 0 0
159 1 3 31.1018 -2901 0 0 0 0 0
160 1 3 31.1018 -2898 0 0 0 0 0
161 1 3 31.1018 -2895 0 0 0 0 0
162 1 3 31.1018 -2892 0 0 0 0 0
163 1 3 31.1018 -2889 0 0 0 0 0
164 1 3 31.1018 -2886 0 0 0 0 0
165 1 3 31.1018 -2883 0 0 0 0 0
166 1 3 31.1018 -2880 0 0 0 0 0
167 1 3 31.1018 -2877 0 0 0 0 0
168 1 3 31.1018 -2874 0 0 0 0 0
169 1 3 31.1018 -2871 0 0 0 0 0
170 1 3 31.1018 -2868 0 0 0 0 0
171 1 3 31.1018 -2865 0 0 0 0 0
172 1 3 31.1018 -2862 0 0 0 0 0
173 1 3 31.1018 -2859 0 0 0 0 0
174 1 3 31.1018 -2856 0 0 0 0 0
175 1 3 31.1018 -2853 0 0 0 0 0
176 1 3 31.1018 -2850 0 0 0 0 0
177 1 3 31.1018 -2847 0 0 0 0 0
178 1 3 31.1018 -2844 0 0 0 0 0
179 1 3 31.1018 -2841 0 0 0 0 0
180 1 3 31.1018 -2838 0 0 0 0 0
181 1 3 31.1018 -2835 0 0 0 0 0
182 1 3 31.1018 -2832 0 0 0 0 0
183 1 3 31.1018 -2829 0 0 0 0 0
184 1 3 31.1018 -2826 0 0 0 0 0
185 1 3 31.1018 -2823 0 0 0 0 0
186 1 3 31.1018 -2820 0 0 0 0 0
187 1 3 31.1018 -2817 0 0 0 0 0
188 1 3 31.1018 -2814 0 0 0 0 0
189 1 3 31.1018 -2811 0 0 0 0 0
190 1 3 31.1018 -2808 0 0 0 0 0
191 1 3 31.1018 -2805 0 0 0 0 0
192 1 3 31.1018 -2802 0 0 0 0 0
193 1 3 31.1018 -2799 0 0 0 0 0
194 1 3 31.1018 -2796 0 0 0 0 0
195 1 3 31.1018 -2793 0 0 0 0 0
196 1 3 31.1018 -2790 0 0 0 0 0
197 1 3 31.1018 -2787 0 0 0 0 0
198 1 3 31.1018 -2784 0 0 0 0 0
199 1 3 31.1018 -2781 0 0 0 0 0
200 1 3 31.1018 -2778 0 0 0 0 0
201 1 3 31.1018 -2775 0 0 0 0 0
202 1 3 31.1018 -2772 0 0 0 0 0
203 1 3 31.1018 -2769 0 0 0 0 0
204 1 3 31.1018 -2766 0 0 0 0 0
205 1 3 31.1018 -2763 0 0 0 0 0
206 1 3 31.1018 -2760 0 0 0 0 0
207 1 3 31.1018 -2757 0 0 0 0 0
208 1 3 31.1018 -2754 0 0 0 0 0
209 1 3 31.1018 -2751 0 0 0 0 0
210 1 3 31.1018 -2748 0 0 0 0 0
211 1 3 31.1018 -2745 0 0 0 0 0
212 1 3 31.1018 -2742 0 0 0 0 0
213 1 3 31.1018 -2739 0 0 0 0 0
214 1 3 31.1018 -2736 0 0 0 0 0
215 1 3 31.1018 -2733 0 0 0 0 0
216 1 3 31.1018 -2730 0 0 0 0 0
217 1 3 31.1018 -2727 0 0 0 0 0
218 1 3 31.1018 -2724 0 0 0 0 0
219 1 3 31.1018 -2721 0 0 0 0 0
220 1 3 31.1018 -2718 0 0 0 0 0
221 1 3 31.1018 -2715 0 0 0 0 0
222 1 3 31.1018 -2712 0 0 0 0 0
223 1 3 31.1018 -2709 0 0 0 0 0
224 1 3 31.1018 -2706 0 0 0 0 0
225 1 3 31.1018 -2703 0 0 0 0 0
226 1 3 31.1018 -2700 0 0 0 0 0
227 1 3 31.1018 -2697 0 0 0 0 0
228 1 3 31.1018 -2694 0 0 0 0 0
229 1 3 31.1018 -2691 0 0 0 0 0
230 1 3 31.1018 -2688 0 0 0 0 0
231 1 3 31.1018 -2685 0 0 0 0 0
232 1 3 31.1018 -2682 0 0 0 0 0
233 1 3 31.1018 -2679 0 0 0 0 0
234 1 3 31.1018 -2676 0 0 0 0 0
235 1 3 31.1018 -2673 0 0 0 0 0
236 1 3 31.1018 -2670 0 0 0 0 0
237 1 3 31.1018 -2667 0 0 0 0 0
238 1 3 31.1018 -2664 0 0 0 0 0
239 1 3 31.1018 -2661 0 0 0 0 0
240 1 3 31.1018 -2658 0 0 0 0 0
241 1 3 31.1018 -2655 0 0 0 0 0
242 1 3 31.1018 -2652 0 0 0 0 0
243 1 3 31.1018 -2649 0 0 0 0 0
244 1 3 31.1018 -2646 0 0 0 0 0
245 1 3 31.1018 -2643 0 0 0 0 0
246 1 3 31.1018 -2640 0 0 0 0 0
247 1 3 31.1018 -2637 0 0 0 0 0
248 1 3 31.1018 -2634 0 0 0 0 0
249 1 3 31.1018 -2631 0 0 0 0 0
250 1 3 31.1018 -2628 0 0 0 0 0
251 1 3 31.1018 -2625 0 0 0 0 0
252 1 3 31.1018 -2622 0 0 0 0 0
253 1 3 31.1018 -2619 0 0 0 0 0
254 1 3 31.1018 -2616 0 0 0 0 0
255 1 3 31.1018 -2613 0 0 0 0 0
256 1 3 31.1018 -2610 0 0 0 0 0
257 1 3 31.1018 -2607 0 0 0 0 0
258 1 3 31.1018 -2604 0 0 0 0 0
259 1 3 31.1018 -2601 0 0 0 0 0
260 1 3 31.1018 -2598 0 0 0 0 0
261 1 3 31.1018 -2595 0 0 0 0 0
262 1 3 31.1018 -2592 0 0 0 0 0
263 1 3 31.1018 -2589 0 0 0 0 0
264 1 3 31.1018 -2586 0 0 0 0 0
265 1 3 31.1018 -2583 0 0 0 0 0
266 1 3 31.1018 -2580 0 0 0 0 0
267 1 3 31.1018 -2577 0 0 0 0 0
268 1 3 31.1018 -2574 0 0 0 0 0
269 1 3 31.1018 -2571 0 0 0 0 0
270 1 3 31.1018 -2568 0 0 0 0 0
271 1 3 31.1018 -2565 0 0 0 0 0
272 1 3 31.1018 -2562 0 0 0 0 0
273 1 3 31.1018 -2559 0 0 0 0 0
274 1 3 31.1018 -2556 0 0 0 0 0
275 1 3 31.1018 -2553 0 0 0 0 0
276 1 3 31.1018 -2550 0 0 0 0 0
277 1 3 31.1018 -2547 0 0 0 0 0
278 1 3 31.1018 -2544 0 0 0 0 0
279 1 3 31.1018 -2541 0 0 0 0 0
280 1 3 31.1018 -2538 0 0 0 0 0
281 1 3 31.1018 -2535 0 0 0 0 0
282 1 3 31.1018 -2532 0 0 0 0 0
283 1 3 31.1018 -2529 0 0 0 0 0
284 1 3 31.1018 -2526 0 0 0 0 0
285 1 3 31.1018 -2523 0 0 0 0 0
286 1 3 31.1018 -2520 0 0 0 0 0
287 1 3 31.1018 -2517 0 0 0 0 0
288 1 3 31.1018 -2514 0 0 0 0 0
289 1 3 31.1018 -2511 0 0 0 0 0
290 1 3 31.1018 -2508 0 0 0 0 0
291 1 3 31.1018 -2505 0 0 0 0 0
292 1 3 31.1018 -2502 0 0 0 0 0
293 1 3 31.1018 -2499 0 0 0 0 0
294 1 3 31.1018 -2496 0 0 0 0 0
295 1 3 31.1018 -2493 0 0 0 0 0
296 1 3 31.1018 -2490 0 0 0 0 0
297 1 3 31.1018 -2487 0 0 0 0 0
298 1 3 31.1018 -2484 0 0 0 0 0
299 1 3 31.1018 -2481 0 0 0 0 0
300 1 3 31.1018 -2478 0 0 0 0 0
301 1 3 31.1018 -2475 0 0 0 0 0
302 1 3 31.1018 -2472 0 0 0 0 0
303 1 3 31.1018 -2469 0 0 0 0 0
304 1 3 31.1018 -2466 0 0 0 0 0
305 1 3 31.1018 -2463 0 0 0 0 0
306 1 3 31.1018 -2460 0 0 0 0 0
307 1 3 31.1018 -2457 0 0 0 0 0
308 1 3 31.1018 -2454 0 0 0 0 0
309 1 3 31.1018 -2451 0 0 0 0 0
310 1 3 31.1018 -2448 0 0 0 0 0
311 1 3 31.1018 -2445 0 0 0 0 0
312 1 3 31.1018 -2442 0 0 0 0 0
313 1 3 31.1018 -2439 0 0 0 0 0
314 1 3 31.1018 -2436 0 0 0 0 0
315 1 3 31.1018 -2433 0 0 0 0 0
316 1 3 31.1018 -2430 0 0 0 0 0
317 1 3 31.1018 -2427 0 0 0 0 0
318 1 3 31.1018 -2424 0 0 0 0 0
319 1 3 31.1018 -2421 0 0 0 0 0
320 1 3 31.1018 -2418 0 0 0 0 0
321 1 3 31.1018 -2415 0 0 0 0 0
322 1 3 31.1018 -2412 0 0 0 0 0
323 1 3 31.1018 -2409 0 0 0 0 0
324 1 3 31.1018 -2406 0 0 0 0 0
325 1 3 31.1018 -2403 0 0 0 0 0
326 1 3 31.1018 -2400 0 0 0 0 0
327 1 3 31.1018 -2397 0 0 0 0 0
328 1 3 31.1018 -2394 0 0 0 0 0
329 1 3 31.1018 -2391 0 0 0 0 0
330 1 3 31.1018 -2388 0 0 0 0 0
331 1 3 31.1018 -2385 0 0 0 0 0
332 1 3 31.1018 -2382 0 0 0 0 0
333 1 3 31.1018 -2379 0 0 0 0 0
334 1 3 31.1018 -2376 0 0 0 0 0
335 1 3 31.1018 -2373 0 0 0 0 0
336 1 3 31.1018 -2370 0 0 0 0 0
337 1 3 31.1018 -2367 0 0 0 0 0
338 1 3 31.1018 -2364 0 0 0 0 0
339 1 3 31.1018 -2361 0 0 0 0 0
340 1 3 31.1018 -2358 0 0 0 0 0
341 1 3 31.1018 -2355 0 0 0 0 0
342 1 3 31.1018 -2352 0 0 0 0 0
343 1 3 31.1018 -2349 0 0 0 0 0
344 1 3 31.1018 -2346 0 0 0 0 0
345 1 3 31.1018 -2343 0 0 0 0 0
346 1 3 31.1018 -2340 0 0 0 0 0
347 1 3 31.1018 -2337 0 0 0 0 0
348 1 3 31.1018 -2334 0 0 0 0 0
349 1 3 31.1018 -2331 0 0 0 0 0
350 1 3 31.1018 -2328 0 0 0 0 0
351 1 3 31.1018 -2325 0 0 0 0 0
352 1 3 31.1018 -2322 0 0 0 0 0
353 1 3 31.1018 -2319 0 0 0 0 0
354 1 3 31.1018 -2316 0 0 0 0 0
355 1 3 31.1018 -2313 0 0 0 0 0
356 1 3 31.1018 -2310 0 0 0 0 0
357 1 3 31.1018 -2307 0 0 0 0 0
358 1 3 31.1018 -2304 0 0 0 0 0
359 1 3 31.1018 -2301 0 0 0 0 0
360 1 3 31.1018 -2298 0 0 0 0 0
361 1 3 31.1018 -2295 0 0 0 0 0
362 1 3 31.1018 -2292 0 0 0 0 0
363 1 3 31.1018 -2289 0 0 0 0 0
364 1 3 31.1018 -2286 0 0 0 0 0
365 1 3 31.1018 -2283 0 0 0 0 0
366 1 3 31.1018 -2280 0 0 0 0 0
367 1 3 31.1018 -2277 0 0 0 0 0
368 1 3 31.1018 -2274 0 0 0 0 0
369 1 3 31.1018 -2271 0 0 0 0 0
370 1 3 31.1018 -2268 0 0 0 0 0
371 1 3 31.1018 -2265 0 0 0 0 0
372 1 3 31.1018 -2262 0 0 0 0 0
373 1 3 31.1018 -2259 0 0 0 0 0
374 1 3 31.1018 -2256 0 0 0 0 0
375 1 3 31.1018 -2253 0 0 0 0 0
376 1 3 31.1018 -2250 0 0 0 0 0
377 1 3 31.1018 -2247 0 0 0 0 0
378 1 3 31.1018 -2244 0 0 0 0 0
379 1 3 31.1018 -2241 0 0 0 0 0
380 1 3 31.1018 -2238 0 0 0 0 0
381 1 3 31.1018 -2235 0 0 0 0 0
382 1 3 31.1018 -2232 0 0 0 0 0
383 1 3 31.1018 -2229 0 0 0 0 0
384 1 3 31.1018 -2226 0 0 0 0 0
385 1 3 31.1018 -2223 0 0 0 0 0
386 1 3 31.1018 -2220 0 0 0 0 0
387 1 3 31.1018 -2217 0 0 0 0 0
388 1 3 31.1018 -2214 0 0 0 0 0
389 1 3 31.1018 -2211 0 0 0 0 0
390 1 3 31.1018 -2208 0 0 0 0 0
391 1 3 31.1018 -2205 0 0 0 0 0
392 1 3 31.1018 -2202 0 0 0 0 0
393 1 3 31.1018 -2199 0 0 0 0 0
394 1 3 31.1018 -2196 0 0 0 0 0
395 1 3 31.1018 -2193 0 0 0 0 0
396 1 3 31.1018 -2190 0 0 0 0 0
397 1 3 31.1018 -2187 0 0 0 0 0
398 1 3 31.1018 -2184 0 0 0 0 0
399 1 3 31.1018 -2181 0 0 0 0 0
400 1 3 31.1018 -2178 0 0 0 0 0
401 1 3 31.1018 -2175 0 0 0 0 0
402 1 3 31.1018 -2172 0 0 0 0 0
403 1 3 31.1018 -2169 0 0 0 0 0
404 1 3 31.1018 -2166 0 0 0 0 0
405 1 3 31.1018 -2163 0 0 0 0 0
406 1 3 31.1018 -2160 0 0 0 0 0
407 1 3 31.1018 -2157 0 0 0 0 0
408 1 3 31.1018 -2154 0 0 0 0 0
409 1 3 31.1018 -2151 0 0 0 0 0
410 1 3 31.1018 -2148 0 0 0 0 0
411 1 3 31.1018 -2145 0 0 0 0 0
412 1 3 31.1018 -2142 0 0 0 0 0
413 1 3 31.1018 -2139 0 0 0 0 0
414 1 3 31.1018 -2136 0 0 0 0 0
415 1 3 31.1018 -2133 0 0 0 0 0
416 1 3 31.1018 -2130 0 0 0 0 0
417 1 3 31.1018 -2127 0 0 0 0 0
418 1 3 31.1018 -2124 0 0 0 0 0
419 1 3 31.1018 -2121 0 0 0 0 0
420 1 3 31.1018 -2118 0 0 0 0 0
421 1 3 31.1018 -2115 0 0 0 0 0
422 1 3 31.1018 -2112 0 0 0 0 0
423 1 3 31.1018 -2109 0 0 0 0 0
424 1 3 31.1018 -2106 0 0 0 0 0
425 1 3 31.1018 -2103 0 0 0 0 0
426 1 3 31.1018 -2100 0 0 0 0 0
427 1 3 31.1018 -2097 0 0 0 0 0
428 1 3 31.1018 -2094 0 0 0 0 0
429 1 3 31.1018 -2091 0 0 0 0 0
430 1 3 31.1018 -2088 0 0 0 0 0
431 1 3 31.1018 -2085 0 0 0 0 0
432 1 3 31.1018 -2082 0 0 0 0 0
433 1 3 31.1018 -2079 0 0 0 0 0
434 1 3 31.1018 -2076 0 0 0 0 0
435 1 3 31.1018 -2073 0 0 0 0 0
436 1 3 31.1018 -2070 0 0 0 0 0
437 1 3 31.1018 -2067 0 0 0 0 0
438 1 3 31.1018 -2064 0 0 0 0 0
439 1 3 31.1018 -2061 0 0 0 0 0
440 1 3 31.1018 -2058 0 0 0 0 0
441 1 3 31.1018 -2055 0 0 0 0 0
442 1 3 31.1018 -2052 0 0 0 0 0
443 1 3 31.1018 -2049 0 0 0 0 0
444 1 3 31.1018 -2046 0 0 0 0 0
445 1 3 31.1018 -2043 0 0 0 0 0
446 1 3 31.1018 -2040 0 0 0 0 0
447 1 3 31.1018 -2037 0 0 0 0 0
448 1 3 31.1018 -2034 0 0 0 0 0
449 1 3 31.1018 -2031 0 0 0 0 0
450 1 3 31.1018 -2028 0 0 0 0 0
451 1 3 31.1018 -2025 0 0 0 0 0
452 1 3 31.1018 -2022 0 0 0 0 0
453 1 3 31.1018 -2019 0 0 0 0 0
454 1 3 31.1018 -2016 0 0 0 0 0
455 1 3 31.1018 -2013 0 0 0 0 0
456 1 3 31.1018 -2010 0 0 0 0 0
457 1 3 31.1018 -2007 0 0 0 0 0
458 1 3 31.1018 -2004 0 0 0 0 0
459 1 3 31.1018 -2001 0 0 0 0 0
460 1 3 31.1018 -1998 0 0 0 0 0
461 1 3 31.1018 -1995 0 0 0 0 0
462 1 3 31.1018 -1992 0 0 0 0 0
463 1 3 31.1018 -1989 0 0 0 0 0
464 1 3 31.1018 -1986 0 0 0 0 0
465 1 3 31.1018 -1983 0 0 0 0 0
466 1 3 31.1018 -1980 0 0 0 0 0
467 1 3 31.1018 -1977 0 0 0 0 0
468 1 3 31.1018 -1974 0 0 0 0 0
469 1 3 31.1018 -1971 0 0 0 0 0
470 1 3 31.1018 -1968 0 0 0 0 0
471 1 3 31.1018 -1965 0 0 0 0 0
472 1 3 31.1018 -1962 0 0 0 0 0
473 1 3 31.1018 -1959 0 0 0 0 0
474 1 3 31.1018 -1956 0 0 0 0 0
475 1 3 31.1018 -1953 0 0 0 0 0
476 1 3 31.1018 -1950 0 0 0 0 0
477 1 3 31.1018 -1947 0 0 0 0 0
478 1 3 31.1018 -1944 0 0 0 0 0
479 1 3 31.1018 -1941 0 0 0 0 0
480 1 3 31.1018 -1938 0 0 0 0 0
481 1 3 31.1018 -1935 0 0 0 0 0
482 1 3 31.1018 -1932 0 0 0 0 0
483 1 3 31.1018 -1929 0 0 0 0 0
484 1 3 31.1018 -1926 0 0 0 0 0
485 1 3 31.1018 -1923 0 0 0 0 0
486 1 3 31.1018 -1920 0 0 0 0 0
487 1 3 31.1018 -1917 0 0 0 0 0
488 1 3 31.1018 -1914 0 0 0 0 0
489 1 3 31.1018 -1911 0 0 0 0 0
490 1 3 31.1018 -1908 0 0 0 0 0
491 1 3 31.1018 -1905 0 0 0 0 0
492 1 3 31.1018 -1902 0 0 0 0 0
493 1 3 31.1018 -1899 0 0 0 0 0
494 1 3 31.1018 -1896 0 0 0 0 0
495 1 3 31.1018 -1893 0 0 0 0 0
496 1 3 31.1018 -1890 0 0 0 0 0
497 1 3 31.1018 -1887 0 0 0 0 0
498 1 3 31.1018 -1884 0 0 0 0 0
499 1 3 31.1018 -1881 0 0 0 0 0
500 1 3 31.1018 -1878 0 0 0 0 0
501 1 3 31.1018 -1875 0 0 0 0 0
502 1 3 31.1018 -1872 0 0 0 0 0
503 1 3 31.1018 -1869 0 0 0 0 0
504 1 3 31.1018 -1866 0 0 0 0 0
505 1 3 31.1018 -1863 0 0 0 0 0
506 1 3 31.1018 -1860 0 0 0 0 0
507 1 3 31.1018 -1857 0 0 0 0 0
508 1 3 31.1018 -1854 0 0 0 0 0
509 1 3 31.1018 -1851 0 0 0 0 0
510 1 3 31.1018 -1848 0 0 0 0 0
511 1 3 31.1018 -1845 0 0 0 0 0
512 1 3 31.1018 -1842 0 0 0 0 0
513 1 3 31.1018 -1839 0 0 0 0 0
514 1 3 31.1018 -1836 0 0 0 0 0
515 1 3 31.1018 -1833 0 0 0 0 0
516 1 3 31.1018 -1830 0 0 0 0 0
517 1 3 31.1018 -1827 0 0 0 0 0
518 1 3 31.1018 -1824 0 0 0 0 0
519 1 3 31.1018 -1821 0 0 0 0 0
520 1 3 31.1018 -1818 0 0 0 0 0
521 1 3 31.1018 -1815 0 0 0 0 0
522 1 3 31.1018 -1812 0 0 0 0 0
523 1 3 31.1018 -1809 0 0 0 0 0
524 1 3 31.1018 -1806 0 0 0 0 0
525 1 3 31.1018 -1803 0 0 0 0 0
526 1 3 31.1018 -1800 0 0 0 0 0
527 1 3 31.1018 -1797 0 0 0 0 0
528 1 3 31.1018 -1794 0 0 0 0 0
529 1 3 31.1018 -1791 0 0 0 0 0
530 1 3 31.1018 -1788 0 0 0 0 0
531 1 3 31.1018 -1785 0 0 0 0 0
532 1 3 31.1018 -1782 0 0 0 0 0
533 1 3 31.1018 -1779 0 0 0 0 0
534 1 3 31.1018 -1776 0 0 0 0 0
535 1 3 31.1018 -1773 0 0 0 0 0
536 1 3 31.1018 -1770 0 0 0 0 0
537 1 3 31.1018 -1767 0 0 0 0 0
538 1 3 31.1018 -1764 0 0 0 0 0
539 1 3 31.1018 -1761 0 0 0 0 0
540 1 3 31.1018 -1758 0 0 0 0 0
541 1 3 31.1018 -1755 0 0 0 0 0
542 1 3 31.1018 -1752 0 0 0 0 0
543 1 3 31.1018 -1749 0 0 0 0 0
544 1 3 31.1018 -1746 0 0 0 0 0
545 1 3 31.1018 -1743 0 0 0 0 0
546 1 3 31.1018 -1740 0 0 0 0 0
547 1 3 31.1018 -1737 0 0 0 0 0
548 1 3 31.1018 -1734 0 0 0 0 0
549 1 3 31.1018 -1731 0 0 0 0 0
550 1 3 31.1018 -1728 0 0 0 0 0
551 1 3 31.1018 -1725 0 0 0 0 0
552 1 3 31.1018 -1722 0 0 0 0 0
553 1 3 31.1018 -1719 0 0 0 0 0
554 1 3 31.1018 -1716 0 0 0 0 0
555 1 3 31.1018 -1713 0 0 0 0 0
556 1 3 31.1018 -1710 0 0 0 0 0
557 1 3 31.1018 -1707 0 0 0 0 0
558 1 3 31.1018 -1704 0 0 0 0 0
559 1 3 31.1018 -1701 0 0 0 0 0
560 1 3 31.1018 -1698 0 0 0 0 0
561 1 3 31.1018 -1695 0 0 0 0 0
562 1 3 31.1018 -1692 0 0 0 0 0
563 1 3 31.1018 -1689 0 0 0 0 0
2251 2 3 31.1018 -2254.50010136466926 3.24129e-21 2.59757461209371199 0.0683257 0 -0.00108011
2252 2 3 31.1018 -2251.50010136466926 3.23697e-21 2.5975746120835228 0.0682349 0 -0.00107865
2253 2 3 31.1018 -2248.50010136466881 3.23265e-21 2.59757461207333362 0.0681437 0 -0.00107724
2254 2 3 31.1018 -2245.50010136466835 3.22833e-21 2.59757461206314444 0.0680525 0 -0.00107583
2255 2 3 31.1018 -2242.50010136466835 3.22401e-21 2.59757461205295526 0.0679617 0 -0.00107437
2256 2 3 31.1018 -2239.5001013646679 3.21969e-21 2.59757461204276607 0.0678705 0 -0.00107295
2257 2 3 31.1018 -2236.50010136466744 3.21536e-21 2.59757461203257689 0.0677793 0 -0.00107154
2258 2 3 31.1018 -2233.50010136466744 3.21104e-21 2.59757461202238771 0.0676885 0 -0.00107008
2259 2 3 31.1018 -2230.50010136466699 3.20672e-21 2.59757461201219852 0.0675973 0 -0.00106867
2260 2 3 31.1018 -2227.50010136466653 3.2024e-21 2.59757461200200934 0.0675061 0 -0.00106726
2261 2 3 31.1018 -2224.50010136466608 3.19808e-21 2.59757461199182016 0.0674148 0 -0.00106584
2262 2 3 31.1018 -2221.50010136466608 3.19376e-21 2.59757461198163098 0.0673241 0 -0.00106439
2263 2 3 31.1018 -2218.50010136466562 3.18943e-21 2.59757461197144179 0.0672329 0 -0.00106297
2264 2 3 31.1018 -2215.50010136466517 3.18511e-21 2.59757461196125261 0.0671416 0 -0.00106156
2265 2 3 31.1018 -2212.50010136466517 3.18079e-21 2.59757461195106343 0.0670509 0 -0.0010601
2266 2 3 31.1018 -2209.50010136466472 3.17647e-21 2.59757461194087425 0.0669597 0 -0.00105869
2267 2 3 31.1018 -2206.50010136466426 3.17215e-21 2.59757461193068506 0.0668684 0 -0.00105727
2268 2 3 31.1018 -2203.50010136466426 3.16783e-21 2.59757461192049588 0.0667777 0 -0.00105582
2269 2 3 31.1018 -2200.50010136466381 3.1635e-21 2.5975746119103067 0.0666865 0 -0.0010544
2270 2 3 31.1018 -2197.50010136466335 3.15918e-21 2.59757461190011751 0.0665952 0 -0.00105299
2271 2 3 31.1018 -2194.50010136466335 3.15486e-21 2.59757461188992833 0.0665045 0 -0.00105153
2272 2 3 31.1018 -2191.5001013646629 3.15054e-21 2.59757461187973915 0.0664132 0 -0.00105012
2273 2 3 31.1018 -2188.50010136466244 3.14622e-21 2.59757461186954997 0.066322 0 -0.00104871
2274 2 3 31.1018 -2185.50010136466244 3.14189e-21 2.59757461185936078 0.0662313 0 -0.00104725
2275 2 3 31.1018 -2182.50010136466199 3.13757e-21 2.5975746118491716 0.06614 0 -0.00104583
2276 2 3 31.1018 -2179.50010136466153 3.13325e-21 2.59757461183898242 0.0660488 0 -0.00104442
2277 2 3 31.1018 -2176.50010136466108 3.12893e-21 2.59757461182879323 0.0659576 0 -0.00104301
2278 2 3 31.1018 -2173.50010136466108 3.12461e-21 2.59757461181860405 0.0658668 0 -0.00104155
2279 2 3 31.1018 -2170.50010136466062 3.12029e-21 2.59757461180841487 0.0657756 0 -0.00104014
2280 2 3 31.1018 -2167.50010136466017 3.11596e-21 2.59757461179822569 0.0656844 0 -0.00103873
2281 2 3 31.1018 -2164.50010136466017 3.11164e-21 2.5975746117880365 0.0655936 0 -0.00103727
2282 2 3 31.1018 -2161.50010136465971 3.10732e-21 2.59757461177784732 0.0655024 0 -0.00103585
2283 2 3 31.1018 -2158.50010136465926 3.103e-21 2.59757461176765814 0.0654112 0 -0.00103444
2284 2 3 31.1018 -2155.50010136465926 3.09868e-21 2.59757461175746895 0.0653204 0 -0.00103298
2285 2 3 31.1018 -2152.5001013646588 3.09436e-21 2.59757461174727977 0.0652292 0 -0.00103157
2286 2 3 31.1018 -2149.50010136465835 3.09003e-21 2.59757461173709059 0.065138 0 -0.00103016
2287 2 3 31.1018 -2146.50010136465835 3.08571e-21 2.59757461172690141 0.0650472 0 -0.0010287
2288 2 3 31.1018 -2143.50010136465789 3.08139e-21 2.59757461171671222 0.064956 0 -0.00102729
2289 2 3 31.1018 -2140.50010136465744 3.07707e-21 2.59757461170652304 0.0648648 0 -0.00102587
2290 2 3 31.1018 -2137.50010136465744 3.07275e-21 2.59757461169633386 0.064774 0 -0.00102441
2291 2 3 31.1018 -2134.50010136465698 3.06843e-21 2.59757461168614467 0.0646828 0 -0.001023
2292 2 3 31.1018 -2131.50010136465653 3.0641e-21 2.59757461167595549 0.0645916 0 -0.00102159
2293 2 3 31.1018 -2128.50010136465608 3.05978e-21 2.59757461166576631 0.0645004 0 -0.00102017
2294 2 3 31.1018 -2125.50010136465608 3.05546e-21 2.59757461165557713 0.0644096 0 -0.00101872
2295 2 3 31.1018 -2122.50010136465562 3.05114e-21 2.59757461164538794 0.0643184 0 -0.0010173
2296 2 3 31.1018 -2119.50010136465517 3.04682e-21 2.59757461163519876 0.0642272 0 -0.00101589
2297 2 3 31.1018 -2116.50010136465517 3.0425e-21 2.59757461162500958 0.0641364 0 -0.00101443
2298 2 3 31.1018 -2113.50010136465471 3.03817e-21 2.59757461161482039 0.0640452 0 -0.00101302
2299 2 3 31.1018 -2110.50010136465426 3.03385e-21 2.59757461160463121 0.063954 0 -0.00101161
2300 2 3 31.1018 -2107.50010136465426 3.02953e-21 2.59757461159444203 0.0638632 0 -0.00101015
2301 2 3 31.1018 -2104.5001013646538 3.02521e-21 2.59757461158425285 0.063772 0 -0.00100874
2302 2 3 31.1018 -2101.50010136465335 3.02089e-21 2.59757461157406366 0.0636808 0 -0.00100732
2303 2 3 31.1018 -2098.50010136465335 3.01656e-21 2.59757461156387448 0.06359 0 -0.00100586
2304 2 3 31.1018 -2095.50010136465289 3.01224e-21 2.5975746115536853 0.0634988 0 -0.00100445
2305 2 3 31.1018 -2092.50010136465244 3.00792e-21 2.59757461154349611 0.0634076 0 -0.00100304
2306 2 3 31.1018 -2089.50010136465198 3.0036e-21 2.59757461153330693 0.0633163 0 -0.00100162
2307 2 3 31.1018 -2086.50010136465198 2.99928e-21 2.59757461152311775 0.0632256 0 -0.00100017
2308 2 3 31.1018 -2083.50010136465153 2.99496e-21 2.59757461151292857 0.0631343 0 -0.000998753
2309 2 3 31.1018 -2080.50010136465107 2.99063e-21 2.59757461150273938 0.0630431 0 -0.00099734
2310 2 3 31.1018 -2077.50010136465107 2.98631e-21 2.5975746114925502 0.0629524 0 -0.000995881
2311 2 3 31.1018 -2074.50010136465062 2.98199e-21 2.59757461148236102 0.0628611 0 -0.000994469
2312 2 3 31.1018 -2071.50010136465016 2.97767e-21 2.59757461147217183 0.0627699 0 -0.000993055
2313 2 3 31.1018 -2068.50010136465016 2.97335e-21 2.59757461146198265 0.0626792 0 -0.000991598
2314 2 3 31.1018 -2065.50010136464971 2.96903e-21 2.59757461145179347 0.0625879 0 -0.000990183
2315 2 3 31.1018 -2062.50010136464925 2.9647e-21 2.59757461144160429 0.0624967 0 -0.000988771
2316 2 3 31.1018 -2059.50010136464925 2.96038e-21 2.5975746114314151 0.062406 0 -0.000987312
2317 2 3 31.1018 -2056.5001013646488 2.95606e-21 2.59757461142122592 0.0623147 0 -0.000985899
2318 2 3 31.1018 -2053.50010136464834 2.95174e-21 2.59757461141103674 0.0622235 0 -0.000984487
2319 2 3 31.1018 -2050.50010136464834 2.94742e-21 2.59757461140084756 0.0621327 0 -0.000983028
2320 2 3 31.1018 -2047.50010136464834 2.9431e-21 2.59757461139065837 0.062042 0 -0.000981569
2321 2 3 31.1018 -2044.50010136464789 2.93877e-21 2.59757461138046919 0.0619508 0 -0.000980156
2322 2 3 31.1018 -2041.50010136464766 2.93445e-21 2.59757461137028001 0.0618598 0 -0.00097872
2323 2 3 31.1018 -2038.50010136464743 2.93013e-21 2.59757461136009082 0.0617688 0 -0.000977285
2324 2 3 31.1018 -2035.50010136464698 2.92581e-21 2.59757461134990164 0.0616776 0 -0.000975871
2325 2 3 31.1018 -2032.50010136464675 2.92149e-21 2.59757461133971246 0.0615866 0 -0.000974437
2326 2 3 31.1018 -2029.5001013646463 2.91717e-21 2.59757461132952328 0.0614953 0 -0.000973022
2327 2 3 31.1018 -2026.50010136464607 2.91284e-21 2.59757461131933409 0.0614044 0 -0.000971587
2328 2 3 31.1018 -2023.50010136464584 2.90852e-21 2.59757461130914491 0.0613134 0 -0.000970151
2329 2 3 31.1018 -2020.50010136464539 2.9042e-21 2.59757461129895573 0.0612221 0 -0.000968738
2330 2 3 31.1018 -2017.50010136464516 2.89988e-21 2.59757461128876654 0.0611311 0 -0.000967303
2331 2 3 31.1018 -2014.50010136464493 2.89556e-21 2.59757461127857736 0.0610402 0 -0.000965867
2332 2 3 31.1018 -2011.50010136464448 2.89123e-21 2.59757461126838818 0.0609489 0 -0.000964454
2333 2 3 31.1018 -2008.50010136464425 2.88691e-21 2.597574611258199 0.0608579 0 -0.000963019
2334 2 3 31.1018 -2005.5001013646438 2.88259e-21 2.59757461124800981 0.0607667 0 -0.000961606
2335 2 3 31.1018 -2002.50010136464357 2.87827e-21 2.59757461123782063 0.0606757 0 -0.00096017
2336 2 3 31.1018 -1999.50010136464334 2.87395e-21 2.59757461122763145 0.0605847 0 -0.000958734
2337 2 3 31.1018 -1996.50010136464289 2.86963e-21 2.59757461121744226 0.0604935 0 -0.000957321
2338 2 3 31.1018 -1993.50010136464266 2.8653e-21 2.59757461120725308 0.0604025 0 -0.000955885
2339 2 3 31.1018 -1990.50010136464243 2.86098e-21 2.5975746111970639 0.0603115 0 -0.000954449
2340 2 3 31.1018 -1987.50010136464198 2.85666e-21 2.59757461118687472 0.0602203 0 -0.000953038
2341 2 3 31.1018 -1984.50010136464175 2.85234e-21 2.59757461117668553 0.0601293 0 -0.000951602
2342 2 3 31.1018 -1981.5001013646413 2.84802e-21 2.59757461116649635 0.0600381 0 -0.000950189
2343 2 3 31.1018 -1978.50010136464107 2.8437e-21 2.59757461115630717 0.0599471 0 -0.000948753
2344 2 3 31.1018 -1975.50010136464084 2.83937e-21 2.59757461114611798 0.0598561 0 -0.000947317
2345 2 3 31.1018 -1972.50010136464039 2.83505e-21 2.5975746111359288 0.0597649 0 -0.000945904
2346 2 3 31.1018 -1969.50010136464016 2.83073e-21 2.59757461112573962 0.0596739 0 -0.000944469
2347 2 3 31.1018 -1966.50010136463993 2.82641e-21 2.59757461111555044 0.0595829 0 -0.000943033
2348 2 3 31.1018 -1963.50010136463948 2.82209e-21 2.59757461110536125 0.0594917 0 -0.000941619
2349 2 3 31.1018 -1960.50010136463925 2.81777e-21 2.59757461109517207 0.0594007 0 -0.000940185
2350 2 3 31.1018 -1957.50010136463879 2.81344e-21 2.59757461108498289 0.0593095 0 -0.000938771
2351 2 3 31.1018 -1954.50010136463857 2.80912e-21 2.5975746110747937 0.0592185 0 -0.000937336
2352 2 3 31.1018 -1951.50010136463834 2.8048e-21 2.59757461106460452 0.0591275 0 -0.0009359
2353 2 3 31.1018 -1948.50010136463789 2.80048e-21 2.59757461105441534 0.0590363 0 -0.000934487
2354 2 3 31.1018 -1945.50010136463766 2.79616e-21 2.59757461104422616 0.0589453 0 -0.000933052
2355 2 3 31.1018 -1942.50010136463743 2.79184e-21 2.59757461103403697 0.0588543 0 -0.000931615
2356 2 3 31.1018 -1939.50010136463698 2.78751e-21 2.59757461102384779 0.0587631 0 -0.000930204
2357 2 3 31.1018 -1936.50010136463675 2.78319e-21 2.59757461101365861 0.0586721 0 -0.000928767
2358 2 3 31.1018 -1933.50010136463629 2.77887e-21 2.59757461100346942 0.0585809 0 -0.000927354
2359 2 3 31.1018 -1930.50010136463607 2.77455e-21 2.59757461099328024 0.0584899 0 -0.000925919
2360 2 3 31.1018 -1927.50010136463584 2.77023e-21 2.59757461098309106 0.0583989 0 -0.000924483
2361 2 3 31.1018 -1924.50010136463538 2.7659e-21 2.59757461097290188 0.0583077 0 -0.00092307
2362 2 3 31.1018 -1921.50010136463516 2.76158e-21 2.59757461096271269 0.0582167 0 -0.000921634
2363 2 3 31.1018 -1918.5001013646347 2.75726e-21 2.59757461095252351 0.0581254 0 -0.000920221
2364 2 3 31.1018 -1915.50010136463447 2.75294e-21 2.59757461094233433 0.0580345 0 -0.000918786
2365 2 3 31.1018 -1912.50010136463425 2.74862e-21 2.59757461093214514 0.0579435 0 -0.00091735
2366 2 3 31.1018 -1909.50010136463379 2.7443e-21 2.59757461092195596 0.0578522 0 -0.000915937
2367 2 3 31.1018 -1906.50010136463357 2.73997e-21 2.59757461091176678 0.0577612 0 -0.000914501
2368 2 3 31.1018 -1903.50010136463334 2.73565e-21 2.5975746109015776 0.0576703 0 -0.000913065
2369 2 3 31.1018 -1900.50010136463288 2.73133e-21 2.59757461089138841 0.057579 0 -0.000911653
2370 2 3 31.1018 -1897.50010136463266 2.72701e-21 2.59757461088119923 0.057488 0 -0.000910217
2371 2 3 31.1018 -1894.5001013646322 2.72269e-21 2.59757461087101005 0.0573968 0 -0.000908804
2372 2 3 31.1018 -1891.50010136463197 2.71837e-21 2.59757461086082087 0.0573058 0 -0.000907368
2373 2 3 31.1018 -1888.50010136463175 2.71404e-21 2.59757461085063168 0.0572148 0 -0.000905932
2374 2 3 31.1018 -1885.50010136463129 2.70972e-21 2.5975746108404425 0.0571236 0 -0.00090452
2375 2 3 31.1018 -1882.50010136463106 2.7054e-21 2.59757461083025332 0.0570326 0 -0.000903083