ITEM: TIMESTEP
4200000
ITEM: NUMBER OF ATOMS
2751
ITEM: BOX BOUNDS pp pp pp
-2.4750000000000000e+03 2.4750000000000000e+03
-1.0000000000000000e+02 1.0000000000000000e+02
-1.0000000000000000e+02 1.0000000000000000e+02
ITEM: ATOMS id type diameter mass xu yu zu fx fy fz
1 1 3 31.1018 -2475 0 0 0 0 0
2 1 3 31.1018 -2472 0 0 0 0 0
3 1 3 31.1018 -2469 0 0 0 0 0
4 1 3 31.1018 -2466 0 0 0 0 0
5 1 3 31.1018 -2463 0 0 0 0 0
6 1 3 31.1018 -2460 0 0 0 0 0
7 1 3 31.1018 -2457 0 0 0 0 0
8 1 3 31.1018 -2454 0 0 0 0 0
9 1 3 31.1018 -2451 0 0 0 0 0
10 1 3 31.1018 -2448 0 0 0 0 0
11 1 3 31.1018 -2445 0 0 0 0 0
12 1 3 31.1018 -2442 0 0 0 0 0
13 1 3 31.1018 -2439 0 0 0 0 0
14 1 3 31.1018 -2436 0 0 0 0 0
15 1 3 31.1018 -2433 0 0 0 0 0
16 1 3 31.1018 -2430 0 0 0 0 0
17 1 3 31.1018 -2427 0 0 0 0 0
18 1 3 31.1018 -2424 0 0 0 0 0
19 1 3 31.1018 -2421 0 0 0 0 0
20 1 3 31.1018 -2418 0 0 0 0 0
21 1 3 31.1018 -2415 0 0 0 0 0
22 1 3 31.1018 -2412 0 0 0 0 0
23 1 3 31.1018 -2409 0 0 0 0 0
24 1 3 31.1018 -2406 0 0 0 0 0
25 1 3 31.1018 -2403 0 0 0 0 0
26 1 3 31.1018 -2400 0 0 0 0 0
27 1 3 31.1018 -2397 0 0 0 0 0
28 1 3 31.1018 -2394 0 0 0 0 0
29 1 3 31.1018 -2391 0 0 0 0 0
30 1 3 31.1018 -2388 0 0 0 0 0
31 1 3 31.1018 -2385 0 0 0 0 0
32 1 3 31.1018 -2382 0 0 0 0 0
33 1 3 31.1018 -2379 0 0 0 0 0
34 1 3 31.1018 -2376 0 0 0 0 0
35 1 3 31.1018 -2373 0 0 0 0 0
36 1 3 31.1018 -2370 0 0 0 0 0
37 1 3 31.1018 -2367 0 0 0 0 0
38 1 3 31.1018 -2364 0 0 0 0 0
39 1 3 31.1018 -2361 0 0 0 0 0
40 1 3 31.1018 -2358 0 0 0 0 0
41 1 3 31.1018 -2355 0 0 0 0 0
42 1 3 31.1018 -2352 0 0 0 0 0
43 1 3 31.1018 -2349 0 0 0 0 0
44 1 3 31.1018 -2346 0 0 0 0 0
45 1 3 31.1018 -2343 0 0 0 0 0
46 1 3 31.1018 -2340 0 0 0 0 0
47 1 3 31.1018 -2337 0 0 0 0 0
48 1 3 31.1018 -2334 0 0 0 0 0
49 1 3 31.1018 -2331 0 0 0 0 0
50 1 3 31.1018 -2328 0 0 0 0 0
51 1 3 31.1018 -2325 0 0 0 0 0
52 1 3 31.1018 -2322 0 0 0 0 0
53 1 3 31.1018 -2319 0 0 0 0 0
54 1 3 31.1018 -2316 0 0 0 0 0
55 1 3 31.1018 -2313 0 0 0 0 0
56 1 3 31.1018 -2310 0 0 0 0 0
57 1 3 31.1018 -2307 0 0 0 0 0
58 1 3 31.1018 -2304 0 0 0 0 0
59 1 3 31.1018 -2301 0 0 0 0 0
60 1 3 31.1018 -2298 0 0 0 0 0
61 1 3 31.1018 -2295 0 0 0 0 0
62 1 3 31.1018 -2292 0 0 0 0 0
63 1 3 31.1018 -2289 0 0 0 0 0
64 1 3 31.1018 -2286 0 0 0 0 0
65 1 3 31.1018 -2283 0 0 0 0 0
66 1 3 31.1018 -2280 0 0 0 0 0
67 1 3 31.1018 -2277 0 0 0 0 0
68 1 3 31.1018 -2274 0 0 0 0 0
69 1 3 31.1018 -2271 0 0 0 0 0
70 1 3 31.1018 -2268 0 0 0 0 0
71 1 3 31.1018 -2265 0 0 0 0 0
72 1 3 31.1018 -2262 0 0 0 0 0
73 1 3 31.1018 -2259 0 0 0 0 0
74 1 3 31.1018 -2256 0 0 0 0 0
75 1 3 31.1018 -2253 0 0 0 0 0
76 1 3 31.1018 -2250 0 0 0 0 0
77 1 3 31.1018 -2247 0 0 0 0 0
78 1 3 31.1018 -2244 0 0 0 0 0
79 1 3 31.1018 -2241 0 0 0 0 0
80 1 3 31.1018 -2238 0 0 0 0 0
81 1 3 31.1018 -2235 0 0 0 0 0
82 1 3 31.1018 -2232 0 0 0 0 0
83 1 3 31.1018 -2229 0 0 0 0 0
84 1 3 31.1018 -2226 0 0 0 0 0
85 1 3 31.1018 -2223 0 0 0 0 0
86 1 3 31.1018 -2220 0 0 0 0 0
87 1 3 31.1018 -2217 0 0 0 0 0
88 1 3 31.1018 -2214 0 0 0 0 0
89 1 3 31.1018 -2211 0 0 0 0 0
90 1 3 31.1018 -2208 0 0 0 0 0
91 1 3 31.1018 -2205 0 0 0 0 0
92 1 3 31.1018 -2202 0 0 0 0 0
93 1 3 31.1018 -2199 0 0 0 0 0
94 1 3 31.1018 -2196 0 0 0 0 0
95 1 3 31.1018 -2193 0 0 0 0 0
96 1 3 31.1018 -2190 0 0 0 0 0
97 1 3 31.1018 -2187 0 0 0 0 0
98 1 3 31.1018 -2184 0 0 0 0 0
99 1 3 31.1018 -2181 0 0 0 0 0
100 1 3 31.1018 -2178 0 0 0 0 0
101 1 3 31.1018 -2175 0 0 0 0 0
102 1 3 31.1018 -2172 0 0 0 0 0
103 1 3 31.1018 -2169 0 0 0 0 0
104 1 3 31.1018 -2166 0 0 0 0 0
105 1 3 31.1018 -2163 0 0 0 0 0
106 1 3 31.1018 -2160 0 0 0 0 0
107 1 3 31.1018 -2157 0 0 0 0 0
108 1 3 31.1018 -2154 0 0 0 0 0
109 1 3 31.1018 -2151 0 0 0 0 0
110 1 3 31.1018 -2148 0 0 0 0 0
111 1 3 31.1018 -2145 0 0 0 0 0
112 1 3 31.1018 -2142 0 0 0 0 0
113 1 3 31.1018 -2139 0 0 0 0 0
114 1 3 31.1018 -2136 0 0 0 0 0
115 1 3 31.1018 -2133 0 0 0 0 0
116 1 3 31.1018 -2130 0 0 0 0 0
117 1 3 31.1018 -2127 0 0 0 0 0
118 1 3 31.1018 -2124 0 0 0 0 0
119 1 3 31.1018 -2121 0 0 0 0 0
120 1 3 31.1018 -2118 0 0 0 0 0
121 1 3 31.1018 -2115 0 0 0 0 0
122 1 3 31.1018 -2112 0 0 0 0 0
123 1 3 31.1018 -2109 0 0 0 0 0
124 1 3 31.1018 -2106 0 0 0 0 0
125 1 3 31.1018 -2103 0 0 0 0 0
126 1 3 31.1018 -2100 0 0 0 0 0
127 1 3 31.1018 -2097 0 0 0 0 0
128 1 3 31.1018 -2094 0 0 0 0 0
129 1 3 31.1018 -2091 0 0 0 0 0
130 1 3 31.1018 -2088 0 0 0 0 0
131 1 3 31.1018 -2085 0 0 0 0 0
132 1 3 31.1018 -2082 0 0 0 0 0
133 1 3 31.1018 -2079 0 0 0 0 0
134 1 3 31.1018 -2076 0 0 0 0 0
135 1 3 31.1018 -2073 0 0 0 0 0
136 1 3 31.1018 -2070 0 0 0 0 0
137 1 3 31.1018 -2067 0 0 0 0 0
138 1 3 31.1018 -2064 0 0 0 0 0
139 1 3 31.1018 -2061 0 0 0 0 0
140 1 3 31.1018 -2058 0 0 0 0 0
141 1 3 31.1018 -2055 0 0 0 0 0
142 1 3 31.1018 -2052 0 0 0 0 0
143 1 3 31.1018 -2049 0 0 0 0 0
144 1 3 31.1018 -2046 0 0 0 0 0
145 1 3 31.1018 -2043 0 0 0 0 0
146 1 3 31.1018 -2040 0 0 0 0 0
147 1 3 31.1018 -2037 0 0 0 0 0
148 1 3 31.1018 -2034 0 0 0 0 0
149 1 3 31.1018 -2031 0 0 0 0 0
150 1 3 31.1018 -2028 0 0 0 0 0
151 1 3 31.1018 -2025 0 0 0 0 0
152 1 3 31.1018 -2022 0 0 0 0 0
153 1 3 31.1018 -2019 0 0 0 0 0
154 1 3 31.1018 -2016 0 0 0 0 0
155 1 3 31.1018 -2013 0 0 0 0 0
156 1 3 31.1018 -2010 0 0 0 0 0
157 1 3 31.1018 -2007 0 0 0 0 0
158 1 3 31.1018 -2004 0 0 0 0 0
159 1 3 31.1018 -2001 0 0 0 0 0
160 1 3 31.1018 -1998 0 0 0 0 0
161 1 3 31.1018 -1995 0 0 0 0 0
162 1 3 31.1018 -1992 0 0 0 0 0
163 1 3 31.1018 -1989 0 0 0 0 0
164 1 3 31.1018 -1986 0 0 0 0 0
165 1 3 31.1018 -1983 0 0 0 0 0
166 1 3 31.1018 -1980 0 0 0 0 0
167 1 3 31.1018 -1977 0 0 0 0 0
168 1 3 31.1018 -1974 0 0 0 0 0
169 1 3 31.1018 -1971 0 0 0 0 0
170 1 3 31.1018 -1968 0 0 0 0 0
171 1 3 31.1018 -1965 0 0 0 0 0
172 1 3 31.1018 -1962 0 0 0 0 0
173 1 3 31.1018 -1959 0 0 0 0 0
174 1 3 31.1018 -1956 0 0 0 0 0
175 1 3 31.1018 -1953 0 0 0 0 0
176 1 3 31.1018 -1950 0 0 0 0 0
177 1 3 31.1018 -1947 0 0 0 0 0
178 1 3 31.1018 -1944 0 0 0 0 0
179 1 3 31.1018 -1941 0 0 0 0 0
180 1 3 31.1018 -1938 0 0 0 0 0
181 1 3 31.1018 -1935 0 0 0 0 0
182 1 3 31.1018 -1932 0 0 0 0 0
183 1 3 31.1018 -1929 0 0 0 0 0
184 1 3 31.1018 -1926 0 0 0 0 0
185 1 3 31.1018 -1923 0 0 0 0 0
186 1 3 31.1018 -1920 0 0 0 0 0
187 1 3 31.1018 -1917 0 0 0 0 0
188 1 3 31.1018 -1914 0 0 0 0 0
189 1 3 31.1018 -1911 0 0 0 0 0
190 1 3 31.1018 -1908 0 0 0 0 0
191 1 3 31.1018 -1905 0 0 0 0 0
192 1 3 31.1018 -1902 0 0 0 0 0
193 1 3 31.1018 -1899 0 0 0 0 0
194 1 3 31.1018 -1896 0 0 0 0 0
195 1 3 31.1018 -1893 0 0 0 0 0
196 1 3 31.1018 -1890 0 0 0 0 0
197 1 3 31.1018 -1887 0 0 0 0 0
198 1 3 31.1018 -1884 0 0 0 0 0
199 1 3 31.1018 -1881 0 0 0 0 0
200 1 3 31.1018 -1878 0 0 0 0 0
201 1 3 31.1018 -1875 0 0 0 0 0
202 1 3 31.1018 -1872 0 0 0 0 0
203 1 3 31.1018 -1869 0 0 0 0 0
204 1 3 31.1018 -1866 0 0 0 0 0
205 1 3 31.1018 -1863 0 0 0 0 0
206 1 3 31.1018 -1860 0 0 0 0 0
207 1 3 31.1018 -1857 0 0 0 0 0
208 1 3 31.1018 -1854 0 0 0 0 0
209 1 3 31.1018 -1851 0 0 0 0 0
210 1 3 31.1018 -1848 0 0 0 0 0
211 1 3 31.1018 -1845 0 0 0 0 0
212 1 3 31.1018 -1842 0 0 0 0 0
213 1 3 31.1018 -1839 0 0 0 0 0
214 1 3 31.1018 -1836 0 0 0 0 0
215 1 3 31.1018 -1833 0 0 0 0 0
216 1 3 31.1018 -1830 0 0 0 0 0
217 1 3 31.1018 -1827 0 0 0 0 0
218 1 3 31.1018 -1824 0 0 0 0 0
219 1 3 31.1018 -1821 0 0 0 0 0
220 1 3 31.1018 -1818 0 0 0 0 0
221 1 3 31.1018 -1815 0 0 0 0 0
222 1 3 31.1018 -1812 0 0 0 0 0
223 1 3 31.1018 -1809 0 0 0 0 0
224 1 3 31.1018 -1806 0 0 0 0 0
225 1 3 31.1018 -1803 0 0 0 0 0
226 1 3 31.1018 -1800 0 0 0 0 0
227 1 3 31.1018 -1797 0 0 0 0 0
228 1 3 31.1018 -1794 0 0 0 0 0
229 1 3 31.1018 -1791 0 0 0 0 0
230 1 3 31.1018 -1788 0 0 0 0 0
231 1 3 31.1018 -1785 0 0 0 0 0
232 1 3 31.1018 -1782 0 0 0 0 0
233 1 3 31.1018 -1779 0 0 0 0 0
234 1 3 31.1018 -1776 0 0 0 0 0
235 1 3 31.1018 -1773 0 0 0 0 0
236 1 3 31.1018 -1770 0 0 0 0 0
237 1 3 31.1018 -1767 0 0 0 0 0
238 1 3 31.1018 -1764 0 0 0 0 0
239 1 3 31.1018 -1761 0 0 0 0 0
240 1 3 31.1018 -1758 0 0 0 0 0
241 1 3 31.1018 -1755 0 0 0 0 0
242 1 3 31.1018 -1752 0 0 0 0 0
243 1 3 31.1018 -1749 0 0 0 0 0
244 1 3 31.1018 -1746 0 0 0 0 0
245 1 3 31.1018 -1743 0 0 0 0 0
246 1 3 31.1018 -1740 0 0 0 0 0
247 1 3 31.1018 -1737 0 0 0 0 0
248 1 3 31.1018 -1734 0 0 0 0 0
249 1 3 31.1018 -1731 0 0 0 0 0
250 1 3 31.1018 -1728 0 0 0 0 0
251 1 3 31.1018 -1725 0 0 0 0 0
252 1 3 31.1018 -1722 0 0 0 0 0
253 1 3 31.1018 -1719 0 0 0 0 0
254 1 3 31.1018 -1716 0 0 0 0 0
255 1 3 31.1018 -1713 0 0 0 0 0
256 1 3 31.1018 -1710 0 0 0 0 0
257 1 3 31.1018 -1707 0 0 0 0 0
258 1 3 31.1018 -1704 0 0 0 0 0
259 1 3 31.1018 -1701 0 0 0 0 0
260 1 3 31.1018 -1698 0 0 0 0 0
261 1 3 31.1018 -1695 0 0 0 0 0
262 1 3 31.1018 -1692 0 0 0 0 0
263 1 3 31.1018 -1689 0 0 0 0 0
264 1 3 31.1018 -1686 0 0 0 0 0
265 1 3 31.1018 -1683 0 0 0 0 0
266 1 3 31.1018 -1680 0 0 0 0 0
267 1 3 31.1018 -1677 0 0 0 0 0
268 1 3 31.1018 -1674 0 0 0 0 0
269 1 3 31.1018 -1671 0 0 0 0 0
270 1 3 31.1018 -1668 0 0 0 0 0
271 1 3 31.1018 -1665 0 0 0 0 0
272 1 3 31.1018 -1662 0 0 0 0 0
273 1 3 31.1018 -1659 0 0 0 0 0
274 1 3 31.1018 -1656 0 0 0 0 0
275 1 3 31.1018 -1653 0 0 0 0 0
276 1 3 31.1018 -1650 0 0 0 0 0
277 1 3 31.1018 -1647 0 0 0 0 0
278 1 3 31.1018 -1644 0 0 0 0 0
279 1 3 31.1018 -1641 0 0 0 0 0
280 1 3 31.1018 -1638 0 0 0 0 0
281 1 3 31.1018 -1635 0 0 0 0 0
282 1 3 31.1018 -1632 0 0 0 0 0
283 1 3 31.1018 -1629 0 0 0 0 0
284 1 3 31.1018 -1626 0 0 0 0 0
285 1 3 31.1018 -1623 0 0 0 0 0
286 1 3 31.1018 -1620 0 0 0 0 0
287 1 3 31.1018 -1617 0 0 0 0 0
288 1 3 31.1018 -1614 0 0 0 0 0
289 1 3 31.1018 -1611 0 0 0 0 0
290 1 3 31.1018 -1608 0 0 0 0 0
291 1 3 31.1018 -1605 0 0 0 0 0
292 1 3 31.1018 -1602 0 0 0 0 0
293 1 3 31.1018 -1599 0 0 0 0 0
294 1 3 31.1018 -1596 0 0 0 0 0
295 1 3 31.1018 -1593 0 0 0 0 0
296 1 3 31.1018 -1590 0 0 0 0 0
297 1 3 31.1018 -1587 0 0 0 0 0
298 1 3 31.1018 -1584 0 0 0 0 0
299 1 3 31.1018 -1581 0 0 0 0 0
300 1 3 31.1018 -1578 0 0 0 0 0
301 1 3 31.1018 -1575 0 0 0 0 0
302 1 3 31.1018 -1572 0 0 0 0 0
303 1 3 31.1018 -1569 0 0 0 0 0
304 1 3 31.1018 -1566 0 0 0 0 0
305 1 3 31.1018 -1563 0 0 0 0 0
306 1 3 31.1018 -1560 0 0 0 0 0
307 1 3 31.1018 -1557 0 0 0 0 0
308 1 3 31.1018 -1554 0 0 0 0 0
309 1 3 31.1018 -1551 0 0 0 0 0
310 1 3 31.1018 -1548 0 0 0 0 0
311 1 3 31.1018 -1545 0 0 0 0 0
312 1 3 31.1018 -1542 0 0 0 0 0
313 1 3 31.1018 -1539 0 0 0 0 0
314 1 3 31.1018 -1536 0 0 0 0 0
315 1 3 31.1018 -1533 0 0 0 0 0
316 1 3 31.1018 -1530 0 0 0 0 0
317 1 3 31.1018 -1527 0 0 0 0 0
318 1 3 31.1018 -1524 0 0 0 0 0
319 1 3 31.1018 -1521 0 0 0 0 0
320 1 3 31.1018 -1518 0 0 0 0 0
321 1 3 31.1018 -1515 0 0 0 0 0
322 1 3 31.1018 -1512 0 0 0 0 0
323 1 3 31.1018 -1509 0 0 0 0 0
324 1 3 31.1018 -1506 0 0 0 0 0
325 1 3 31.1018 -1503 0 0 0 0 0
326 1 3 31.1018 -1500 0 0 0 0 0
327 1 3 31.1018 -1497 0 0 0 0 0
328 1 3 31.1018 -1494 0 0 0 0 0
329 1 3 31.1018 -1491 0 0 0 0 0
330 1 3 31.1018 -1488 0 0 0 0 0
331 1 3 31.1018 -1485 0 0 0 0 0
332 1 3 31.1018 -1482 0 0 0 0 0
333 1 3 31.1018 -1479 0 0 0 0 0
334 1 3 31.1018 -1476 0 0 0 0 0
335 1 3 31.1018 -1473 0 0 0 0 0
336 1 3 31.1018 -1470 0 0 0 0 0
337 1 3 31.1018 -1467 0 0 0 0 0
338 1 3 31.1018 -1464 0 0 0 0 0
339 1 3 31.1018 -1461 0 0 0 0 0
340 1 3 31.1018 -1458 0 0 0 0 0
341 1 3 31.1018 -1455 0 0 0 0 0
342 1 3 31.1018 -1452 0 0 0 0 0
343 1 3 31.1018 -1449 0 0 0 0 0
344 1 3 31.1018 -1446 0 0 0 0 0
345 1 3 31.1018 -1443 0 0 0 0 0
346 1 3 31.1018 -1440 0 0 0 0 0
347 1 3 31.1018 -1437 0 0 0 0 0
348 1 3 31.1018 -1434 0 0 0 0 0
349 1 3 31.1018 -1431 0 0 0 0 0
350 1 3 31.1018 -1428 0 0 0 0 0
351 1 3 31.1018 -1425 0 0 0 0 0
352 1 3 31.1018 -1422 0 0 0 0 0
353 1 3 31.1018 -1419 0 0 0 0 0
354 1 3 31.1018 -1416 0 0 0 0 0
355 1 3 31.1018 -1413 0 0 0 0 0
356 1 3 31.1018 -1410 0 0 0 0 0
357 1 3 31.1018 -1407 0 0 0 0 0
358 1 3 31.1018 -1404 0 0 0 0 0
359 1 3 31.1018 -1401 0 0 0 0 0
360 1 3 31.1018 -1398 0 0 0 0 0
361 1 3 31.1018 -1395 0 0 0 0 0
362 1 3 31.1018 -1392 0 0 0 0 0
363 1 3 31.1018 -1389 0 0 0 0 0
364 1 3 31.1018 -1386 0 0 0 0 0
365 1 3 31.1018 -1383 0 0 0 0 0
366 1 3 31.1018 -1380 0 0 0 0 0
367 1 3 31.1018 -1377 0 0 0 0 0
368 1 3 31.1018 -1374 0 0 0 0 0
369 1 3 31.1018 -1371 0 0 0 0 0
370 1 3 31.1018 -1368 0 0 0 0 0
371 1 3 31.1018 -1365 0 0 0 0 0
372 1 3 31.1018 -1362 0 0 0 0 0
373 1 3 31.1018 -1359 0 0 0 0 0
374 1 3 31.1018 -1356 0 0 0 0 0
375 1 3 31.1018 -1353 0 0 0 0 0
376 1 3 31.1018 -1350 0 0 0 0 0
377 1 3 31.1018 -1347 0 0 0 0 0
378 1 3 31.1018 -1344 0 0 0 0 0
379 1 3 31.1018 -1341 0 0 0 0 0
380 1 3 31.1018 -1338 0 0 0 0 0
381 1 3 31.1018 -1335 0 0 0 0 0
382 1 3 31.1018 -1332 0 0 0 0 0
383 1 3 31.1018 -1329 0 0 0 0 0
384 1 3 31.1018 -1326 0 0 0 0 0
385 1 3 31.1018 -1323 0 0 0 0 0
386 1 3 31.1018 -1320 0 0 0 0 0
387 1 3 31.1018 -1317 0 0 0 0 0
388 1 3 31.1018 -1314 0 0 0 0 0
389 1 3 31.1018 -1311 0 0 0 0 0
390 1 3 31.1018 -1308 0 0 0 0 0
391 1 3 31.1018 -1305 0 0 0 0 0
392 1 3 31.1018 -1302 0 0 0 0 0
393 1 3 31.1018 -1299 0 0 0 0 0
394 1 3 31.1018 -1296 0 0 0 0 0
395 1 3 31.1018 -1293 0 0 0 0 0
396 1 3 31.1018 -1290 0 0 0 0 0
397 1 3 31.1018 -1287 0 0 0 0 0
398 1 3 31.1018 -1284 0 0 0 0 0
399 1 3 31.1018 -1281 0 0 0 0 0
400 1 3 31.1018 -1278 0 0 0 0 0
401 1 3 31.1018 -1275 0 0 0 0 0
402 1 3 31.1018 -1272 0 0 0 0 0
403 1 3 31.1018 -1269 0 0 0 0 0
404 1 3 31.1018 -1266 0 0 0 0 0
405 1 3 31.1018 -1263 0 0 0 0 0
406 1 3 31.1018 -1260 0 0 0 0 0
407 1 3 31.1018 -1257 0 0 0 0 0
408 1 3 31.1018 -1254 0 0 0 0 0
409 1 3 31.1018 -1251 0 0 0 0 0
410 1 3 31.1018 -1248 0 0 0 0 0
411 1 3 31.1018 -1245 0 0 0 0 0
412 1 3 31.1018 -1242 0 0 0 0 0
413 1 3 31.1018 -1239 0 0 0 0 0
1651 2 3 31.1018 -1654.50010136577021 8.19261e-21 2.59757461520683064 0.092734 0 -0.00146092
1652 2 3 31.1018 -1651.50010136577043 8.17772e-21 2.59757461518792088 0.0925654 0 -0.00145826
1653 2 3 31.1018 -1648.50010136577066 8.16282e-21 2.59757461516901156 0.0923968 0 -0.00145561
1654 2 3 31.1018 -1645.50010136577089 8.14792e-21 2.5975746151501018 0.0922281 0 -0.00145296
1655 2 3 31.1018 -1642.50010136577134 8.13303e-21 2.59757461513119248 0.0920597 0 -0.00145028
1656 2 3 31.1018 -1639.50010136577157 8.11813e-21 2.59757461511228271 0.0918911 0 -0.00144763
1657 2 3 31.1018 -1636.5001013657718 8.10324e-21 2.5975746150933734 0.0917224 0 -0.00144498
1658 2 3 31.1018 -1633.50010136577203 8.08834e-21 2.59757461507446363 0.0915538 0 -0.00144232
1659 2 3 31.1018 -1630.50010136577225 8.07345e-21 2.59757461505555431 0.0913852 0 -0.00143967
1660 2 3 31.1018 -1627.50010136577271 8.05855e-21 2.59757461503664455 0.0912168 0 -0.00143699
1661 2 3 31.1018 -1624.50010136577293 8.04365e-21 2.59757461501773523 0.0910481 0 -0.00143434
1662 2 3 31.1018 -1621.50010136577316 8.02876e-21 2.59757461499882547 0.0908795 0 -0.00143169
1663 2 3 31.1018 -1618.50010136577339 8.01386e-21 2.59757461497991615 0.0907108 0 -0.00142904
1664 2 3 31.1018 -1615.50010136577362 7.99897e-21 2.59757461496100639 0.0905422 0 -0.00142638
1665 2 3 31.1018 -1612.50010136577407 7.98407e-21 2.59757461494209707 0.0903738 0 -0.00142371
1666 2 3 31.1018 -1609.5001013657743 7.96918e-21 2.59757461492318731 0.0902051 0 -0.00142105
1667 2 3 31.1018 -1606.50010136577453 7.95428e-21 2.59757461490427799 0.0900365 0 -0.0014184
1668 2 3 31.1018 -1603.50010136577475 7.93939e-21 2.59757461488536823 0.0898679 0 -0.00141575
1669 2 3 31.1018 -1600.50010136577498 7.92449e-21 2.59757461486645891 0.0896992 0 -0.00141309
1670 2 3 31.1018 -1597.50010136577544 7.90959e-21 2.59757461484754915 0.0895308 0 -0.00141042
1671 2 3 31.1018 -1594.50010136577566 7.8947e-21 2.59757461482863983 0.0893622 0 -0.00140776
1672 2 3 31.1018 -1591.50010136577589 7.8798e-21 2.59757461480973006 0.0891935 0 -0.00140511
1673 2 3 31.1018 -1588.50010136577612 7.86491e-21 2.59757461479082075 0.0890249 0 -0.00140246
1674 2 3 31.1018 -1585.50010136577635 7.85001e-21 2.59757461477191098 0.0888563 0 -0.00139981
1675 2 3 31.1018 -1582.5001013657768 7.83512e-21 2.59757461475300166 0.0886879 0 -0.00139713
1676 2 3 31.1018 -1579.50010136577703 7.82022e-21 2.5975746147340919 0.0885192 0 -0.00139448
1677 2 3 31.1018 -1576.50010136577725 7.80532e-21 2.59757461471518258 0.0883506 0 -0.00139182
1678 2 3 31.1018 -1573.50010136577748 7.79043e-21 2.59757461469627282 0.0881819 0 -0.00138917
1679 2 3 31.1018 -1570.50010136577771 7.77553e-21 2.5975746146773635 0.0880133 0 -0.00138652
1680 2 3 31.1018 -1567.50010136577816 7.76064e-21 2.59757461465845374 0.0878449 0 -0.00138384
1681 2 3 31.1018 -1564.50010136577839 7.74574e-21 2.59757461463954442 0.0876762 0 -0.00138119
1682 2 3 31.1018 -1561.50010136577862 7.73085e-21 2.59757461462063466 0.0875076 0 -0.00137854
1683 2 3 31.1018 -1558.50010136577885 7.71595e-21 2.59757461460172534 0.087339 0 -0.00137588
1684 2 3 31.1018 -1555.50010136577907 7.70105e-21 2.59757461458281558 0.0871703 0 -0.00137323
1685 2 3 31.1018 -1552.50010136577953 7.68616e-21 2.59757461456390626 0.0870019 0 -0.00137055
1686 2 3 31.1018 -1549.50010136577976 7.67126e-21 2.5975746145449965 0.0868333 0 -0.0013679
1687 2 3 31.1018 -1546.50010136577998 7.65637e-21 2.59757461452608718 0.0866646 0 -0.00136525
1688 2 3 31.1018 -1543.50010136578021 7.64147e-21 2.59757461450717742 0.086496 0 -0.0013626
1689 2 3 31.1018 -1540.50010136578067 7.62658e-21 2.5975746144882681 0.0863276 0 -0.00135992
1690 2 3 31.1018 -1537.50010136578089 7.61168e-21 2.59757461446935833 0.086159 0 -0.00135727
1691 2 3 31.1018 -1534.50010136578112 7.59679e-21 2.59757461445044902 0.0859903 0 -0.00135461
1692 2 3 31.1018 -1531.50010136578135 7.58189e-21 2.59757461443153925 0.0858217 0 -0.00135196
1693 2 3 31.1018 -1528.50010136578157 7.56699e-21 2.59757461441262993 0.085653 0 -0.00134931
1694 2 3 31.1018 -1525.50010136578203 7.5521e-21 2.59757461439372017 0.0854846 0 -0.00134663
1695 2 3 31.1018 -1522.50010136578226 7.5372e-21 2.59757461437481085 0.085316 0 -0.00134398
1696 2 3 31.1018 -1519.50010136578248 7.52231e-21 2.59757461435590109 0.0851473 0 -0.00134132
1697 2 3 31.1018 -1516.50010136578271 7.50741e-21 2.59757461433699177 0.0849787 0 -0.00133867
1698 2 3 31.1018 -1513.50010136578294 7.49252e-21 2.59757461431808201 0.0848101 0 -0.00133602
1699 2 3 31.1018 -1510.50010136578339 7.47762e-21 2.59757461429917269 0.0846417 0 -0.00133334
1700 2 3 31.1018 -1507.50010136578362 7.46272e-21 2.59757461428026293 0.084473 0 -0.00133069
1701 2 3 31.1018 -1504.50010136578385 7.44783e-21 2.59757461426135361 0.0843044 0 -0.00132804
1702 2 3 31.1018 -1501.50010136578408 7.43293e-21 2.59757461424244385 0.0841357 0 -0.00132538
1703 2 3 31.1018 -1498.5001013657843 7.41804e-21 2.59757461422353453 0.0839671 0 -0.00132273
1704 2 3 31.1018 -1495.50010136578476 7.40314e-21 2.59757461420462477 0.0837987 0 -0.00132006
1705 2 3 31.1018 -1492.50010136578499 7.38825e-21 2.59757461418571545 0.08363 0 -0.0013174
1706 2 3 31.1018 -1489.50010136578521 7.37335e-21 2.59757461416680568 0.0834614 0 -0.00131475
1707 2 3 31.1018 -1486.50010136578544 7.35845e-21 2.59757461414789637 0.0832928 0 -0.0013121
1708 2 3 31.1018 -1483.50010136578567 7.34356e-21 2.5975746141289866 0.0831241 0 -0.00130944
1709 2 3 31.1018 -1480.50010136578612 7.32866e-21 2.59757461411007728 0.0829557 0 -0.00130677
1710 2 3 31.1018 -1477.50010136578635 7.31377e-21 2.59757461409116752 0.0827871 0 -0.00130411
1711 2 3 31.1018 -1474.50010136578658 7.29887e-21 2.5975746140722582 0.0826184 0 -0.00130146
1712 2 3 31.1018 -1471.5001013657868 7.28398e-21 2.59757461405334844 0.0824498 0 -0.00129881
1713 2 3 31.1018 -1468.50010136578703 7.26908e-21 2.59757461403443912 0.0822812 0 -0.00129616
1714 2 3 31.1018 -1465.50010136578749 7.25418e-21 2.59757461401552936 0.0821128 0 -0.00129348
1715 2 3 31.1018 -1462.50010136578771 7.23929e-21 2.59757461399662004 0.0819441 0 -0.00129083
1716 2 3 31.1018 -1459.50010136578794 7.22439e-21 2.59757461397771028 0.0817755 0 -0.00128817
1717 2 3 31.1018 -1456.50010136578817 7.2095e-21 2.59757461395880096 0.0816068 0 -0.00128552
1718 2 3 31.1018 -1453.5001013657884 7.1946e-21 2.5975746139398912 0.0814382 0 -0.00128287
1719 2 3 31.1018 -1450.50010136578885 7.17971e-21 2.59757461392098188 0.0812698 0 -0.00128019
1720 2 3 31.1018 -1447.50010136578908 7.16481e-21 2.59757461390207212 0.0811011 0 -0.00127754
1721 2 3 31.1018 -1444.50010136578931 7.14992e-21 2.5975746138831628 0.0809325 0 -0.00127489
1722 2 3 31.1018 -1441.50010136578953 7.13502e-21 2.59757461386425303 0.0807639 0 -0.00127223
1723 2 3 31.1018 -1438.50010136578976 7.12012e-21 2.59757461384534372 0.0805952 0 -0.00126958
1724 2 3 31.1018 -1435.50010136579021 7.10523e-21 2.59757461382643395 0.0804268 0 -0.0012669
1725 2 3 31.1018 -1432.50010136579044 7.09033e-21 2.59757461380752463 0.0802582 0 -0.00126425
1726 2 3 31.1018 -1429.50010136579067 7.07544e-21 2.59757461378861487 0.0800895 0 -0.0012616
1727 2 3 31.1018 -1426.5001013657909 7.06054e-21 2.59757461376970555 0.0799209 0 -0.00125895
1728 2 3 31.1018 -1423.50010136579112 7.04565e-21 2.59757461375079579 0.0797523 0 -0.00125629
1729 2 3 31.1018 -1420.50010136579158 7.03075e-21 2.59757461373188647 0.0795838 0 -0.00125362
1730 2 3 31.1018 -1417.50010136579181 7.01585e-21 2.59757461371297671 0.0794152 0 -0.00125096
1731 2 3 31.1018 -1414.50010136579203 7.00096e-21 2.59757461369406739 0.0792466 0 -0.00124831
1732 2 3 31.1018 -1411.50010136579226 6.98606e-21 2.59757461367515763 0.0790779 0 -0.00124566
1733 2 3 31.1018 -1408.50010136579249 6.97117e-21 2.59757461365624831 0.0789093 0 -0.00124301
1734 2 3 31.1018 -1405.50010136579294 6.95627e-21 2.59757461363733855 0.0787409 0 -0.00124033
1735 2 3 31.1018 -1402.50010136579317 6.94138e-21 2.59757461361842923 0.0785722 0 -0.00123768
1736 2 3 31.1018 -1399.5001013657934 6.92648e-21 2.59757461359951947 0.0784036 0 -0.00123502
1737 2 3 31.1018 -1396.50010136579363 6.91158e-21 2.59757461358061015 0.078235 0 -0.00123237
1738 2 3 31.1018 -1393.50010136579408 6.89669e-21 2.59757461356170039 0.0780665 0 -0.0012297
1739 2 3 31.1018 -1390.50010136579431 6.88179e-21 2.59757461354279107 0.0778979 0 -0.00122704
1740 2 3 31.1018 -1387.50010136579454 6.8669e-21 2.5975746135238813 0.0777293 0 -0.00122439
1741 2 3 31.1018 -1384.50010136579476 6.852e-21 2.59757461350497199 0.0775606 0 -0.00122174
1742 2 3 31.1018 -1381.50010136579499 6.83711e-21 2.59757461348606222 0.077392 0 -0.00121908
1743 2 3 31.1018 -1378.50010136579544 6.82221e-21 2.5975746134671529 0.0772236 0 -0.00121641
1744 2 3 31.1018 -1375.50010136579567 6.80732e-21 2.59757461344824314 0.0770549 0 -0.00121376
1745 2 3 31.1018 -1372.5001013657959 6.79242e-21 2.59757461342933382 0.0768863 0 -0.0012111
1746 2 3 31.1018 -1369.50010136579613 6.77752e-21 2.59757461341042406 0.0767177 0 -0.00120845
1747 2 3 31.1018 -1366.50010136579635 6.76263e-21 2.59757461339151474 0.076549 0 -0.0012058
1748 2 3 31.1018 -1363.50010136579681 6.74773e-21 2.59757461337260498 0.0763806 0 -0.00120312
1749 2 3 31.1018 -1360.50010136579704 6.73284e-21 2.59757461335369566 0.076212 0 -0.00120047
1750 2 3 31.1018 -1357.50010136579726 6.71794e-21 2.5975746133347859 0.0760433 0 -0.00119782
1751 2 3 31.1018 -1354.50010136579749 6.70305e-21 2.59757461331587658 0.0758747 0 -0.00119516
1752 2 3 31.1018 -1351.50010136579772 6.68815e-21 2.59757461329696682 0.0757061 0 -0.00119251
1753 2 3 31.1018 -1348.50010136579817 6.67325e-21 2.5975746132780575 0.0755376 0 -0.00118983
1754 2 3 31.1018 -1345.5001013657984 6.65836e-21 2.59757461325914774 0.075369 0 -0.00118718
1755 2 3 31.1018 -1342.50010136579863 6.64346e-21 2.59757461324023842 0.0752004 0 -0.00118453
1756 2 3 31.1018 -1339.50010136579886 6.62857e-21 2.59757461322132865 0.0750317 0 -0.00118187
1757 2 3 31.1018 -1336.50010136579908 6.61367e-21 2.59757461320241934 0.0748631 0 -0.00117922
1758 2 3 31.1018 -1333.50010136579954 6.59878e-21 2.59757461318350957 0.0746947 0 -0.00117655
1759 2 3 31.1018 -1330.50010136579976 6.58388e-21 2.59757461316460025 0.074526 0 -0.00117389
1760 2 3 31.1018 -1327.50010136579999 6.56898e-21 2.59757461314569049 0.0743574 0 -0.00117124
1761 2 3 31.1018 -1324.50010136580022 6.55409e-21 2.59757461312678117 0.0741888 0 -0.00116859
1762 2 3 31.1018 -1321.50010136580045 6.53919e-21 2.59757461310787141 0.0740201 0 -0.00116593
1763 2 3 31.1018 -1318.5001013658009 6.5243e-21 2.59757461308896209 0.0738517 0 -0.00116326
1764 2 3 31.1018 -1315.50010136580113 6.5094e-21 2.59757461307005233 0.0736831 0 -0.00116061
1765 2 3 31.1018 -1312.50010136580136 6.49451e-21 2.59757461305114301 0.0735144 0 -0.00115795
1766 2 3 31.1018 -1309.50010136580158 6.47961e-21 2.59757461303223325 0.0733458 0 -0.0011553
1767 2 3 31.1018 -1306.50010136580181 6.46472e-21 2.59757461301332393 0.0731771 0 -0.00115265
1768 2 3 31.1018 -1303.50010136580227 6.44982e-21 2.59757461299441417 0.0730087 0 -0.00114997
1769 2 3 31.1018 -1300.50010136580249 6.43492e-21 2.59757461297550485 0.0728401 0 -0.00114732
1770 2 3 31.1018 -1297.50010136580272 6.42003e-21 2.59757461295659509 0.0726715 0 -0.00114467
1771 2 3 31.1018 -1294.50010136580295 6.40513e-21 2.59757461293768577 0.0725028 0 -0.00114201
1772 2 3 31.1018 -1291.50010136580318 6.39024e-21 2.597574612918776 0.0723342 0 -0.00113936
1773 2 3 31.1018 -1288.50010136580363 6.37534e-21 2.59757461289986669 0.0721658 0 -0.00113668
1774 2 3 31.1018 -1285.50010136580386 6.36045e-21 2.59757461288095692 0.0719971 0 -0.00113403
1775 2 3 31.1018 -1282.50010136580408 6.34555e-21 2.5975746128620476 0.0718285 0 -0.00113138
1776 2 3 31.1018 -1279.50010136580431 6.33065e-21 2.59757461284313784 0.0716598 0 -0.00112873
1777 2 3 31.1018 -1276.50010136580454 6.31576e-21 2.59757461282422852 0.0714912 0 -0.00112607
1778 2 3 31.1018 -1273.50010136580499 6.30086e-21 2.59757461280531876 0.0713228 0 -0.0011234
1779 2 3 31.1018 -1270.50010136580522 6.28597e-21 2.59757461278640944 0.0711542 0 -0.00112074
1780 2 3 31.1018 -1267.50010136580545 6.27107e-21 2.59757461276749968 0.0709855 0 -0.00111809
1781 2 3 31.1018 -1264.50010136580568 6.25618e-21 2.59757461274859036 0.0708169 0 -0.00111544
1782 2 3 31.1018 -1261.5001013658059 6.24128e-21 2.5975746127296806 0.0706482 0 -0.00111278
1783 2 3 31.1018 -1258.50010136580636 6.22638e-21 2.59757461271077128 0.0704798 0 -0.00111011
1784 2 3 31.1018 -1255.50010136580659 6.21149e-21 2.59757461269186152 0.0703112 0 -0.00110746
1785 2 3 31.1018 -1252.50010136580681 6.19659e-21 2.5975746126729522 0.0701425 0 -0.0011048
1786 2 3 31.1018 -1249.50010136580704 6.1817e-21 2.59757461265404244 0.0699739 0 -0.00110215
1787 2 3 31.1018 -1246.5001013658075 6.1668e-21 2.59757461263513312 0.0698055 0 -0.00109948
1788 2 3 31.1018 -1243.50010136580772 6.15191e-21 2.59757461261622336 0.0696369 0 -0.00109682
1789 2 3 31.1018 -1240.50010136580795 6.13701e-21 2.59757461259731404 0.0694682 0 -0.00109417
414 1 3 31.1018 -1236 0 0 0 0 0
415 1 3 31.1018 -1233 0 0 0 0 0
416 1 3 31.1018 -1230 0 0 0 0 0
417 1 3 31.1018 -1227 0 0 0 0 0
418 1 3 31.1018 -1224 0 0 0 0 0
419 1 3 31.1018 -1221 0 0 0 0 0
420 1 3 31.1018 -1218 0 0 0 0 0
421 1 3 31.1018 -1215 0 0 0 0 0
422 1 3 31.1018 -1212 0 0 0 0 0
423 1 3 31.1018 -1209 0 0 0 0 0
424 1 3 31.1018 -1206 0 0 0 0 0
425 1 3 31.1018 -1203 0 0 0 0 0
426 1 3 31.1018 -1200 0 0 0 0 0
427 1 3 31.1018 -1197 0 0 0 0 0
428 1 3 31.1018 -1194 0 0 0 0 0
429 1 3 31.1018 -1191 0 0 0 0 0
430 1 3 31.1018 -1188 0 0 0 0 0
431 1 3 31.1018 -1185 0 0 0 0 0
432 1 3 31.1018 -1182 0 0 0 0 0
433 1 3 31.1018 -1179 0 0 0 0 0
434 1 3 31.1018 -1176 0 0 0 0 0
435 1 3 31.1018 -1173 0 0 0 0 0
436 1 3 31.1018 -1170 0 0 0 0 0
437 1 3 31.1018 -1167 0 0 0 0 0
438 1 3 31.1018 -1164 0 0 0 0 0
439 1 3 31.1018 -1161 0 0 0 0 0
440 1 3 31.1018 -1158 0 0 0 0 0
441 1 3 31.1018 -1155 0 0 0 0 0
442 1 3 31.1018 -1152 0 0 0 0 0
443 1 3 31.1018 -1149 0 0 0 0 0
444 1 3 31.1018 -1146 0 0 0 0 0
445 1 3 31.1018 -1143 0 0 0 0 0
446 1 3 31.1018 -1140 0 0 0 0 0
447 1 3 31.1018 -1137 0 0 0 0 0
448 1 3 31.1018 -1134 0 0 0 0 0
449 1 3 31.1018 -1131 0 0 0 0 0
450 1 3 31.1018 -1128 0 0 0 0 0
451 1 3 31.1018 -1125 0 0 0 0 0
452 1 3 31.1018 -1122 0 0 0 0 0
453 1 3 31.1018 -1119 0 0 0 0 0
454 1 3 31.1018 -1116 0 0 0 0 0
455 1 3 31.1018 -1113 0 0 0 0 0
456 1 3 31.1018 -1110 0 0 0 0 0
457 1 3 31.1018 -1107 0 0 0 0 0
458 1 3 31.1018 -1104 0 0 0 0 0
459 1 3 31.1018 -1101 0 0 0 0 0
460 1 3 31.1018 -1098 0 0 0 0 0
461 1 3 31.1018 -1095 0 0 0 0 0
462 1 3 31.1018 -1092 0 0 0 0 0
463 1 3 31.1018 -1089 0 0 0 0 0
464 1 3 31.1018 -1086 0 0 0 0 0
465 1 3 31.1018 -1083 0 0 0 0 0
466 1 3 31.1018 -1080 0 0 0 0 0
467 1 3 31.1018 -1077 0 0 0 0 0
468 1 3 31.1018 -1074 0 0 0 0 0
469 1 3 31.1018 -1071 0 0 0 0 0
470 1 3 31.1018 -1068 0 0 0 0 0
471 1 3 31.1018 -1065 0 0 0 0 0
472 1 3 31.1018 -1062 0 0 0 0 0
473 1 3 31.1018 -1059 0 0 0 0 0
474 1 3 31.1018 -1056 0 0 0 0 0
475 1 3 31.1018 -1053 0 0 0 0 0
476 1 3 31.1018 -1050 0 0 0 0 0
477 1 3 31.1018 -1047 0 0 0 0 0
478 1 3 31.1018 -1044 0 0 0 0 0
479 1 3 31.1018 -1041 0 0 0 0 0
480 1 3 31.1018 -1038 0 0 0 0 0
481 1 3 31.1018 -1035 0 0 0 0 0
482 1 3 31.1018 -1032 0 0 0 0 0
483 1 3 31.1018 -1029 0 0 0 0 0
484 1 3 31.1018 -1026 0 0 0 0 0
485 1 3 31.1018 -1023 0 0 0 0 0
486 1 3 31.1018 -1020 0 0 0 0 0
487 1 3 31.1018 -1017 0 0 0 0 0
488 1 3 31.1018 -1014 0 0 0 0 0
489 1 3 31.1018 -1011 0 0 0 0 0
490 1 3 31.1018 -1008 0 0 0 0 0
491 1 3 31.1018 -1005 0 0 0 0 0
492 1 3 31.1018 -1002 0 0 0 0 0
493 1 3 31.1018 -999 0 0 0 0 0
494 1 3 31.1018 -996 0 0 0 0 0
495 1 3 31.1018 -993 0 0 0 0 0
496 1 3 31.1018 -990 0 0 0 0 0
497 1 3 31.1018 -987 0 0 0 0 0
498 1 3 31.1018 -984 0 0 0 0 0
499 1 3 31.1018 -981 0 0 0 0 0
500 1 3 31.1018 -978 0 0 0 0 0
501 1 3 31.1018 -975 0 0 0 0 0
502 1 3 31.1018 -972 0 0 0 0 0
503 1 3 31.1018 -969 0 0 0 0 0
504 1 3 31.1018 -966 0 0 0 0 0
505 1 3 31.1018 -963 0 0 0 0 0
506 1 3 31.1018 -960 0 0 0 0 0
507 1 3 31.1018 -957 0 0 0 0 0
508 1 3 31.1018 -954 0 0 0 0 0
509 1 3 31.1018 -951 0 0 0 0 0
510 1 3 31.1018 -948 0 0 0 0 0
511 1 3 31.1018 -945 0 0 0 0 0
512 1 3 31.1018 -942 0 0 0 0 0
513 1 3 31.1018 -939 0 0 0 0 0
514 1 3 31.1018 -936 0 0 0 0 0
515 1 3 31.1018 -933 0 0 0 0 0
516 1 3 31.1018 -930 0 0 0 0 0
517 1 3 31.1018 -927 0 0 0 0 0
518 1 3 31.1018 -924 0 0 0 0 0
519 1 3 31.1018 -921 0 0 0 0 0
520 1 3 31.1018 -918 0 0 0 0 0
521 1 3 31.1018 -915 0 0 0 0 0
522 1 3 31.1018 -912 0 0 0 0 0
523 1 3 31.1018 -909 0 0 0 0 0
524 1 3 31.1018 -906 0 0 0 0 0
525 1 3 31.1018 -903 0 0 0 0 0
526 1 3 31.1018 -900 0 0 0 0 0
527 1 3 31.1018 -897 0 0 0 0 0