ITEM: TIMESTEP
3200000
ITEM: NUMBER OF ATOMS
1001
ITEM: BOX BOUNDS pp pp pp
-9.0000000000000000e+02 9.0000000000000000e+02
-1.0000000000000000e+02 1.0000000000000000e+02
-1.0000000000000000e+02 1.0000000000000000e+02
ITEM: ATOMS id type diameter mass xu yu zu fx fy fz
1 1 3 31.1018 -900 0 0 0 0 0
2 1 3 31.1018 -897 0 0 0 0 0
3 1 3 31.1018 -894 0 0 0 0 0
4 1 3 31.1018 -891 0 0 0 0 0
5 1 3 31.1018 -888 0 0 0 0 0
6 1 3 31.1018 -885 0 0 0 0 0
7 1 3 31.1018 -882 0 0 0 0 0
8 1 3 31.1018 -879 0 0 0 0 0
9 1 3 31.1018 -876 0 0 0 0 0
10 1 3 31.1018 -873 0 0 0 0 0
11 1 3 31.1018 -870 0 0 0 0 0
12 1 3 31.1018 -867 0 0 0 0 0
13 1 3 31.1018 -864 0 0 0 0 0
14 1 3 31.1018 -861 0 0 0 0 0
15 1 3 31.1018 -858 0 0 0 0 0
16 1 3 31.1018 -855 0 0 0 0 0
17 1 3 31.1018 -852 0 0 0 0 0
18 1 3 31.1018 -849 0 0 0 0 0
19 1 3 31.1018 -846 0 0 0 0 0
20 1 3 31.1018 -843 0 0 0 0 0
21 1 3 31.1018 -840 0 0 0 0 0
22 1 3 31.1018 -837 0 0 0 0 0
23 1 3 31.1018 -834 0 0 0 0 0
24 1 3 31.1018 -831 0 0 0 0 0
25 1 3 31.1018 -828 0 0 0 0 0
26 1 3 31.1018 -825 0 0 0 0 0
27 1 3 31.1018 -822 0 0 0 0 0
28 1 3 31.1018 -819 0 0 0 0 0
29 1 3 31.1018 -816 0 0 0 0 0
30 1 3 31.1018 -813 0 0 0 0 0
31 1 3 31.1018 -810 0 0 0 0 0
32 1 3 31.1018 -807 0 0 0 0 0
33 1 3 31.1018 -804 0 0 0 0 0
34 1 3 31.1018 -801 0 0 0 0 0
35 1 3 31.1018 -798 0 0 0 0 0
36 1 3 31.1018 -795 0 0 0 0 0
37 1 3 31.1018 -792 0 0 0 0 0
38 1 3 31.1018 -789 0 0 0 0 0
39 1 3 31.1018 -786 0 0 0 0 0
40 1 3 31.1018 -783 0 0 0 0 0
41 1 3 31.1018 -780 0 0 0 0 0
42 1 3 31.1018 -777 0 0 0 0 0
43 1 3 31.1018 -774 0 0 0 0 0
44 1 3 31.1018 -771 0 0 0 0 0
45 1 3 31.1018 -768 0 0 0 0 0
46 1 3 31.1018 -765 0 0 0 0 0
47 1 3 31.1018 -762 0 0 0 0 0
48 1 3 31.1018 -759 0 0 0 0 0
49 1 3 31.1018 -756 0 0 0 0 0
50 1 3 31.1018 -753 0 0 0 0 0
51 1 3 31.1018 -750 0 0 0 0 0
52 1 3 31.1018 -747 0 0 0 0 0
53 1 3 31.1018 -744 0 0 0 0 0
54 1 3 31.1018 -741 0 0 0 0 0
55 1 3 31.1018 -738 0 0 0 0 0
56 1 3 31.1018 -735 0 0 0 0 0
57 1 3 31.1018 -732 0 0 0 0 0
58 1 3 31.1018 -729 0 0 0 0 0
59 1 3 31.1018 -726 0 0 0 0 0
60 1 3 31.1018 -723 0 0 0 0 0
61 1 3 31.1018 -720 0 0 0 0 0
62 1 3 31.1018 -717 0 0 0 0 0
63 1 3 31.1018 -714 0 0 0 0 0
64 1 3 31.1018 -711 0 0 0 0 0
65 1 3 31.1018 -708 0 0 0 0 0
66 1 3 31.1018 -705 0 0 0 0 0
67 1 3 31.1018 -702 0 0 0 0 0
68 1 3 31.1018 -699 0 0 0 0 0
69 1 3 31.1018 -696 0 0 0 0 0
70 1 3 31.1018 -693 0 0 0 0 0
71 1 3 31.1018 -690 0 0 0 0 0
72 1 3 31.1018 -687 0 0 0 0 0
73 1 3 31.1018 -684 0 0 0 0 0
74 1 3 31.1018 -681 0 0 0 0 0
75 1 3 31.1018 -678 0 0 0 0 0
76 1 3 31.1018 -675 0 0 0 0 0
77 1 3 31.1018 -672 0 0 0 0 0
78 1 3 31.1018 -669 0 0 0 0 0
79 1 3 31.1018 -666 0 0 0 0 0
80 1 3 31.1018 -663 0 0 0 0 0
81 1 3 31.1018 -660 0 0 0 0 0
82 1 3 31.1018 -657 0 0 0 0 0
83 1 3 31.1018 -654 0 0 0 0 0
84 1 3 31.1018 -651 0 0 0 0 0
85 1 3 31.1018 -648 0 0 0 0 0
86 1 3 31.1018 -645 0 0 0 0 0
87 1 3 31.1018 -642 0 0 0 0 0
88 1 3 31.1018 -639 0 0 0 0 0
89 1 3 31.1018 -636 0 0 0 0 0
90 1 3 31.1018 -633 0 0 0 0 0
91 1 3 31.1018 -630 0 0 0 0 0
92 1 3 31.1018 -627 0 0 0 0 0
93 1 3 31.1018 -624 0 0 0 0 0
94 1 3 31.1018 -621 0 0 0 0 0
95 1 3 31.1018 -618 0 0 0 0 0
96 1 3 31.1018 -615 0 0 0 0 0
97 1 3 31.1018 -612 0 0 0 0 0
98 1 3 31.1018 -609 0 0 0 0 0
99 1 3 31.1018 -606 0 0 0 0 0
100 1 3 31.1018 -603 0 0 0 0 0
101 1 3 31.1018 -600 0 0 0 0 0
102 1 3 31.1018 -597 0 0 0 0 0
103 1 3 31.1018 -594 0 0 0 0 0
104 1 3 31.1018 -591 0 0 0 0 0
105 1 3 31.1018 -588 0 0 0 0 0
106 1 3 31.1018 -585 0 0 0 0 0
107 1 3 31.1018 -582 0 0 0 0 0
108 1 3 31.1018 -579 0 0 0 0 0
109 1 3 31.1018 -576 0 0 0 0 0
110 1 3 31.1018 -573 0 0 0 0 0
111 1 3 31.1018 -570 0 0 0 0 0
112 1 3 31.1018 -567 0 0 0 0 0
113 1 3 31.1018 -564 0 0 0 0 0
114 1 3 31.1018 -561 0 0 0 0 0
115 1 3 31.1018 -558 0 0 0 0 0
116 1 3 31.1018 -555 0 0 0 0 0
117 1 3 31.1018 -552 0 0 0 0 0
118 1 3 31.1018 -549 0 0 0 0 0
119 1 3 31.1018 -546 0 0 0 0 0
120 1 3 31.1018 -543 0 0 0 0 0
121 1 3 31.1018 -540 0 0 0 0 0
122 1 3 31.1018 -537 0 0 0 0 0
123 1 3 31.1018 -534 0 0 0 0 0
124 1 3 31.1018 -531 0 0 0 0 0
125 1 3 31.1018 -528 0 0 0 0 0
126 1 3 31.1018 -525 0 0 0 0 0
127 1 3 31.1018 -522 0 0 0 0 0
128 1 3 31.1018 -519 0 0 0 0 0
129 1 3 31.1018 -516 0 0 0 0 0
130 1 3 31.1018 -513 0 0 0 0 0
131 1 3 31.1018 -510 0 0 0 0 0
132 1 3 31.1018 -507 0 0 0 0 0
133 1 3 31.1018 -504 0 0 0 0 0
134 1 3 31.1018 -501 0 0 0 0 0
135 1 3 31.1018 -498 0 0 0 0 0
136 1 3 31.1018 -495 0 0 0 0 0
137 1 3 31.1018 -492 0 0 0 0 0
138 1 3 31.1018 -489 0 0 0 0 0
139 1 3 31.1018 -486 0 0 0 0 0
140 1 3 31.1018 -483 0 0 0 0 0
141 1 3 31.1018 -480 0 0 0 0 0
142 1 3 31.1018 -477 0 0 0 0 0
143 1 3 31.1018 -474 0 0 0 0 0
144 1 3 31.1018 -471 0 0 0 0 0
145 1 3 31.1018 -468 0 0 0 0 0
146 1 3 31.1018 -465 0 0 0 0 0
147 1 3 31.1018 -462 0 0 0 0 0
148 1 3 31.1018 -459 0 0 0 0 0
149 1 3 31.1018 -456 0 0 0 0 0
150 1 3 31.1018 -453 0 0 0 0 0
601 2 3 31.1018 -604.500101011558286 2.65824e-19 2.59757441898341668 -0.972925 0 0.795136
602 2 3 31.1018 -601.500101011558172 2.64495e-19 2.59757441880481421 -0.972245 0 0.796414
603 2 3 31.1018 -598.500101011558172 2.63165e-19 2.59757441862621175 -0.971565 0 0.797693
604 2 3 31.1018 -595.500101011558058 2.61836e-19 2.59757441844760928 -0.970885 0 0.798971
605 2 3 31.1018 -592.500101011557945 2.60507e-19 2.59757441826900681 -0.970205 0 0.800249
606 2 3 31.1018 -589.500101011557945 2.59178e-19 2.59757441809040435 -0.969525 0 0.801527
607 2 3 31.1018 -586.500101011557831 2.57849e-19 2.59757441791180188 -0.968845 0 0.802805
608 2 3 31.1018 -583.500101011557831 2.5652e-19 2.59757441773319941 -0.968165 0 0.804083
609 2 3 31.1018 -580.500101011557717 2.55191e-19 2.59757441755459695 -0.968913 0 0.804537
610 2 3 31.1018 -577.500101011557604 2.53862e-19 2.59757441737599448 -0.970192 0 0.804683
611 2 3 31.1018 -574.500101011557604 2.52532e-19 2.59757441719739202 -0.971471 0 0.80483
612 2 3 31.1018 -571.50010101155749 2.51203e-19 2.59757441701878955 -0.97275 0 0.804977
613 2 3 31.1018 -568.50010101155749 2.49874e-19 2.59757441684018708 -0.974029 0 0.805124
614 2 3 31.1018 -565.500101011557376 2.48545e-19 2.59757441666158462 -0.975308 0 0.80527
615 2 3 31.1018 -562.500101011557263 2.47216e-19 2.59757441648298215 -0.976588 0 0.805417
616 2 3 31.1018 -559.500101011557263 2.45887e-19 2.59757441630437969 -0.977867 0 0.805564
617 2 3 31.1018 -556.500101011557149 2.44558e-19 2.59757441612577722 -0.979146 0 0.805711
618 2 3 31.1018 -553.500101011557149 2.43229e-19 2.59757441594717475 -0.980425 0 0.805857
619 2 3 31.1018 -550.500101011557035 2.419e-19 2.59757441576857229 -0.981704 0 0.806004
620 2 3 31.1018 -547.500101011556922 2.4057e-19 2.59757441558996982 -0.982983 0 0.806151
621 2 3 31.1018 -544.500101011556922 2.39241e-19 2.59757441541136735 -0.984262 0 0.806298
622 2 3 31.1018 -541.500101011556808 2.37912e-19 2.59757441523276489 -0.985541 0 0.806444
623 2 3 31.1018 -538.500101011556694 2.36583e-19 2.59757441505416242 -0.98682 0 0.806591
624 2 3 31.1018 -535.500101011556694 2.35254e-19 2.59757441487555996 -0.988099 0 0.806738
625 2 3 31.1018 -532.50010101155658 2.33925e-19 2.59757441469695749 -0.989378 0 0.806885
626 2 3 31.1018 -529.50010101155658 2.32596e-19 2.59757441451835502 -0.990657 0 0.807031
627 2 3 31.1018 -526.500101011556467 2.31267e-19 2.59757441433975256 -0.991937 0 0.807178
628 2 3 31.1018 -523.500101011556353 2.29937e-19 2.59757441416115009 -0.993216 0 0.807325
629 2 3 31.1018 -520.500101011556353 2.28608e-19 2.59757441398254763 -0.994495 0 0.807471
630 2 3 31.1018 -517.500101011556239 2.27279e-19 2.59757441380394516 -0.995774 0 0.807618
631 2 3 31.1018 -514.500101011556126 2.2595e-19 2.59757441362534269 -0.997053 0 0.807765
632 2 3 31.1018 -511.500101011556069 2.24621e-19 2.59757441344674023 -0.998332 0 0.807912
633 2 3 31.1018 -508.500101011556012 2.23292e-19 2.59757441326813776 -0.999611 0 0.808058
634 2 3 31.1018 -505.500101011555955 2.21963e-19 2.59757441308953529 -1.00089 0 0.808205
635 2 3 31.1018 -502.500101011555842 2.20634e-19 2.59757441291093283 -1.00217 0 0.808352
636 2 3 31.1018 -499.500101011555785 2.19304e-19 2.59757441273233036 -1.00345 0 0.808499
637 2 3 31.1018 -496.500101011555728 2.17975e-19 2.5975744125537279 -1.00473 0 0.808645
638 2 3 31.1018 -493.500101011555671 2.16646e-19 2.59757441237512543 -1.00601 0 0.808792
639 2 3 31.1018 -490.500101011555557 2.15317e-19 2.59757441219652296 -1.00729 0 0.808939
640 2 3 31.1018 -487.5001010115555 2.13988e-19 2.5975744120179205 -1.00856 0 0.809086
641 2 3 31.1018 -484.500101011555444 2.12659e-19 2.59757441183931803 -1.00984 0 0.809232
642 2 3 31.1018 -481.500101011555387 2.1133e-19 2.59757441166071557 -1.01112 0 0.809379
643 2 3 31.1018 -478.50010101155533 2.10001e-19 2.5975744114821131 -1.0124 0 0.809526
644 2 3 31.1018 -475.500101011555216 2.08672e-19 2.59757441130351063 -1.01368 0 0.809673
645 2 3 31.1018 -472.500101011555159 2.07342e-19 2.59757441112490817 -1.01496 0 0.809819
646 2 3 31.1018 -469.500101011555103 2.06013e-19 2.5975744109463057 -1.01624 0 0.809966
647 2 3 31.1018 -466.500101011555046 2.04684e-19 2.59757441076770323 -1.01752 0 0.810113
648 2 3 31.1018 -463.500101011554932 2.03355e-19 2.59757441058910077 -1.0188 0 0.81026
649 2 3 31.1018 -460.500101011554875 2.02026e-19 2.5975744104104983 -1.02008 0 0.810406
650 2 3 31.1018 -457.500101011554818 2.00697e-19 2.59757441023189584 -1.02136 0 0.810553
651 2 3 31.1018 -454.500101011554761 1.99368e-19 2.59757441005329337 -1.02263 0 0.8107
652 2 3 31.1018 -451.500101011554705 1.98039e-19 2.5975744098746909 -1.02391 0 0.810847
151 1 3 31.1018 -450 0 0 0 0 0
152 1 3 31.1018 -447 0 0 0 0 0
153 1 3 31.1018 -444 0 0 0 0 0
154 1 3 31.1018 -441 0 0 0 0 0
155 1 3 31.1018 -438 0 0 0 0 0
156 1 3 31.1018 -435 0 0 0 0 0
157 1 3 31.1018 -432 0 0 0 0 0
158 1 3 31.1018 -429 0 0 0 0 0
159 1 3 31.1018 -426 0 0 0 0 0
160 1 3 31.1018 -423 0 0 0 0 0
161 1 3 31.1018 -420 0 0 0 0 0
162 1 3 31.1018 -417 0 0 0 0 0
163 1 3 31.1018 -414 0 0 0 0 0
164 1 3 31.1018 -411 0 0 0 0 0
165 1 3 31.1018 -408 0 0 0 0 0
166 1 3 31.1018 -405 0 0 0 0 0
167 1 3 31.1018 -402 0 0 0 0 0
168 1 3 31.1018 -399 0 0 0 0 0
169 1 3 31.1018 -396 0 0 0 0 0
170 1 3 31.1018 -393 0 0 0 0 0
171 1 3 31.1018 -390 0 0 0 0 0
172 1 3 31.1018 -387 0 0 0 0 0
173 1 3 31.1018 -384 0 0 0 0 0
174 1 3 31.1018 -381 0 0 0 0 0
175 1 3 31.1018 -378 0 0 0 0 0
176 1 3 31.1018 -375 0 0 0 0 0
177 1 3 31.1018 -372 0 0 0 0 0
178 1 3 31.1018 -369 0 0 0 0 0
179 1 3 31.1018 -366 0 0 0 0 0
180 1 3 31.1018 -363 0 0 0 0 0
181 1 3 31.1018 -360 0 0 0 0 0
182 1 3 31.1018 -357 0 0 0 0 0
183 1 3 31.1018 -354 0 0 0 0 0
184 1 3 31.1018 -351 0 0 0 0 0
185 1 3 31.1018 -348 0 0 0 0 0
186 1 3 31.1018 -345 0 0 0 0 0
187 1 3 31.1018 -342 0 0 0 0 0
188 1 3 31.1018 -339 0 0 0 0 0
189 1 3 31.1018 -336 0 0 0 0 0
190 1 3 31.1018 -333 0 0 0 0 0
191 1 3 31.1018 -330 0 0 0 0 0
192 1 3 31.1018 -327 0 0 0 0 0
193 1 3 31.1018 -324 0 0 0 0 0
194 1 3 31.1018 -321 0 0 0 0 0
195 1 3 31.1018 -318 0 0 0 0 0
196 1 3 31.1018 -315 0 0 0 0 0
197 1 3 31.1018 -312 0 0 0 0 0
198 1 3 31.1018 -309 0 0 0 0 0
199 1 3 31.1018 -306 0 0 0 0 0
200 1 3 31.1018 -303 0 0 0 0 0
201 1 3 31.1018 -300 0 0 0 0 0
202 1 3 31.1018 -297 0 0 0 0 0
203 1 3 31.1018 -294 0 0 0 0 0
204 1 3 31.1018 -291 0 0 0 0 0
205 1 3 31.1018 -288 0 0 0 0 0
206 1 3 31.1018 -285 0 0 0 0 0
207 1 3 31.1018 -282 0 0 0 0 0
208 1 3 31.1018 -279 0 0 0 0 0
209 1 3 31.1018 -276 0 0 0 0 0
210 1 3 31.1018 -273 0 0 0 0 0
211 1 3 31.1018 -270 0 0 0 0 0
212 1 3 31.1018 -267 0 0 0 0 0
213 1 3 31.1018 -264 0 0 0 0 0
214 1 3 31.1018 -261 0 0 0 0 0
215 1 3 31.1018 -258 0 0 0 0 0
216 1 3 31.1018 -255 0 0 0 0 0
217 1 3 31.1018 -252 0 0 0 0 0
218 1 3 31.1018 -249 0 0 0 0 0
219 1 3 31.1018 -246 0 0 0 0 0
220 1 3 31.1018 -243 0 0 0 0 0
221 1 3 31.1018 -240 0 0 0 0 0
222 1 3 31.1018 -237 0 0 0 0 0
223 1 3 31.1018 -234 0 0 0 0 0
224 1 3 31.1018 -231 0 0 0 0 0
225 1 3 31.1018 -228 0 0 0 0 0
226 1 3 31.1018 -225 0 0 0 0 0
227 1 3 31.1018 -222 0 0 0 0 0
228 1 3 31.1018 -219 0 0 0 0 0
229 1 3 31.1018 -216 0 0 0 0 0
230 1 3 31.1018 -213 0 0 0 0 0
231 1 3 31.1018 -210 0 0 0 0 0
232 1 3 31.1018 -207 0 0 0 0 0
233 1 3 31.1018 -204 0 0 0 0 0
234 1 3 31.1018 -201 0 0 0 0 0
235 1 3 31.1018 -198 0 0 0 0 0
236 1 3 31.1018 -195 0 0 0 0 0
237 1 3 31.1018 -192 0 0 0 0 0
238 1 3 31.1018 -189 0 0 0 0 0
239 1 3 31.1018 -186 0 0 0 0 0
240 1 3 31.1018 -183 0 0 0 0 0
241 1 3 31.1018 -180 0 0 0 0 0
242 1 3 31.1018 -177 0 0 0 0 0
243 1 3 31.1018 -174 0 0 0 0 0
244 1 3 31.1018 -171 0 0 0 0 0
245 1 3 31.1018 -168 0 0 0 0 0
246 1 3 31.1018 -165 0 0 0 0 0
247 1 3 31.1018 -162 0 0 0 0 0
248 1 3 31.1018 -159 0 0 0 0 0
249 1 3 31.1018 -156 0 0 0 0 0
250 1 3 31.1018 -153 0 0 0 0 0
251 1 3 31.1018 -150 0 0 0 0 0
252 1 3 31.1018 -147 0 0 0 0 0
253 1 3 31.1018 -144 0 0 0 0 0
254 1 3 31.1018 -141 0 0 0 0 0
255 1 3 31.1018 -138 0 0 0 0 0
256 1 3 31.1018 -135 0 0 0 0 0
257 1 3 31.1018 -132 0 0 0 0 0
258 1 3 31.1018 -129 0 0 0 0 0
259 1 3 31.1018 -126 0 0 0 0 0
260 1 3 31.1018 -123 0 0 0 0 0
261 1 3 31.1018 -120 0 0 0 0 0
262 1 3 31.1018 -117 0 0 0 0 0
263 1 3 31.1018 -114 0 0 0 0 0
264 1 3 31.1018 -111 0 0 0 0 0
265 1 3 31.1018 -108 0 0 0 0 0
266 1 3 31.1018 -105 0 0 0 0 0
267 1 3 31.1018 -102 0 0 0 0 0
268 1 3 31.1018 -99 0 0 0 0 0
269 1 3 31.1018 -96 0 0 0 0 0
270 1 3 31.1018 -93 0 0 0 0 0
271 1 3 31.1018 -90 0 0 0 0 0
272 1 3 31.1018 -87 0 0 0 0 0
273 1 3 31.1018 -84 0 0 0 0 0
274 1 3 31.1018 -81 0 0 0 0 0
275 1 3 31.1018 -78 0 0 0 0 0
276 1 3 31.1018 -75 0 0 0 0 0
277 1 3 31.1018 -72 0 0 0 0 0
278 1 3 31.1018 -69 0 0 0 0 0
279 1 3 31.1018 -66 0 0 0 0 0
280 1 3 31.1018 -63 0 0 0 0 0
281 1 3 31.1018 -60 0 0 0 0 0
282 1 3 31.1018 -57 0 0 0 0 0
283 1 3 31.1018 -54 0 0 0 0 0
284 1 3 31.1018 -51 0 0 0 0 0
285 1 3 31.1018 -48 0 0 0 0 0
286 1 3 31.1018 -45 0 0 0 0 0
287 1 3 31.1018 -42 0 0 0 0 0
288 1 3 31.1018 -39 0 0 0 0 0
289 1 3 31.1018 -36 0 0 0 0 0
290 1 3 31.1018 -33 0 0 0 0 0
291 1 3 31.1018 -30 0 0 0 0 0
292 1 3 31.1018 -27 0 0 0 0 0
293 1 3 31.1018 -24 0 0 0 0 0
294 1 3 31.1018 -21 0 0 0 0 0
295 1 3 31.1018 -18 0 0 0 0 0
296 1 3 31.1018 -15 0 0 0 0 0
297 1 3 31.1018 -12 0 0 0 0 0
298 1 3 31.1018 -9 0 0 0 0 0
299 1 3 31.1018 -6 0 0 0 0 0
300 1 3 31.1018 -3 0 0 0 0 0
653 2 3 31.1018 -448.500101011554591 1.96709e-19 2.59757440969608844 -1.02519 0 0.810993
654 2 3 31.1018 -445.500101011554534 1.9538e-19 2.59757440951748597 -1.02647 0 0.81114
655 2 3 31.1018 -442.500101011554477 1.94051e-19 2.59757440933888351 -1.02775 0 0.811287
656 2 3 31.1018 -439.50010101155442 1.92722e-19 2.59757440916028104 -1.02903 0 0.811434
657 2 3 31.1018 -436.500101011554364 1.91393e-19 2.59757440898167857 -1.03031 0 0.81158
658 2 3 31.1018 -433.50010101155425 1.90064e-19 2.59757440880307611 -1.03159 0 0.811727
659 2 3 31.1018 -430.500101011554193 1.88735e-19 2.59757440862447364 -1.03287 0 0.811874
660 2 3 31.1018 -427.500101011554136 1.87406e-19 2.59757440844587117 -1.03415 0 0.812021
661 2 3 31.1018 -424.500101011554079 1.86077e-19 2.59757440826726871 -1.03543 0 0.812167
662 2 3 31.1018 -421.500101011553966 1.84747e-19 2.59757440808866624 -1.03671 0 0.812314
663 2 3 31.1018 -418.500101011553909 1.83418e-19 2.59757440791006378 -1.03798 0 0.812461
664 2 3 31.1018 -415.500101011553852 1.82089e-19 2.59757440773146131 -1.03926 0 0.812607
665 2 3 31.1018 -412.500101011553795 1.8076e-19 2.59757440755285884 -1.04054 0 0.812754
666 2 3 31.1018 -409.500101011553738 1.79431e-19 2.59757440737425638 -1.04182 0 0.812901
667 2 3 31.1018 -406.500101011553625 1.78102e-19 2.59757440719565391 -1.0431 0 0.813048
668 2 3 31.1018 -403.500101011553568 1.76773e-19 2.59757440701705145 -1.04438 0 0.813194
669 2 3 31.1018 -400.500101011553511 1.75444e-19 2.59757440683844898 -1.04566 0 0.813341
670 2 3 31.1018 -397.500101011553454 1.74114e-19 2.59757440665984651 -1.04694 0 0.813488
671 2 3 31.1018 -394.50010101155334 1.72785e-19 2.59757440648124405 -1.04822 0 0.813635
672 2 3 31.1018 -391.500101011553284 1.71456e-19 2.59757440630264158 -1.0495 0 0.813781
673 2 3 31.1018 -388.500101011553227 1.70127e-19 2.59757440612403911 -1.05078 0 0.813928
674 2 3 31.1018 -385.50010101155317 1.68798e-19 2.59757440594543665 -1.05206 0 0.814076
675 2 3 31.1018 -382.500101011553113 1.67469e-19 2.59757440576683418 -1.05334 0 0.814223
676 2 3 31.1018 -379.500101011552999 1.6614e-19 2.59757440558823172 -1.05462 0 0.81437
677 2 3 31.1018 -376.500101011552943 1.64811e-19 2.59757440540962925 -1.05589 0 0.814517
678 2 3 31.1018 -373.500101011552886 1.63482e-19 2.59757440523102678 -1.05717 0 0.814664
679 2 3 31.1018 -370.500101011552829 1.62152e-19 2.59757440505242432 -1.05845 0 0.814811
680 2 3 31.1018 -367.500101011552715 1.60823e-19 2.59757440487382185 -1.05973 0 0.814958
681 2 3 31.1018 -364.500101011552658 1.59494e-19 2.59757440469521939 -1.06101 0 0.815105
682 2 3 31.1018 -361.500101011552601 1.58165e-19 2.59757440451661692 -1.06229 0 0.815252
683 2 3 31.1018 -358.500101011552545 1.56836e-19 2.59757440433801445 -1.06357 0 0.815399
684 2 3 31.1018 -355.500101011552488 1.55507e-19 2.59757440415941199 -1.06485 0 0.815546
685 2 3 31.1018 -352.500101011552374 1.54178e-19 2.59757440398080952 -1.06613 0 0.815693
686 2 3 31.1018 -349.500101011552317 1.52849e-19 2.59757440380220705 -1.06741 0 0.81584
687 2 3 31.1018 -346.50010101155226 1.51519e-19 2.59757440362360459 -1.06869 0 0.815987
688 2 3 31.1018 -343.500101011552204 1.5019e-19 2.59757440344500212 -1.06997 0 0.816134
689 2 3 31.1018 -340.500101011552147 1.48861e-19 2.59757440326639966 -1.07125 0 0.816282
690 2 3 31.1018 -337.500101011552033 1.47532e-19 2.59757440308779719 -1.07253 0 0.816429
691 2 3 31.1018 -334.500101011551976 1.46203e-19 2.59757440290919472 -1.07381 0 0.816576
692 2 3 31.1018 -331.500101011551919 1.44874e-19 2.59757440273059226 -1.07509 0 0.816723
693 2 3 31.1018 -328.500101011551862 1.43545e-19 2.59757440255198979 -1.07637 0 0.81687
694 2 3 31.1018 -325.500101011551749 1.42216e-19 2.59757440237338733 -1.07765 0 0.817017
695 2 3 31.1018 -322.500101011551692 1.40887e-19 2.59757440219478486 -1.07893 0 0.817164
696 2 3 31.1018 -319.500101011551635 1.39557e-19 2.59757440201618239 -1.08021 0 0.817311
697 2 3 31.1018 -316.500101011551578 1.38228e-19 2.59757440183757993 -1.08149 0 0.817458
698 2 3 31.1018 -313.500101011551521 1.36899e-19 2.59757440165897746 -1.08277 0 0.817605
699 2 3 31.1018 -310.500101011551408 1.3557e-19 2.59757440148037499 -1.08405 0 0.817752
700 2 3 31.1018 -307.500101011551351 1.34241e-19 2.59757440130177253 -1.08533 0 0.817899
701 2 3 31.1018 -304.500101011551294 1.32912e-19 2.59757440112317006 -1.08661 0 0.818046
702 2 3 31.1018 -301.500101011551237 1.31583e-19 2.5975744009445676 -1.08789 0 0.818193
703 2 3 31.1018 -298.500101011551124 1.30254e-19 2.59757440076596513 -1.08917 0 0.81834
704 2 3 31.1018 -295.500101011551067 1.28924e-19 2.59757440058736266 -1.09045 0 0.818487
705 2 3 31.1018 -292.50010101155101 1.27595e-19 2.5975744004087602 -1.09173 0 0.818635
706 2 3 31.1018 -289.500101011550953 1.26266e-19 2.59757440023015773 -1.09301 0 0.818782
707 2 3 31.1018 -286.500101011550896 1.24937e-19 2.59757440005155527 -1.09429 0 0.818929
708 2 3 31.1018 -283.500101011550782 1.23608e-19 2.5975743998729528 -1.09556 0 0.819076
709 2 3 31.1018 -280.500101011550726 1.22279e-19 2.59757439969435033 -1.09684 0 0.819223
710 2 3 31.1018 -277.500101011550669 1.2095e-19 2.59757439951574787 -1.09812 0 0.81937
711 2 3 31.1018 -274.500101011550612 1.19621e-19 2.5975743993371454 -1.0994 0 0.819517
712 2 3 31.1018 -271.500101011550498 1.18292e-19 2.59757439915854293 -1.10068 0 0.819664
713 2 3 31.1018 -268.500101011550441 1.16962e-19 2.59757439897994047 -1.10196 0 0.819811
714 2 3 31.1018 -265.500101011550385 1.15633e-19 2.597574398801338 -1.10324 0 0.819958
715 2 3 31.1018 -262.500101011550328 1.14304e-19 2.59757439862273554 -1.10452 0 0.820105
716 2 3 31.1018 -259.500101011550271 1.12975e-19 2.59757439844413307 -1.1058 0 0.820252
717 2 3 31.1018 -256.500101011550214 1.11646e-19 2.5975743982655306 -1.10708 0 0.820399
718 2 3 31.1018 -253.500101011550129 1.10317e-19 2.59757439808692814 -1.10836 0 0.820546
719 2 3 31.1018 -250.500101011550072 1.08988e-19 2.59757439790832567 -1.10964 0 0.820693
720 2 3 31.1018 -247.500101011549987 1.07659e-19 2.59757439772972321 -1.11092 0 0.82084
721 2 3 31.1018 -244.50010101154993 1.06329e-19 2.59757439755112074 -1.1122 0 0.820988
722 2 3 31.1018 -241.500101011549873 1.05e-19 2.59757439737251827 -1.11348 0 0.821135
723 2 3 31.1018 -238.500101011549788 1.03671e-19 2.59757439719391581 -1.11476 0 0.821282
724 2 3 31.1018 -235.500101011549731 1.02342e-19 2.59757439701531334 -1.11604 0 0.821429
725 2 3 31.1018 -232.500101011549646 1.01013e-19 2.59757439683671087 -1.11732 0 0.821576
726 2 3 31.1018 -229.500101011549589 9.96839e-20 2.59757439665810841 -1.1186 0 0.821723
727 2 3 31.1018 -226.500101011549503 9.83547e-20 2.59757439647950594 -1.11988 0 0.82187
728 2 3 31.1018 -223.500101011549447 9.70256e-20 2.59757439630090348 -1.12116 0 0.822017
729 2 3 31.1018 -220.50010101154939 9.56965e-20 2.59757439612230101 -1.12244 0 0.822164
730 2 3 31.1018 -217.500101011549305 9.43674e-20 2.59757439594369854 -1.12372 0 0.822311
731 2 3 31.1018 -214.500101011549248 9.30383e-20 2.59757439576509608 -1.125 0 0.822458
732 2 3 31.1018 -211.500101011549162 9.17092e-20 2.59757439558649361 -1.12628 0 0.822605
733 2 3 31.1018 -208.500101011549106 9.038e-20 2.59757439540789115 -1.12756 0 0.822752
734 2 3 31.1018 -205.50010101154902 8.90509e-20 2.59757439522928868 -1.12884 0 0.822899
735 2 3 31.1018 -202.500101011548963 8.77218e-20 2.59757439505068621 -1.13012 0 0.823046
736 2 3 31.1018 -199.500101011548878 8.63927e-20 2.59757439487208375 -1.1314 0 0.823193
737 2 3 31.1018 -196.500101011548821 8.50636e-20 2.59757439469348128 -1.13268 0 0.823341
738 2 3 31.1018 -193.500101011548765 8.37344e-20 2.59757439451487881 -1.13396 0 0.823488
739 2 3 31.1018 -190.500101011548679 8.24053e-20 2.59757439433627635 -1.13524 0 0.823635
740 2 3 31.1018 -187.500101011548622 8.10762e-20 2.59757439415767388 -1.13652 0 0.823782
741 2 3 31.1018 -184.500101011548537 7.97471e-20 2.59757439397907142 -1.1378 0 0.823929
742 2 3 31.1018 -181.50010101154848 7.8418e-20 2.59757439380046895 -1.13907 0 0.824076
743 2 3 31.1018 -178.500101011548395 7.70889e-20 2.59757439362186648 -1.14035 0 0.824223
744 2 3 31.1018 -175.500101011548338 7.57597e-20 2.59757439344326402 -1.14163 0 0.82437
745 2 3 31.1018 -172.500101011548281 7.44306e-20 2.59757439326466155 -1.14291 0 0.824517
746 2 3 31.1018 -169.500101011548196 7.31015e-20 2.59757439308605909 -1.14419 0 0.824664
747 2 3 31.1018 -166.500101011548139 7.17724e-20 2.59757439290745662 -1.14547 0 0.824811
748 2 3 31.1018 -163.500101011548054 7.04433e-20 2.59757439272885415 -1.14675 0 0.824958
749 2 3 31.1018 -160.500101011547997 6.91141e-20 2.59757439255025169 -1.14803 0 0.825105
750 2 3 31.1018 -157.500101011547912 6.7785e-20 2.59757439237164922 -1.14931 0 0.825252
751 2 3 31.1018 -154.500101011547855 6.64559e-20 2.59757439219304676 -1.15059 0 0.825399
752 2 3 31.1018 -151.50010101154777 6.51268e-20 2.59757439201444429 -1.15187 0 0.825546
753 2 3 31.1018 -148.500101011547713 6.37977e-20 2.59757439183584182 -1.15315 0 0.825694
754 2 3 31.1018 -145.500101011547656 6.24686e-20 2.59757439165723936 -1.15443 0 0.825841
755 2 3 31.1018 -142.500101011547571 6.11394e-20 2.59757439147863689 -1.15571 0 0.825988
756 2 3 31.1018 -139.500101011547514 5.98103e-20 2.59757439130003442 -1.15699 0 0.826135
757 2 3 31.1018 -136.500101011547429 5.84812e-20 2.59757439112143196 -1.15827 0 0.826282
758 2 3 31.1018 -133.500101011547372 5.71521e-20 2.59757439094282949 -1.15955 0 0.826429
759 2 3 31.1018 -130.500101011547315 5.5823e-20 2.59757439076422703 -1.16083 0 0.826576
760 2 3 31.1018 -127.50010101154723 5.44938e-20 2.59757439058562456 -1.16211 0 0.826723
761 2 3 31.1018 -124.500101011547159 5.31647e-20 2.59757439040702209 -1.16339 0 0.82687
762 2 3 31.1018 -121.500101011547088 5.18356e-20 2.59757439022841963 -1.16467 0 0.827017
763 2 3 31.1018 -118.500101011547017 5.05065e-20 2.59757439004981716 -1.16595 0 0.827164
764 2 3 31.1018 -115.500101011546946 4.91774e-20 2.5975743898712147 -1.16723 0 0.827311
765 2 3 31.1018 -112.500101011546889 4.78483e-20 2.59757438969261223 -1.16851 0 0.827458
766 2 3 31.1018 -109.500101011546818 4.65191e-20 2.59757438951400976 -1.16979 0 0.827605
767 2 3 31.1018 -106.500101011546747 4.519e-20 2.5975743893354073 -1.17107 0 0.827752
768 2 3 31.1018 -103.500101011546676 4.38609e-20 2.59757438915680483 -1.17235 0 0.827899
769 2 3 31.1018 -100.500101011546604 4.25318e-20 2.59757438897820236 -1.17363 0 0.828046
770 2 3 31.1018 -97.5001010115465334 4.12027e-20 2.5975743887995999 -1.17491 0 0.828194
771 2 3 31.1018 -94.5001010115464624 3.98735e-20 2.59757438862099743 -1.17619 0 0.828341
772 2 3 31.1018 -91.5001010115463913 3.85444e-20 2.59757438844239497 -1.17747 0 0.828488
773 2 3 31.1018 -88.5001010115463345 3.72153e-20 2.5975743882637925 -1.17875 0 0.828635
774 2 3 31.1018 -85.5001010115462634 3.58862e-20 2.59757438808519003 -1.18003 0 0.828782
775 2 3 31.1018 -82.5001010115461924 3.45571e-20 2.59757438790658757 -1.18131 0 0.828929
776 2 3 31.1018 -79.5001010115461213 3.3228e-20 2.5975743877279851 -1.18259 0 0.829076
777 2 3 31.1018 -76.5001010115460502 3.18988e-20 2.59757438754938264 -1.18387 0 0.829223
778 2 3 31.1018 -73.5001010115459792 3.05697e-20 2.59757438737078017 -1.18514 0 0.82937
779 2 3 31.1018 -70.5001010115459081 2.92406e-20 2.5975743871921777 -1.18642 0 0.829517
780 2 3 31.1018 -67.5001010115458371 2.79115e-20 2.59757438701357524 -1.1877 0 0.829664
781 2 3 31.1018 -64.500101011545766 2.65824e-20 2.59757438683497277 -1.18898 0 0.829811
782 2 3 31.1018 -61.500101011545695 2.52532e-20 2.5975743866563703 -1.19026 0 0.829958
783 2 3 31.1018 -58.500101011545631 2.39241e-20 2.59757438647776784 -1.19154 0 0.830105
784 2 3 31.1018 -55.50010101154556 2.2595e-20 2.59757438629916537 -1.19282 0 0.830252
785 2 3 31.1018 -52.5001010115454889 2.12659e-20 2.59757438612056291 -1.1941 0 0.830399
786 2 3 31.1018 -49.5001010115454179 1.99368e-20 2.59757438594196044 -1.19538 0 0.830546
787 2 3 31.1018 -46.5001010115453539 1.86077e-20 2.59757438576335797 -1.19666 0 0.830693
788 2 3 31.1018 -43.5001010115452829 1.72785e-20 2.59757438558475551 -1.19794 0 0.830841
789 2 3 31.1018 -40.5001010115452118 1.59494e-20 2.59757438540615304 -1.19922 0 0.830988
790 2 3 31.1018 -37.5001010115451408 1.46203e-20 2.59757438522755058 -1.2005 0 0.831135
791 2 3 31.1018 -34.5001010115450768 1.32912e-20 2.59757438504894811 -1.20178 0 0.831282
792 2 3 31.1018 -31.5001010115450057 1.19621e-20 2.59757438487034564 -1.20306 0 0.831429
793 2 3 31.1018 -28.5001010115449347 1.06329e-20 2.59757438469174318 -1.20434 0 0.831577
794 2 3 31.1018 -25.5001010115448707 9.30383e-21 2.59757438451314071 -1.20562 0 0.831724
795 2 3 31.1018 -22.5001010115447997 7.97471e-21 2.59757438433453824 -1.2069 0 0.831872
796 2 3 31.1018 -19.5001010115447286 6.64559e-21 2.59757438415593578 -1.20818 0 0.832019
797 2 3 31.1018 -16.5001010115446576 5.31647e-21 2.59757438397733331 -1.20946 0 0.832166
798 2 3 31.1018 -13.5001010115445901 3.98735e-21 2.59757438379873085 -1.21074 0 0.832314
799 2 3 31.1018 -10.5001010115445226 2.65824e-21 2.59757438362012838 -1.21202 0 0.832461
800 2 3 31.1018 -7.50010101154445241 1.32912e-21 2.59757438344152591 -1.2133 0 0.832609
801 2 3 31.1018 -4.50010101154438313 1.13119e-35 2.59757438326292345 -1.21459 0 0.832756
802 2 3 31.1018 -1.50010101154431386 -1.32912e-21 2.59757438308432098 -1.21587 0 0.832903
301 1 3 31.1018 0 0 0 0 0 0
302 1 3 31.1018 3 0 0 0 0 0
303 1 3 31.1018 6 0 0 0 0 0
304 1 3 31.1018 9 0 0 0 0 0
305 1 3 31.1018 12 0 0 0 0 0
306 1 3 31.1018 15 0 0 0 0 0
307 1 3 31.1018 18 0 0 0 0 0
308 1 3 31.1018 21 0 0 0 0 0
309 1 3 31.1018 24 0 0 0 0 0
310 1 3 31.1018 27 0 0 0 0 0
311 1 3 31.1018 30 0 0 0 0 0
312 1 3 31.1018 33 0 0 0 0 0
313 1 3 31.1018 36 0 0 0 0 0
314 1 3 31.1018 39 0 0 0 0 0
315 1 3 31.1018 42 0 0 0 0 0
316 1 3 31.1018 45 0 0 0 0 0
317 1 3 31.1018 48 0 0 0 0 0
318 1 3 31.1018 51 0 0 0 0 0
319 1 3 31.1018 54 0 0 0 0 0
320 1 3 31.1018 57 0 0 0 0 0
321 1 3 31.1018 60 0 0 0 0 0
322 1 3 31.1018 63 0 0 0 0 0
323 1 3 31.1018 66 0 0 0 0 0
324 1 3 31.1018 69 0 0 0 0 0
325 1 3 31.1018 72 0 0 0 0 0
326 1 3 31.1018 75 0 0 0 0 0
327 1 3 31.1018 78 0 0 0 0 0
328 1 3 31.1018 81 0 0 0 0 0
329 1 3 31.1018 84 0 0 0 0 0
330 1 3 31.1018 87 0 0 0 0 0
331 1 3 31.1018 90 0 0 0 0 0
332 1 3 31.1018 93 0 0 0 0 0
333 1 3 31.1018 96 0 0 0 0 0
334 1 3 31.1018 99 0 0 0 0 0
335 1 3 31.1018 102 0 0 0 0 0
336 1 3 31.1018 105 0 0 0 0 0
337 1 3 31.1018 108 0 0 0 0 0
338 1 3 31.1018 111 0 0 0 0 0
339 1 3 31.1018 114 0 0 0 0 0
340 1 3 31.1018 117 0 0 0 0 0
341 1 3 31.1018 120 0 0 0 0 0
342 1 3 31.1018 123 0 0 0 0 0
343 1 3 31.1018 126 0 0 0 0 0
344 1 3 31.1018 129 0 0 0 0 0
345 1 3 31.1018 132 0 0 0 0 0
346 1 3 31.1018 135 0 0 0 0 0
347 1 3 31.1018 138 0 0 0 0 0
348 1 3 31.1018 141 0 0 0 0 0
349 1 3 31.1018 144 0 0 0 0 0
350 1 3 31.1018 147 0 0 0 0 0
351 1 3 31.1018 150 0 0 0 0 0
352 1 3 31.1018 153 0 0 0 0 0
353 1 3 31.1018 156 0 0 0 0 0
354 1 3 31.1018 159 0 0 0 0 0
355 1 3 31.1018 162 0 0 0 0 0
356 1 3 31.1018 165 0 0 0 0 0
357 1 3 31.1018 168 0 0 0 0 0
358 1 3 31.1018 171 0 0 0 0 0
359 1 3 31.1018 174 0 0 0 0 0
360 1 3 31.1018 177 0 0 0 0 0
361 1 3 31.1018 180 0 0 0 0 0
362 1 3 31.1018 183 0 0 0 0 0
363 1 3 31.1018 186 0 0 0 0 0
364 1 3 31.1018 189 0 0 0 0 0
365 1 3 31.1018 192 0 0 0 0 0
366 1 3 31.1018 195 0 0 0 0 0
367 1 3 31.1018 198 0 0 0 0 0
368 1 3 31.1018 201 0 0 0 0 0
369 1 3 31.1018 204 0 0 0 0 0
370 1 3 31.1018 207 0 0 0 0 0
371 1 3 31.1018 210 0 0 0 0 0
372 1 3 31.1018 213 0 0 0 0 0
373 1 3 31.1018 216 0 0 0 0 0
374 1 3 31.1018 219 0 0 0 0 0
375 1 3 31.1018 222 0 0 0 0 0
376 1 3 31.1018 225 0 0 0 0 0
377 1 3 31.1018 228 0 0 0 0 0
378 1 3 31.1018 231 0 0 0 0 0
379 1 3 31.1018 234 0 0 0 0 0
380 1 3 31.1018 237 0 0 0 0 0
381 1 3 31.1018 240 0 0 0 0 0
382 1 3 31.1018 243 0 0 0 0 0
383 1 3 31.1018 246 0 0 0 0 0
384 1 3 31.1018 249 0 0 0 0 0
385 1 3 31.1018 252 0 0 0 0 0
386 1 3 31.1018 255 0 0 0 0 0
387 1 3 31.1018 258 0 0 0 0 0
388 1 3 31.1018 261 0 0 0 0 0
389 1 3 31.1018 264 0 0 0 0 0
390 1 3 31.1018 267 0 0 0 0 0