ITEM: TIMESTEP
4100000
ITEM: NUMBER OF ATOMS
2501
ITEM: BOX BOUNDS pp pp pp
-2.2500000000000000e+03 2.2500000000000000e+03
-1.0000000000000000e+02 1.0000000000000000e+02
-1.0000000000000000e+02 1.0000000000000000e+02
ITEM: ATOMS id type diameter mass xu yu zu fx fy fz
1 1 3 31.1018 -2250 0 0 0 0 0
2 1 3 31.1018 -2247 0 0 0 0 0
3 1 3 31.1018 -2244 0 0 0 0 0
4 1 3 31.1018 -2241 0 0 0 0 0
5 1 3 31.1018 -2238 0 0 0 0 0
6 1 3 31.1018 -2235 0 0 0 0 0
7 1 3 31.1018 -2232 0 0 0 0 0
8 1 3 31.1018 -2229 0 0 0 0 0
9 1 3 31.1018 -2226 0 0 0 0 0
10 1 3 31.1018 -2223 0 0 0 0 0
11 1 3 31.1018 -2220 0 0 0 0 0
12 1 3 31.1018 -2217 0 0 0 0 0
13 1 3 31.1018 -2214 0 0 0 0 0
14 1 3 31.1018 -2211 0 0 0 0 0
15 1 3 31.1018 -2208 0 0 0 0 0
16 1 3 31.1018 -2205 0 0 0 0 0
17 1 3 31.1018 -2202 0 0 0 0 0
18 1 3 31.1018 -2199 0 0 0 0 0
19 1 3 31.1018 -2196 0 0 0 0 0
20 1 3 31.1018 -2193 0 0 0 0 0
21 1 3 31.1018 -2190 0 0 0 0 0
22 1 3 31.1018 -2187 0 0 0 0 0
23 1 3 31.1018 -2184 0 0 0 0 0
24 1 3 31.1018 -2181 0 0 0 0 0
25 1 3 31.1018 -2178 0 0 0 0 0
26 1 3 31.1018 -2175 0 0 0 0 0
27 1 3 31.1018 -2172 0 0 0 0 0
28 1 3 31.1018 -2169 0 0 0 0 0
29 1 3 31.1018 -2166 0 0 0 0 0
30 1 3 31.1018 -2163 0 0 0 0 0
31 1 3 31.1018 -2160 0 0 0 0 0
32 1 3 31.1018 -2157 0 0 0 0 0
33 1 3 31.1018 -2154 0 0 0 0 0
34 1 3 31.1018 -2151 0 0 0 0 0
35 1 3 31.1018 -2148 0 0 0 0 0
36 1 3 31.1018 -2145 0 0 0 0 0
37 1 3 31.1018 -2142 0 0 0 0 0
38 1 3 31.1018 -2139 0 0 0 0 0
39 1 3 31.1018 -2136 0 0 0 0 0
40 1 3 31.1018 -2133 0 0 0 0 0
41 1 3 31.1018 -2130 0 0 0 0 0
42 1 3 31.1018 -2127 0 0 0 0 0
43 1 3 31.1018 -2124 0 0 0 0 0
44 1 3 31.1018 -2121 0 0 0 0 0
45 1 3 31.1018 -2118 0 0 0 0 0
46 1 3 31.1018 -2115 0 0 0 0 0
47 1 3 31.1018 -2112 0 0 0 0 0
48 1 3 31.1018 -2109 0 0 0 0 0
49 1 3 31.1018 -2106 0 0 0 0 0
50 1 3 31.1018 -2103 0 0 0 0 0
51 1 3 31.1018 -2100 0 0 0 0 0
52 1 3 31.1018 -2097 0 0 0 0 0
53 1 3 31.1018 -2094 0 0 0 0 0
54 1 3 31.1018 -2091 0 0 0 0 0
55 1 3 31.1018 -2088 0 0 0 0 0
56 1 3 31.1018 -2085 0 0 0 0 0
57 1 3 31.1018 -2082 0 0 0 0 0
58 1 3 31.1018 -2079 0 0 0 0 0
59 1 3 31.1018 -2076 0 0 0 0 0
60 1 3 31.1018 -2073 0 0 0 0 0
61 1 3 31.1018 -2070 0 0 0 0 0
62 1 3 31.1018 -2067 0 0 0 0 0
63 1 3 31.1018 -2064 0 0 0 0 0
64 1 3 31.1018 -2061 0 0 0 0 0
65 1 3 31.1018 -2058 0 0 0 0 0
66 1 3 31.1018 -2055 0 0 0 0 0
67 1 3 31.1018 -2052 0 0 0 0 0
68 1 3 31.1018 -2049 0 0 0 0 0
69 1 3 31.1018 -2046 0 0 0 0 0
70 1 3 31.1018 -2043 0 0 0 0 0
71 1 3 31.1018 -2040 0 0 0 0 0
72 1 3 31.1018 -2037 0 0 0 0 0
73 1 3 31.1018 -2034 0 0 0 0 0
74 1 3 31.1018 -2031 0 0 0 0 0
75 1 3 31.1018 -2028 0 0 0 0 0
76 1 3 31.1018 -2025 0 0 0 0 0
77 1 3 31.1018 -2022 0 0 0 0 0
78 1 3 31.1018 -2019 0 0 0 0 0
79 1 3 31.1018 -2016 0 0 0 0 0
80 1 3 31.1018 -2013 0 0 0 0 0
81 1 3 31.1018 -2010 0 0 0 0 0
82 1 3 31.1018 -2007 0 0 0 0 0
83 1 3 31.1018 -2004 0 0 0 0 0
84 1 3 31.1018 -2001 0 0 0 0 0
85 1 3 31.1018 -1998 0 0 0 0 0
86 1 3 31.1018 -1995 0 0 0 0 0
87 1 3 31.1018 -1992 0 0 0 0 0
88 1 3 31.1018 -1989 0 0 0 0 0
89 1 3 31.1018 -1986 0 0 0 0 0
90 1 3 31.1018 -1983 0 0 0 0 0
91 1 3 31.1018 -1980 0 0 0 0 0
92 1 3 31.1018 -1977 0 0 0 0 0
93 1 3 31.1018 -1974 0 0 0 0 0
94 1 3 31.1018 -1971 0 0 0 0 0
95 1 3 31.1018 -1968 0 0 0 0 0
96 1 3 31.1018 -1965 0 0 0 0 0
97 1 3 31.1018 -1962 0 0 0 0 0
98 1 3 31.1018 -1959 0 0 0 0 0
99 1 3 31.1018 -1956 0 0 0 0 0
100 1 3 31.1018 -1953 0 0 0 0 0
101 1 3 31.1018 -1950 0 0 0 0 0
102 1 3 31.1018 -1947 0 0 0 0 0
103 1 3 31.1018 -1944 0 0 0 0 0
104 1 3 31.1018 -1941 0 0 0 0 0
105 1 3 31.1018 -1938 0 0 0 0 0
106 1 3 31.1018 -1935 0 0 0 0 0
107 1 3 31.1018 -1932 0 0 0 0 0
108 1 3 31.1018 -1929 0 0 0 0 0
109 1 3 31.1018 -1926 0 0 0 0 0
110 1 3 31.1018 -1923 0 0 0 0 0
111 1 3 31.1018 -1920 0 0 0 0 0
112 1 3 31.1018 -1917 0 0 0 0 0
113 1 3 31.1018 -1914 0 0 0 0 0
114 1 3 31.1018 -1911 0 0 0 0 0
115 1 3 31.1018 -1908 0 0 0 0 0
116 1 3 31.1018 -1905 0 0 0 0 0
117 1 3 31.1018 -1902 0 0 0 0 0
118 1 3 31.1018 -1899 0 0 0 0 0
119 1 3 31.1018 -1896 0 0 0 0 0
120 1 3 31.1018 -1893 0 0 0 0 0
121 1 3 31.1018 -1890 0 0 0 0 0
122 1 3 31.1018 -1887 0 0 0 0 0
123 1 3 31.1018 -1884 0 0 0 0 0
124 1 3 31.1018 -1881 0 0 0 0 0
125 1 3 31.1018 -1878 0 0 0 0 0
126 1 3 31.1018 -1875 0 0 0 0 0
127 1 3 31.1018 -1872 0 0 0 0 0
128 1 3 31.1018 -1869 0 0 0 0 0
129 1 3 31.1018 -1866 0 0 0 0 0
130 1 3 31.1018 -1863 0 0 0 0 0
131 1 3 31.1018 -1860 0 0 0 0 0
132 1 3 31.1018 -1857 0 0 0 0 0
133 1 3 31.1018 -1854 0 0 0 0 0
134 1 3 31.1018 -1851 0 0 0 0 0
135 1 3 31.1018 -1848 0 0 0 0 0
136 1 3 31.1018 -1845 0 0 0 0 0
137 1 3 31.1018 -1842 0 0 0 0 0
138 1 3 31.1018 -1839 0 0 0 0 0
139 1 3 31.1018 -1836 0 0 0 0 0
140 1 3 31.1018 -1833 0 0 0 0 0
141 1 3 31.1018 -1830 0 0 0 0 0
142 1 3 31.1018 -1827 0 0 0 0 0
143 1 3 31.1018 -1824 0 0 0 0 0
144 1 3 31.1018 -1821 0 0 0 0 0
145 1 3 31.1018 -1818 0 0 0 0 0
146 1 3 31.1018 -1815 0 0 0 0 0
147 1 3 31.1018 -1812 0 0 0 0 0
148 1 3 31.1018 -1809 0 0 0 0 0
149 1 3 31.1018 -1806 0 0 0 0 0
150 1 3 31.1018 -1803 0 0 0 0 0
151 1 3 31.1018 -1800 0 0 0 0 0
152 1 3 31.1018 -1797 0 0 0 0 0
153 1 3 31.1018 -1794 0 0 0 0 0
154 1 3 31.1018 -1791 0 0 0 0 0
155 1 3 31.1018 -1788 0 0 0 0 0
156 1 3 31.1018 -1785 0 0 0 0 0
157 1 3 31.1018 -1782 0 0 0 0 0
158 1 3 31.1018 -1779 0 0 0 0 0
159 1 3 31.1018 -1776 0 0 0 0 0
160 1 3 31.1018 -1773 0 0 0 0 0
161 1 3 31.1018 -1770 0 0 0 0 0
162 1 3 31.1018 -1767 0 0 0 0 0
163 1 3 31.1018 -1764 0 0 0 0 0
164 1 3 31.1018 -1761 0 0 0 0 0
165 1 3 31.1018 -1758 0 0 0 0 0
166 1 3 31.1018 -1755 0 0 0 0 0
167 1 3 31.1018 -1752 0 0 0 0 0
168 1 3 31.1018 -1749 0 0 0 0 0
169 1 3 31.1018 -1746 0 0 0 0 0
170 1 3 31.1018 -1743 0 0 0 0 0
171 1 3 31.1018 -1740 0 0 0 0 0
172 1 3 31.1018 -1737 0 0 0 0 0
173 1 3 31.1018 -1734 0 0 0 0 0
174 1 3 31.1018 -1731 0 0 0 0 0
175 1 3 31.1018 -1728 0 0 0 0 0
176 1 3 31.1018 -1725 0 0 0 0 0
177 1 3 31.1018 -1722 0 0 0 0 0
178 1 3 31.1018 -1719 0 0 0 0 0
179 1 3 31.1018 -1716 0 0 0 0 0
180 1 3 31.1018 -1713 0 0 0 0 0
181 1 3 31.1018 -1710 0 0 0 0 0
182 1 3 31.1018 -1707 0 0 0 0 0
183 1 3 31.1018 -1704 0 0 0 0 0
184 1 3 31.1018 -1701 0 0 0 0 0
185 1 3 31.1018 -1698 0 0 0 0 0
186 1 3 31.1018 -1695 0 0 0 0 0
187 1 3 31.1018 -1692 0 0 0 0 0
188 1 3 31.1018 -1689 0 0 0 0 0
189 1 3 31.1018 -1686 0 0 0 0 0
190 1 3 31.1018 -1683 0 0 0 0 0
191 1 3 31.1018 -1680 0 0 0 0 0
192 1 3 31.1018 -1677 0 0 0 0 0
193 1 3 31.1018 -1674 0 0 0 0 0
194 1 3 31.1018 -1671 0 0 0 0 0
195 1 3 31.1018 -1668 0 0 0 0 0
196 1 3 31.1018 -1665 0 0 0 0 0
197 1 3 31.1018 -1662 0 0 0 0 0
198 1 3 31.1018 -1659 0 0 0 0 0
199 1 3 31.1018 -1656 0 0 0 0 0
200 1 3 31.1018 -1653 0 0 0 0 0
201 1 3 31.1018 -1650 0 0 0 0 0
202 1 3 31.1018 -1647 0 0 0 0 0
203 1 3 31.1018 -1644 0 0 0 0 0
204 1 3 31.1018 -1641 0 0 0 0 0
205 1 3 31.1018 -1638 0 0 0 0 0
206 1 3 31.1018 -1635 0 0 0 0 0
207 1 3 31.1018 -1632 0 0 0 0 0
208 1 3 31.1018 -1629 0 0 0 0 0
209 1 3 31.1018 -1626 0 0 0 0 0
210 1 3 31.1018 -1623 0 0 0 0 0
211 1 3 31.1018 -1620 0 0 0 0 0
212 1 3 31.1018 -1617 0 0 0 0 0
213 1 3 31.1018 -1614 0 0 0 0 0
214 1 3 31.1018 -1611 0 0 0 0 0
215 1 3 31.1018 -1608 0 0 0 0 0
216 1 3 31.1018 -1605 0 0 0 0 0
217 1 3 31.1018 -1602 0 0 0 0 0
218 1 3 31.1018 -1599 0 0 0 0 0
219 1 3 31.1018 -1596 0 0 0 0 0
220 1 3 31.1018 -1593 0 0 0 0 0
221 1 3 31.1018 -1590 0 0 0 0 0
222 1 3 31.1018 -1587 0 0 0 0 0
223 1 3 31.1018 -1584 0 0 0 0 0
224 1 3 31.1018 -1581 0 0 0 0 0
225 1 3 31.1018 -1578 0 0 0 0 0
226 1 3 31.1018 -1575 0 0 0 0 0
227 1 3 31.1018 -1572 0 0 0 0 0
228 1 3 31.1018 -1569 0 0 0 0 0
229 1 3 31.1018 -1566 0 0 0 0 0
230 1 3 31.1018 -1563 0 0 0 0 0
231 1 3 31.1018 -1560 0 0 0 0 0
232 1 3 31.1018 -1557 0 0 0 0 0
233 1 3 31.1018 -1554 0 0 0 0 0
234 1 3 31.1018 -1551 0 0 0 0 0
235 1 3 31.1018 -1548 0 0 0 0 0
236 1 3 31.1018 -1545 0 0 0 0 0
237 1 3 31.1018 -1542 0 0 0 0 0
238 1 3 31.1018 -1539 0 0 0 0 0
239 1 3 31.1018 -1536 0 0 0 0 0
240 1 3 31.1018 -1533 0 0 0 0 0
241 1 3 31.1018 -1530 0 0 0 0 0
242 1 3 31.1018 -1527 0 0 0 0 0
243 1 3 31.1018 -1524 0 0 0 0 0
244 1 3 31.1018 -1521 0 0 0 0 0
245 1 3 31.1018 -1518 0 0 0 0 0
246 1 3 31.1018 -1515 0 0 0 0 0
247 1 3 31.1018 -1512 0 0 0 0 0
248 1 3 31.1018 -1509 0 0 0 0 0
249 1 3 31.1018 -1506 0 0 0 0 0
250 1 3 31.1018 -1503 0 0 0 0 0
251 1 3 31.1018 -1500 0 0 0 0 0
252 1 3 31.1018 -1497 0 0 0 0 0
253 1 3 31.1018 -1494 0 0 0 0 0
254 1 3 31.1018 -1491 0 0 0 0 0
255 1 3 31.1018 -1488 0 0 0 0 0
256 1 3 31.1018 -1485 0 0 0 0 0
257 1 3 31.1018 -1482 0 0 0 0 0
258 1 3 31.1018 -1479 0 0 0 0 0
259 1 3 31.1018 -1476 0 0 0 0 0
260 1 3 31.1018 -1473 0 0 0 0 0
261 1 3 31.1018 -1470 0 0 0 0 0
262 1 3 31.1018 -1467 0 0 0 0 0
263 1 3 31.1018 -1464 0 0 0 0 0
264 1 3 31.1018 -1461 0 0 0 0 0
265 1 3 31.1018 -1458 0 0 0 0 0
266 1 3 31.1018 -1455 0 0 0 0 0
267 1 3 31.1018 -1452 0 0 0 0 0
268 1 3 31.1018 -1449 0 0 0 0 0
269 1 3 31.1018 -1446 0 0 0 0 0
270 1 3 31.1018 -1443 0 0 0 0 0
271 1 3 31.1018 -1440 0 0 0 0 0
272 1 3 31.1018 -1437 0 0 0 0 0
273 1 3 31.1018 -1434 0 0 0 0 0
274 1 3 31.1018 -1431 0 0 0 0 0
275 1 3 31.1018 -1428 0 0 0 0 0
276 1 3 31.1018 -1425 0 0 0 0 0
277 1 3 31.1018 -1422 0 0 0 0 0
278 1 3 31.1018 -1419 0 0 0 0 0
279 1 3 31.1018 -1416 0 0 0 0 0
280 1 3 31.1018 -1413 0 0 0 0 0
281 1 3 31.1018 -1410 0 0 0 0 0
282 1 3 31.1018 -1407 0 0 0 0 0
283 1 3 31.1018 -1404 0 0 0 0 0
284 1 3 31.1018 -1401 0 0 0 0 0
285 1 3 31.1018 -1398 0 0 0 0 0
286 1 3 31.1018 -1395 0 0 0 0 0
287 1 3 31.1018 -1392 0 0 0 0 0
288 1 3 31.1018 -1389 0 0 0 0 0
289 1 3 31.1018 -1386 0 0 0 0 0
290 1 3 31.1018 -1383 0 0 0 0 0
291 1 3 31.1018 -1380 0 0 0 0 0
292 1 3 31.1018 -1377 0 0 0 0 0
293 1 3 31.1018 -1374 0 0 0 0 0
294 1 3 31.1018 -1371 0 0 0 0 0
295 1 3 31.1018 -1368 0 0 0 0 0
296 1 3 31.1018 -1365 0 0 0 0 0
297 1 3 31.1018 -1362 0 0 0 0 0
298 1 3 31.1018 -1359 0 0 0 0 0
299 1 3 31.1018 -1356 0 0 0 0 0
300 1 3 31.1018 -1353 0 0 0 0 0
301 1 3 31.1018 -1350 0 0 0 0 0
302 1 3 31.1018 -1347 0 0 0 0 0
303 1 3 31.1018 -1344 0 0 0 0 0
304 1 3 31.1018 -1341 0 0 0 0 0
305 1 3 31.1018 -1338 0 0 0 0 0
306 1 3 31.1018 -1335 0 0 0 0 0
307 1 3 31.1018 -1332 0 0 0 0 0
308 1 3 31.1018 -1329 0 0 0 0 0
309 1 3 31.1018 -1326 0 0 0 0 0
310 1 3 31.1018 -1323 0 0 0 0 0
311 1 3 31.1018 -1320 0 0 0 0 0
312 1 3 31.1018 -1317 0 0 0 0 0
313 1 3 31.1018 -1314 0 0 0 0 0
314 1 3 31.1018 -1311 0 0 0 0 0
315 1 3 31.1018 -1308 0 0 0 0 0
316 1 3 31.1018 -1305 0 0 0 0 0
317 1 3 31.1018 -1302 0 0 0 0 0
318 1 3 31.1018 -1299 0 0 0 0 0
319 1 3 31.1018 -1296 0 0 0 0 0
320 1 3 31.1018 -1293 0 0 0 0 0
321 1 3 31.1018 -1290 0 0 0 0 0
322 1 3 31.1018 -1287 0 0 0 0 0
323 1 3 31.1018 -1284 0 0 0 0 0
324 1 3 31.1018 -1281 0 0 0 0 0
325 1 3 31.1018 -1278 0 0 0 0 0
326 1 3 31.1018 -1275 0 0 0 0 0
327 1 3 31.1018 -1272 0 0 0 0 0
328 1 3 31.1018 -1269 0 0 0 0 0
329 1 3 31.1018 -1266 0 0 0 0 0
330 1 3 31.1018 -1263 0 0 0 0 0
331 1 3 31.1018 -1260 0 0 0 0 0
332 1 3 31.1018 -1257 0 0 0 0 0
333 1 3 31.1018 -1254 0 0 0 0 0
334 1 3 31.1018 -1251 0 0 0 0 0
335 1 3 31.1018 -1248 0 0 0 0 0
336 1 3 31.1018 -1245 0 0 0 0 0
337 1 3 31.1018 -1242 0 0 0 0 0
338 1 3 31.1018 -1239 0 0 0 0 0
339 1 3 31.1018 -1236 0 0 0 0 0
340 1 3 31.1018 -1233 0 0 0 0 0
341 1 3 31.1018 -1230 0 0 0 0 0
342 1 3 31.1018 -1227 0 0 0 0 0
343 1 3 31.1018 -1224 0 0 0 0 0
344 1 3 31.1018 -1221 0 0 0 0 0
345 1 3 31.1018 -1218 0 0 0 0 0
346 1 3 31.1018 -1215 0 0 0 0 0
347 1 3 31.1018 -1212 0 0 0 0 0
348 1 3 31.1018 -1209 0 0 0 0 0
349 1 3 31.1018 -1206 0 0 0 0 0
350 1 3 31.1018 -1203 0 0 0 0 0
351 1 3 31.1018 -1200 0 0 0 0 0
352 1 3 31.1018 -1197 0 0 0 0 0
353 1 3 31.1018 -1194 0 0 0 0 0
354 1 3 31.1018 -1191 0 0 0 0 0
355 1 3 31.1018 -1188 0 0 0 0 0
356 1 3 31.1018 -1185 0 0 0 0 0
357 1 3 31.1018 -1182 0 0 0 0 0
358 1 3 31.1018 -1179 0 0 0 0 0
359 1 3 31.1018 -1176 0 0 0 0 0
360 1 3 31.1018 -1173 0 0 0 0 0
361 1 3 31.1018 -1170 0 0 0 0 0
362 1 3 31.1018 -1167 0 0 0 0 0
363 1 3 31.1018 -1164 0 0 0 0 0
364 1 3 31.1018 -1161 0 0 0 0 0
365 1 3 31.1018 -1158 0 0 0 0 0
366 1 3 31.1018 -1155 0 0 0 0 0
367 1 3 31.1018 -1152 0 0 0 0 0
368 1 3 31.1018 -1149 0 0 0 0 0
369 1 3 31.1018 -1146 0 0 0 0 0
370 1 3 31.1018 -1143 0 0 0 0 0
371 1 3 31.1018 -1140 0 0 0 0 0
372 1 3 31.1018 -1137 0 0 0 0 0
373 1 3 31.1018 -1134 0 0 0 0 0
374 1 3 31.1018 -1131 0 0 0 0 0
375 1 3 31.1018 -1128 0 0 0 0 0
1501 2 3 31.1018 -1504.50010136573678 1.12034e-20 2.59757461653631605 0.101962 0 -0.00167608
1502 2 3 31.1018 -1501.50010136573678 1.1181e-20 2.59757461651312616 0.101757 0 -0.00167289
1503 2 3 31.1018 -1498.50010136573678 1.11586e-20 2.59757461648993626 0.101553 0 -0.0016697
1504 2 3 31.1018 -1495.50010136573678 1.11362e-20 2.59757461646674681 0.101349 0 -0.00166652
1505 2 3 31.1018 -1492.50010136573701 1.11138e-20 2.59757461644355692 0.101145 0 -0.0016633
1506 2 3 31.1018 -1489.50010136573701 1.10913e-20 2.59757461642036702 0.100941 0 -0.00166011
1507 2 3 31.1018 -1486.50010136573701 1.10689e-20 2.59757461639717713 0.100736 0 -0.00165693
1508 2 3 31.1018 -1483.50010136573701 1.10465e-20 2.59757461637398768 0.100532 0 -0.00165374
1509 2 3 31.1018 -1480.50010136573724 1.10241e-20 2.59757461635079778 0.100328 0 -0.00165053
1510 2 3 31.1018 -1477.50010136573724 1.10017e-20 2.59757461632760789 0.100124 0 -0.00164733
1511 2 3 31.1018 -1474.50010136573724 1.09793e-20 2.59757461630441799 0.0999198 0 -0.00164415
1512 2 3 31.1018 -1471.50010136573724 1.09569e-20 2.59757461628122854 0.0997155 0 -0.00164096
1513 2 3 31.1018 -1468.50010136573746 1.09345e-20 2.59757461625803865 0.0995115 0 -0.00163775
1514 2 3 31.1018 -1465.50010136573746 1.09121e-20 2.59757461623484875 0.0993073 0 -0.00163456
1515 2 3 31.1018 -1462.50010136573746 1.08897e-20 2.59757461621165886 0.0991031 0 -0.00163137
1516 2 3 31.1018 -1459.50010136573769 1.08673e-20 2.59757461618846941 0.0988991 0 -0.00162816
1517 2 3 31.1018 -1456.50010136573769 1.08449e-20 2.59757461616527952 0.0986949 0 -0.00162497
1518 2 3 31.1018 -1453.50010136573769 1.08225e-20 2.59757461614208962 0.0984906 0 -0.00162178
1519 2 3 31.1018 -1450.50010136573769 1.08001e-20 2.59757461611889973 0.0982864 0 -0.00161859
1520 2 3 31.1018 -1447.50010136573792 1.07777e-20 2.59757461609571028 0.0980824 0 -0.00161538
1521 2 3 31.1018 -1444.50010136573792 1.07552e-20 2.59757461607252038 0.0978782 0 -0.00161219
1522 2 3 31.1018 -1441.50010136573792 1.07328e-20 2.59757461604933049 0.097674 0 -0.001609
1523 2 3 31.1018 -1438.50010136573792 1.07104e-20 2.59757461602614059 0.0974698 0 -0.00160581
1524 2 3 31.1018 -1435.50010136573815 1.0688e-20 2.59757461600295114 0.0972658 0 -0.0016026
1525 2 3 31.1018 -1432.50010136573815 1.06656e-20 2.59757461597976125 0.0970615 0 -0.00159941
1526 2 3 31.1018 -1429.50010136573815 1.06432e-20 2.59757461595657135 0.0968573 0 -0.00159622
1527 2 3 31.1018 -1426.50010136573837 1.06208e-20 2.59757461593338146 0.0966533 0 -0.00159301
1528 2 3 31.1018 -1423.50010136573837 1.05984e-20 2.59757461591019201 0.0964491 0 -0.00158982
1529 2 3 31.1018 -1420.50010136573837 1.0576e-20 2.59757461588700211 0.0962449 0 -0.00158664
1530 2 3 31.1018 -1417.50010136573837 1.05536e-20 2.59757461586381222 0.0960407 0 -0.00158345
1531 2 3 31.1018 -1414.5001013657386 1.05312e-20 2.59757461584062233 0.0958367 0 -0.00158023
1532 2 3 31.1018 -1411.5001013657386 1.05088e-20 2.59757461581743287 0.0956324 0 -0.00157705
1533 2 3 31.1018 -1408.5001013657386 1.04864e-20 2.59757461579424298 0.0954282 0 -0.00157386
1534 2 3 31.1018 -1405.5001013657386 1.0464e-20 2.59757461577105309 0.095224 0 -0.00157067
1535 2 3 31.1018 -1402.50010136573883 1.04416e-20 2.59757461574786319 0.09502 0 -0.00156746
1536 2 3 31.1018 -1399.50010136573883 1.04191e-20 2.59757461572467374 0.0948158 0 -0.00156427
1537 2 3 31.1018 -1396.50010136573883 1.03967e-20 2.59757461570148385 0.0946115 0 -0.00156108
1538 2 3 31.1018 -1393.50010136573906 1.03743e-20 2.59757461567829395 0.0944075 0 -0.00155787
1539 2 3 31.1018 -1390.50010136573906 1.03519e-20 2.59757461565510406 0.0942033 0 -0.00155468
1540 2 3 31.1018 -1387.50010136573906 1.03295e-20 2.59757461563191461 0.0939991 0 -0.00155149
1541 2 3 31.1018 -1384.50010136573906 1.03071e-20 2.59757461560872471 0.0937949 0 -0.0015483
1542 2 3 31.1018 -1381.50010136573928 1.02847e-20 2.59757461558553482 0.0935909 0 -0.00154509
1543 2 3 31.1018 -1378.50010136573928 1.02623e-20 2.59757461556234492 0.0933867 0 -0.0015419
1544 2 3 31.1018 -1375.50010136573928 1.02399e-20 2.59757461553915547 0.0931824 0 -0.00153871
1545 2 3 31.1018 -1372.50010136573928 1.02175e-20 2.59757461551596558 0.0929782 0 -0.00153552
1546 2 3 31.1018 -1369.50010136573951 1.01951e-20 2.59757461549277568 0.0927742 0 -0.00153231
1547 2 3 31.1018 -1366.50010136573951 1.01727e-20 2.59757461546958579 0.09257 0 -0.00152912
1548 2 3 31.1018 -1363.50010136573951 1.01503e-20 2.59757461544639634 0.0923658 0 -0.00152593
1549 2 3 31.1018 -1360.50010136573974 1.01279e-20 2.59757461542320645 0.0921618 0 -0.00152272
1550 2 3 31.1018 -1357.50010136573974 1.01054e-20 2.59757461540001655 0.0919575 0 -0.00151953
1551 2 3 31.1018 -1354.50010136573974 1.0083e-20 2.59757461537682666 0.0917533 0 -0.00151634
1552 2 3 31.1018 -1351.50010136573974 1.00606e-20 2.59757461535363721 0.0915491 0 -0.00151316
1553 2 3 31.1018 -1348.50010136573997 1.00382e-20 2.59757461533044731 0.0913451 0 -0.00150995
1554 2 3 31.1018 -1345.50010136573997 1.00158e-20 2.59757461530725742 0.0911409 0 -0.00150676
1555 2 3 31.1018 -1342.50010136573997 9.99342e-21 2.59757461528406752 0.0909367 0 -0.00150357
1556 2 3 31.1018 -1339.50010136573997 9.97101e-21 2.59757461526087807 0.0907324 0 -0.00150038
1557 2 3 31.1018 -1336.50010136574019 9.9486e-21 2.59757461523768818 0.0905284 0 -0.00149717
1558 2 3 31.1018 -1333.50010136574019 9.9262e-21 2.59757461521449828 0.0903242 0 -0.00149398
1559 2 3 31.1018 -1330.50010136574019 9.90379e-21 2.59757461519130839 0.09012 0 -0.00149079
1560 2 3 31.1018 -1327.50010136574019 9.88138e-21 2.59757461516811894 0.0899158 0 -0.0014876
1561 2 3 31.1018 -1324.50010136574042 9.85897e-21 2.59757461514492904 0.0897118 0 -0.00148439
1562 2 3 31.1018 -1321.50010136574042 9.83657e-21 2.59757461512173915 0.0895075 0 -0.0014812
1563 2 3 31.1018 -1318.50010136574042 9.81416e-21 2.59757461509854926 0.0893033 0 -0.00147801
1564 2 3 31.1018 -1315.50010136574065 9.79175e-21 2.59757461507535981 0.0890993 0 -0.0014748
1565 2 3 31.1018 -1312.50010136574065 9.76935e-21 2.59757461505216991 0.0888951 0 -0.00147161
1566 2 3 31.1018 -1309.50010136574065 9.74694e-21 2.59757461502898002 0.0886909 0 -0.00146842
1567 2 3 31.1018 -1306.50010136574065 9.72453e-21 2.59757461500579012 0.0884866 0 -0.00146523
1568 2 3 31.1018 -1303.50010136574087 9.70213e-21 2.59757461498260067 0.0882827 0 -0.00146202
1569 2 3 31.1018 -1300.50010136574087 9.67972e-21 2.59757461495941078 0.0880784 0 -0.00145884
1570 2 3 31.1018 -1297.50010136574087 9.65731e-21 2.59757461493622088 0.0878742 0 -0.00145565
1571 2 3 31.1018 -1294.50010136574087 9.63491e-21 2.59757461491303099 0.08767 0 -0.00145246
1572 2 3 31.1018 -1291.5001013657411 9.6125e-21 2.59757461488984154 0.087466 0 -0.00144925
1573 2 3 31.1018 -1288.5001013657411 9.59009e-21 2.59757461486665164 0.0872618 0 -0.00144606
1574 2 3 31.1018 -1285.5001013657411 9.56769e-21 2.59757461484346175 0.0870575 0 -0.00144287
1575 2 3 31.1018 -1282.50010136574133 9.54528e-21 2.59757461482027185 0.0868535 0 -0.00143966
1576 2 3 31.1018 -1279.50010136574133 9.52287e-21 2.5975746147970824 0.0866493 0 -0.00143647
1577 2 3 31.1018 -1276.50010136574133 9.50047e-21 2.59757461477389251 0.0864451 0 -0.00143328
1578 2 3 31.1018 -1273.50010136574133 9.47806e-21 2.59757461475070262 0.0862409 0 -0.00143009
1579 2 3 31.1018 -1270.50010136574156 9.45565e-21 2.59757461472751272 0.0860369 0 -0.00142688
1580 2 3 31.1018 -1267.50010136574156 9.43325e-21 2.59757461470432327 0.0858326 0 -0.00142369
1581 2 3 31.1018 -1264.50010136574156 9.41084e-21 2.59757461468113338 0.0856284 0 -0.0014205
1582 2 3 31.1018 -1261.50010136574156 9.38843e-21 2.59757461465794348 0.0854242 0 -0.00141731
1583 2 3 31.1018 -1258.50010136574178 9.36603e-21 2.59757461463475359 0.0852202 0 -0.0014141
1584 2 3 31.1018 -1255.50010136574178 9.34362e-21 2.59757461461156414 0.085016 0 -0.00141091
1585 2 3 31.1018 -1252.50010136574178 9.32121e-21 2.59757461458837424 0.0848118 0 -0.00140772
1586 2 3 31.1018 -1249.50010136574201 9.29881e-21 2.59757461456518435 0.0846078 0 -0.00140451
1587 2 3 31.1018 -1246.50010136574201 9.2764e-21 2.59757461454199445 0.0844035 0 -0.00140132
1588 2 3 31.1018 -1243.50010136574201 9.25399e-21 2.597574614518805 0.0841993 0 -0.00139814
1589 2 3 31.1018 -1240.50010136574201 9.23159e-21 2.59757461449561511 0.0839951 0 -0.00139495
1590 2 3 31.1018 -1237.50010136574224 9.20918e-21 2.59757461447242521 0.0837911 0 -0.00139174
1591 2 3 31.1018 -1234.50010136574224 9.18677e-21 2.59757461444923532 0.0835869 0 -0.00138855
1592 2 3 31.1018 -1231.50010136574224 9.16437e-21 2.59757461442604587 0.0833826 0 -0.00138536
1593 2 3 31.1018 -1228.50010136574224 9.14196e-21 2.59757461440285597 0.0831784 0 -0.00138217
1594 2 3 31.1018 -1225.50010136574247 9.11955e-21 2.59757461437966608 0.0829744 0 -0.00137896
1595 2 3 31.1018 -1222.50010136574247 9.09714e-21 2.59757461435647619 0.0827702 0 -0.00137577
1596 2 3 31.1018 -1219.50010136574247 9.07474e-21 2.59757461433328674 0.082566 0 -0.00137258
1597 2 3 31.1018 -1216.50010136574269 9.05233e-21 2.59757461431009684 0.082362 0 -0.00136937
1598 2 3 31.1018 -1213.50010136574269 9.02992e-21 2.59757461428690695 0.0821577 0 -0.00136618
1599 2 3 31.1018 -1210.50010136574269 9.00752e-21 2.59757461426371705 0.0819535 0 -0.00136299
1600 2 3 31.1018 -1207.50010136574269 8.98511e-21 2.5975746142405276 0.0817493 0 -0.00135981
1601 2 3 31.1018 -1204.50010136574292 8.9627e-21 2.59757461421733771 0.0815453 0 -0.00135659
1602 2 3 31.1018 -1201.50010136574292 8.9403e-21 2.59757461419414781 0.0813411 0 -0.0013534
1603 2 3 31.1018 -1198.50010136574292 8.91789e-21 2.59757461417095792 0.0811369 0 -0.00135021
1604 2 3 31.1018 -1195.50010136574292 8.89548e-21 2.59757461414776847 0.0809326 0 -0.00134703
1605 2 3 31.1018 -1192.50010136574315 8.87308e-21 2.59757461412457857 0.0807286 0 -0.00134382
1606 2 3 31.1018 -1189.50010136574315 8.85067e-21 2.59757461410138868 0.0805244 0 -0.00134063
1607 2 3 31.1018 -1186.50010136574315 8.82826e-21 2.59757461407819878 0.0803202 0 -0.00133744
1608 2 3 31.1018 -1183.50010136574315 8.80586e-21 2.59757461405500933 0.080116 0 -0.00133425
1609 2 3 31.1018 -1180.50010136574338 8.78345e-21 2.59757461403181944 0.079912 0 -0.00133104
1610 2 3 31.1018 -1177.50010136574338 8.76104e-21 2.59757461400862955 0.0797077 0 -0.00132785
1611 2 3 31.1018 -1174.50010136574338 8.73864e-21 2.59757461398543965 0.0795035 0 -0.00132466
1612 2 3 31.1018 -1171.5001013657436 8.71623e-21 2.5975746139622502 0.0792995 0 -0.00132145
1613 2 3 31.1018 -1168.5001013657436 8.69382e-21 2.59757461393906031 0.0790953 0 -0.00131826
1614 2 3 31.1018 -1165.5001013657436 8.67142e-21 2.59757461391587041 0.078891 0 -0.00131503
1615 2 3 31.1018 -1162.5001013657436 8.64901e-21 2.59757461389268052 0.0786867 0 -0.00131179
1616 2 3 31.1018 -1159.50010136574383 8.6266e-21 2.59757461386949107 0.0784826 0 -0.00130853
1617 2 3 31.1018 -1156.50010136574383 8.6042e-21 2.59757461384630117 0.0782783 0 -0.00130529
1618 2 3 31.1018 -1153.50010136574383 8.58179e-21 2.59757461382311128 0.078074 0 -0.00130205
1619 2 3 31.1018 -1150.50010136574383 8.55938e-21 2.59757461379992138 0.0778697 0 -0.0012988
1620 2 3 31.1018 -1147.50010136574406 8.53698e-21 2.59757461377673193 0.0776656 0 -0.00129554
1621 2 3 31.1018 -1144.50010136574406 8.51457e-21 2.59757461375354204 0.0774612 0 -0.0012923
1622 2 3 31.1018 -1141.50010136574406 8.49216e-21 2.59757461373035214 0.0772569 0 -0.00128906
1623 2 3 31.1018 -1138.50010136574429 8.46976e-21 2.59757461370716225 0.0770528 0 -0.00128579
1624 2 3 31.1018 -1135.50010136574429 8.44735e-21 2.5975746136839728 0.0768485 0 -0.00128255
1625 2 3 31.1018 -1132.50010136574429 8.42494e-21 2.59757461366078291 0.0766442 0 -0.00127931
1626 2 3 31.1018 -1129.50010136574429 8.40254e-21 2.59757461363759301 0.0764399 0 -0.00127607
1627 2 3 31.1018 -1126.50010136574451 8.38013e-21 2.59757461361440312 0.0762358 0 -0.00127281
376 1 3 31.1018 -1125 0 0 0 0 0
377 1 3 31.1018 -1122 0 0 0 0 0
378 1 3 31.1018 -1119 0 0 0 0 0
379 1 3 31.1018 -1116 0 0 0 0 0
380 1 3 31.1018 -1113 0 0 0 0 0
381 1 3 31.1018 -1110 0 0 0 0 0
382 1 3 31.1018 -1107 0 0 0 0 0
383 1 3 31.1018 -1104 0 0 0 0 0
384 1 3 31.1018 -1101 0 0 0 0 0
385 1 3 31.1018 -1098 0 0 0 0 0
386 1 3 31.1018 -1095 0 0 0 0 0
387 1 3 31.1018 -1092 0 0 0 0 0
388 1 3 31.1018 -1089 0 0 0 0 0
389 1 3 31.1018 -1086 0 0 0 0 0
390 1 3 31.1018 -1083 0 0 0 0 0
391 1 3 31.1018 -1080 0 0 0 0 0
392 1 3 31.1018 -1077 0 0 0 0 0
393 1 3 31.1018 -1074 0 0 0 0 0
394 1 3 31.1018 -1071 0 0 0 0 0
395 1 3 31.1018 -1068 0 0 0 0 0
396 1 3 31.1018 -1065 0 0 0 0 0
397 1 3 31.1018 -1062 0 0 0 0 0
398 1 3 31.1018 -1059 0 0 0 0 0
399 1 3 31.1018 -1056 0 0 0 0 0
400 1 3 31.1018 -1053 0 0 0 0 0
401 1 3 31.1018 -1050 0 0 0 0 0
402 1 3 31.1018 -1047 0 0 0 0 0
403 1 3 31.1018 -1044 0 0 0 0 0
404 1 3 31.1018 -1041 0 0 0 0 0
405 1 3 31.1018 -1038 0 0 0 0 0
406 1 3 31.1018 -1035 0 0 0 0 0
407 1 3 31.1018 -1032 0 0 0 0 0
408 1 3 31.1018 -1029 0 0 0 0 0
409 1 3 31.1018 -1026 0 0 0 0 0
410 1 3 31.1018 -1023 0 0 0 0 0
411 1 3 31.1018 -1020 0 0 0 0 0
412 1 3 31.1018 -1017 0 0 0 0 0
413 1 3 31.1018 -1014 0 0 0 0 0
414 1 3 31.1018 -1011 0 0 0 0 0
415 1 3 31.1018 -1008 0 0 0 0 0
416 1 3 31.1018 -1005 0 0 0 0 0
417 1 3 31.1018 -1002 0 0 0 0 0
418 1 3 31.1018 -999 0 0 0 0 0
419 1 3 31.1018 -996 0 0 0 0 0
420 1 3 31.1018 -993 0 0 0 0 0
421 1 3 31.1018 -990 0 0 0 0 0
422 1 3 31.1018 -987 0 0 0 0 0
423 1 3 31.1018 -984 0 0 0 0 0
424 1 3 31.1018 -981 0 0 0 0 0
425 1 3 31.1018 -978 0 0 0 0 0
426 1 3 31.1018 -975 0 0 0 0 0
427 1 3 31.1018 -972 0 0 0 0 0
428 1 3 31.1018 -969 0 0 0 0 0
429 1 3 31.1018 -966 0 0 0 0 0
430 1 3 31.1018 -963 0 0 0 0 0
431 1 3 31.1018 -960 0 0 0 0 0
432 1 3 31.1018 -957 0 0 0 0 0
433 1 3 31.1018 -954 0 0 0 0 0
434 1 3 31.1018 -951 0 0 0 0 0
435 1 3 31.1018 -948 0 0 0 0 0
436 1 3 31.1018 -945 0 0 0 0 0
437 1 3 31.1018 -942 0 0 0 0 0
438 1 3 31.1018 -939 0 0 0 0 0
439 1 3 31.1018 -936 0 0 0 0 0
440 1 3 31.1018 -933 0 0 0 0 0
441 1 3 31.1018 -930 0 0 0 0 0
442 1 3 31.1018 -927 0 0 0 0 0
443 1 3 31.1018 -924 0 0 0 0 0
444 1 3 31.1018 -921 0 0 0 0 0
445 1 3 31.1018 -918 0 0 0 0 0
446 1 3 31.1018 -915 0 0 0 0 0
447 1 3 31.1018 -912 0 0 0 0 0
448 1 3 31.1018 -909 0 0 0 0 0
449 1 3 31.1018 -906 0 0 0 0 0
450 1 3 31.1018 -903 0 0 0 0 0
451 1 3 31.1018 -900 0 0 0 0 0
452 1 3 31.1018 -897 0 0 0 0 0
453 1 3 31.1018 -894 0 0 0 0 0
454 1 3 31.1018 -891 0 0 0 0 0
455 1 3 31.1018 -888 0 0 0 0 0
456 1 3 31.1018 -885 0 0 0 0 0
457 1 3 31.1018 -882 0 0 0 0 0
458 1 3 31.1018 -879 0 0 0 0 0
459 1 3 31.1018 -876 0 0 0 0 0
460 1 3 31.1018 -873 0 0 0 0 0
461 1 3 31.1018 -870 0 0 0 0 0
462 1 3 31.1018 -867 0 0 0 0 0
463 1 3 31.1018 -864 0 0 0 0 0
464 1 3 31.1018 -861 0 0 0 0 0
465 1 3 31.1018 -858 0 0 0 0 0
466 1 3 31.1018 -855 0 0 0 0 0
467 1 3 31.1018 -852 0 0 0 0 0
468 1 3 31.1018 -849 0 0 0 0 0
469 1 3 31.1018 -846 0 0 0 0 0
470 1 3 31.1018 -843 0 0 0 0 0
471 1 3 31.1018 -840 0 0 0 0 0
472 1 3 31.1018 -837 0 0 0 0 0
473 1 3 31.1018 -834 0 0 0 0 0
474 1 3 31.1018 -831 0 0 0 0 0
475 1 3 31.1018 -828 0 0 0 0 0
476 1 3 31.1018 -825 0 0 0 0 0
477 1 3 31.1018 -822 0 0 0 0 0
478 1 3 31.1018 -819 0 0 0 0 0
479 1 3 31.1018 -816 0 0 0 0 0
480 1 3 31.1018 -813 0 0 0 0 0
481 1 3 31.1018 -810 0 0 0 0 0
482 1 3 31.1018 -807 0 0 0 0 0
483 1 3 31.1018 -804 0 0 0 0 0
484 1 3 31.1018 -801 0 0 0 0 0
485 1 3 31.1018 -798 0 0 0 0 0
486 1 3 31.1018 -795 0 0 0 0 0
487 1 3 31.1018 -792 0 0 0 0 0
488 1 3 31.1018 -789 0 0 0 0 0
489 1 3 31.1018 -786 0 0 0 0 0
490 1 3 31.1018 -783 0 0 0 0 0
491 1 3 31.1018 -780 0 0 0 0 0
492 1 3 31.1018 -777 0 0 0 0 0
493 1 3 31.1018 -774 0 0 0 0 0
494 1 3 31.1018 -771 0 0 0 0 0
495 1 3 31.1018 -768 0 0 0 0 0
496 1 3 31.1018 -765 0 0 0 0 0
497 1 3 31.1018 -762 0 0 0 0 0
498 1 3 31.1018 -759 0 0 0 0 0
499 1 3 31.1018 -756 0 0 0 0 0
500 1 3 31.1018 -753 0 0 0 0 0
501 1 3 31.1018 -750 0 0 0 0 0
502 1 3 31.1018 -747 0 0 0 0 0
503 1 3 31.1018 -744 0 0 0 0 0
504 1 3 31.1018 -741 0 0 0 0 0
505 1 3 31.1018 -738 0 0 0 0 0
506 1 3 31.1018 -735 0 0 0 0 0
507 1 3 31.1018 -732 0 0 0 0 0
508 1 3 31.1018 -729 0 0 0 0 0
509 1 3 31.1018 -726 0 0 0 0 0
510 1 3 31.1018 -723 0 0 0 0 0
511 1 3 31.1018 -720 0 0 0 0 0
512 1 3 31.1018 -717 0 0 0 0 0
513 1 3 31.1018 -714 0 0 0 0 0
514 1 3 31.1018 -711 0 0 0 0 0
515 1 3 31.1018 -708 0 0 0 0 0
516 1 3 31.1018 -705 0 0 0 0 0
517 1 3 31.1018 -702 0 0 0 0 0
518 1 3 31.1018 -699 0 0 0 0 0
519 1 3 31.1018 -696 0 0 0 0 0
520 1 3 31.1018 -693 0 0 0 0 0
521 1 3 31.1018 -690 0 0 0 0 0
522 1 3 31.1018 -687 0 0 0 0 0
523 1 3 31.1018 -684 0 0 0 0 0
524 1 3 31.1018 -681 0 0 0 0 0
525 1 3 31.1018 -678 0 0 0 0 0
526 1 3 31.1018 -675 0 0 0 0 0
527 1 3 31.1018 -672 0 0 0 0 0
528 1 3 31.1018 -669 0 0 0 0 0
529 1 3 31.1018 -666 0 0 0 0 0
530 1 3 31.1018 -663 0 0 0 0 0
531 1 3 31.1018 -660 0 0 0 0 0
532 1 3 31.1018 -657 0 0 0 0 0
533 1 3 31.1018 -654 0 0 0 0 0
534 1 3 31.1018 -651 0 0 0 0 0
535 1 3 31.1018 -648 0 0 0 0 0
536 1 3 31.1018 -645 0 0 0 0 0
537 1 3 31.1018 -642 0 0 0 0 0
538 1 3 31.1018 -639 0 0 0 0 0
539 1 3 31.1018 -636 0 0 0 0 0
540 1 3 31.1018 -633 0 0 0 0 0
541 1 3 31.1018 -630 0 0 0 0 0
542 1 3 31.1018 -627 0 0 0 0 0
543 1 3 31.1018 -624 0 0 0 0 0
544 1 3 31.1018 -621 0 0 0 0 0
545 1 3 31.1018 -618 0 0 0 0 0
546 1 3 31.1018 -615 0 0 0 0 0
547 1 3 31.1018 -612 0 0 0 0 0
548 1 3 31.1018 -609 0 0 0 0 0
549 1 3 31.1018 -606 0 0 0 0 0
550 1 3 31.1018 -603 0 0 0 0 0
551 1 3 31.1018 -600 0 0 0 0 0
552 1 3 31.1018 -597 0 0 0 0 0
553 1 3 31.1018 -594 0 0 0 0 0
554 1 3 31.1018 -591 0 0 0 0 0
555 1 3 31.1018 -588 0 0 0 0 0
556 1 3 31.1018 -585 0 0 0 0 0
557 1 3 31.1018 -582 0 0 0 0 0
558 1 3 31.1018 -579 0 0 0 0 0
559 1 3 31.1018 -576 0 0 0 0 0
560 1 3 31.1018 -573 0 0 0 0 0
561 1 3 31.1018 -570 0 0 0 0 0
562 1 3 31.1018 -567 0 0 0 0 0
563 1 3 31.1018 -564 0 0 0 0 0
564 1 3 31.1018 -561 0 0 0 0 0
565 1 3 31.1018 -558 0 0 0 0 0
566 1 3 31.1018 -555 0 0 0 0 0