ITEM: TIMESTEP
4200000
ITEM: NUMBER OF ATOMS
3501
ITEM: BOX BOUNDS pp pp pp
-3.1500000000000000e+03 3.1500000000000000e+03
-1.0000000000000000e+02 1.0000000000000000e+02
-1.0000000000000000e+02 1.0000000000000000e+02
ITEM: ATOMS id type diameter mass xu yu zu fx fy fz
1 1 3 31.1018 -3150 0 0 0 0 0
2 1 3 31.1018 -3147 0 0 0 0 0
3 1 3 31.1018 -3144 0 0 0 0 0
4 1 3 31.1018 -3141 0 0 0 0 0
5 1 3 31.1018 -3138 0 0 0 0 0
6 1 3 31.1018 -3135 0 0 0 0 0
7 1 3 31.1018 -3132 0 0 0 0 0
8 1 3 31.1018 -3129 0 0 0 0 0
9 1 3 31.1018 -3126 0 0 0 0 0
10 1 3 31.1018 -3123 0 0 0 0 0
11 1 3 31.1018 -3120 0 0 0 0 0
12 1 3 31.1018 -3117 0 0 0 0 0
13 1 3 31.1018 -3114 0 0 0 0 0
14 1 3 31.1018 -3111 0 0 0 0 0
15 1 3 31.1018 -3108 0 0 0 0 0
16 1 3 31.1018 -3105 0 0 0 0 0
17 1 3 31.1018 -3102 0 0 0 0 0
18 1 3 31.1018 -3099 0 0 0 0 0
19 1 3 31.1018 -3096 0 0 0 0 0
20 1 3 31.1018 -3093 0 0 0 0 0
21 1 3 31.1018 -3090 0 0 0 0 0
22 1 3 31.1018 -3087 0 0 0 0 0
23 1 3 31.1018 -3084 0 0 0 0 0
24 1 3 31.1018 -3081 0 0 0 0 0
25 1 3 31.1018 -3078 0 0 0 0 0
26 1 3 31.1018 -3075 0 0 0 0 0
27 1 3 31.1018 -3072 0 0 0 0 0
28 1 3 31.1018 -3069 0 0 0 0 0
29 1 3 31.1018 -3066 0 0 0 0 0
30 1 3 31.1018 -3063 0 0 0 0 0
31 1 3 31.1018 -3060 0 0 0 0 0
32 1 3 31.1018 -3057 0 0 0 0 0
33 1 3 31.1018 -3054 0 0 0 0 0
34 1 3 31.1018 -3051 0 0 0 0 0
35 1 3 31.1018 -3048 0 0 0 0 0
36 1 3 31.1018 -3045 0 0 0 0 0
37 1 3 31.1018 -3042 0 0 0 0 0
38 1 3 31.1018 -3039 0 0 0 0 0
39 1 3 31.1018 -3036 0 0 0 0 0
40 1 3 31.1018 -3033 0 0 0 0 0
41 1 3 31.1018 -3030 0 0 0 0 0
42 1 3 31.1018 -3027 0 0 0 0 0
43 1 3 31.1018 -3024 0 0 0 0 0
44 1 3 31.1018 -3021 0 0 0 0 0
45 1 3 31.1018 -3018 0 0 0 0 0
46 1 3 31.1018 -3015 0 0 0 0 0
47 1 3 31.1018 -3012 0 0 0 0 0
48 1 3 31.1018 -3009 0 0 0 0 0
49 1 3 31.1018 -3006 0 0 0 0 0
50 1 3 31.1018 -3003 0 0 0 0 0
51 1 3 31.1018 -3000 0 0 0 0 0
52 1 3 31.1018 -2997 0 0 0 0 0
53 1 3 31.1018 -2994 0 0 0 0 0
54 1 3 31.1018 -2991 0 0 0 0 0
55 1 3 31.1018 -2988 0 0 0 0 0
56 1 3 31.1018 -2985 0 0 0 0 0
57 1 3 31.1018 -2982 0 0 0 0 0
58 1 3 31.1018 -2979 0 0 0 0 0
59 1 3 31.1018 -2976 0 0 0 0 0
60 1 3 31.1018 -2973 0 0 0 0 0
61 1 3 31.1018 -2970 0 0 0 0 0
62 1 3 31.1018 -2967 0 0 0 0 0
63 1 3 31.1018 -2964 0 0 0 0 0
64 1 3 31.1018 -2961 0 0 0 0 0
65 1 3 31.1018 -2958 0 0 0 0 0
66 1 3 31.1018 -2955 0 0 0 0 0
67 1 3 31.1018 -2952 0 0 0 0 0
68 1 3 31.1018 -2949 0 0 0 0 0
69 1 3 31.1018 -2946 0 0 0 0 0
70 1 3 31.1018 -2943 0 0 0 0 0
71 1 3 31.1018 -2940 0 0 0 0 0
72 1 3 31.1018 -2937 0 0 0 0 0
73 1 3 31.1018 -2934 0 0 0 0 0
74 1 3 31.1018 -2931 0 0 0 0 0
75 1 3 31.1018 -2928 0 0 0 0 0
76 1 3 31.1018 -2925 0 0 0 0 0
77 1 3 31.1018 -2922 0 0 0 0 0
78 1 3 31.1018 -2919 0 0 0 0 0
79 1 3 31.1018 -2916 0 0 0 0 0
80 1 3 31.1018 -2913 0 0 0 0 0
81 1 3 31.1018 -2910 0 0 0 0 0
82 1 3 31.1018 -2907 0 0 0 0 0
83 1 3 31.1018 -2904 0 0 0 0 0
84 1 3 31.1018 -2901 0 0 0 0 0
85 1 3 31.1018 -2898 0 0 0 0 0
86 1 3 31.1018 -2895 0 0 0 0 0
87 1 3 31.1018 -2892 0 0 0 0 0
88 1 3 31.1018 -2889 0 0 0 0 0
89 1 3 31.1018 -2886 0 0 0 0 0
90 1 3 31.1018 -2883 0 0 0 0 0
91 1 3 31.1018 -2880 0 0 0 0 0
92 1 3 31.1018 -2877 0 0 0 0 0
93 1 3 31.1018 -2874 0 0 0 0 0
94 1 3 31.1018 -2871 0 0 0 0 0
95 1 3 31.1018 -2868 0 0 0 0 0
96 1 3 31.1018 -2865 0 0 0 0 0
97 1 3 31.1018 -2862 0 0 0 0 0
98 1 3 31.1018 -2859 0 0 0 0 0
99 1 3 31.1018 -2856 0 0 0 0 0
100 1 3 31.1018 -2853 0 0 0 0 0
101 1 3 31.1018 -2850 0 0 0 0 0
102 1 3 31.1018 -2847 0 0 0 0 0
103 1 3 31.1018 -2844 0 0 0 0 0
104 1 3 31.1018 -2841 0 0 0 0 0
105 1 3 31.1018 -2838 0 0 0 0 0
106 1 3 31.1018 -2835 0 0 0 0 0
107 1 3 31.1018 -2832 0 0 0 0 0
108 1 3 31.1018 -2829 0 0 0 0 0
109 1 3 31.1018 -2826 0 0 0 0 0
110 1 3 31.1018 -2823 0 0 0 0 0
111 1 3 31.1018 -2820 0 0 0 0 0
112 1 3 31.1018 -2817 0 0 0 0 0
113 1 3 31.1018 -2814 0 0 0 0 0
114 1 3 31.1018 -2811 0 0 0 0 0
115 1 3 31.1018 -2808 0 0 0 0 0
116 1 3 31.1018 -2805 0 0 0 0 0
117 1 3 31.1018 -2802 0 0 0 0 0
118 1 3 31.1018 -2799 0 0 0 0 0
119 1 3 31.1018 -2796 0 0 0 0 0
120 1 3 31.1018 -2793 0 0 0 0 0
121 1 3 31.1018 -2790 0 0 0 0 0
122 1 3 31.1018 -2787 0 0 0 0 0
123 1 3 31.1018 -2784 0 0 0 0 0
124 1 3 31.1018 -2781 0 0 0 0 0
125 1 3 31.1018 -2778 0 0 0 0 0
126 1 3 31.1018 -2775 0 0 0 0 0
127 1 3 31.1018 -2772 0 0 0 0 0
128 1 3 31.1018 -2769 0 0 0 0 0
129 1 3 31.1018 -2766 0 0 0 0 0
130 1 3 31.1018 -2763 0 0 0 0 0
131 1 3 31.1018 -2760 0 0 0 0 0
132 1 3 31.1018 -2757 0 0 0 0 0
133 1 3 31.1018 -2754 0 0 0 0 0
134 1 3 31.1018 -2751 0 0 0 0 0
135 1 3 31.1018 -2748 0 0 0 0 0
136 1 3 31.1018 -2745 0 0 0 0 0
137 1 3 31.1018 -2742 0 0 0 0 0
138 1 3 31.1018 -2739 0 0 0 0 0
139 1 3 31.1018 -2736 0 0 0 0 0
140 1 3 31.1018 -2733 0 0 0 0 0
141 1 3 31.1018 -2730 0 0 0 0 0
142 1 3 31.1018 -2727 0 0 0 0 0
143 1 3 31.1018 -2724 0 0 0 0 0
144 1 3 31.1018 -2721 0 0 0 0 0
145 1 3 31.1018 -2718 0 0 0 0 0
146 1 3 31.1018 -2715 0 0 0 0 0
147 1 3 31.1018 -2712 0 0 0 0 0
148 1 3 31.1018 -2709 0 0 0 0 0
149 1 3 31.1018 -2706 0 0 0 0 0
150 1 3 31.1018 -2703 0 0 0 0 0
151 1 3 31.1018 -2700 0 0 0 0 0
152 1 3 31.1018 -2697 0 0 0 0 0
153 1 3 31.1018 -2694 0 0 0 0 0
154 1 3 31.1018 -2691 0 0 0 0 0
155 1 3 31.1018 -2688 0 0 0 0 0
156 1 3 31.1018 -2685 0 0 0 0 0
157 1 3 31.1018 -2682 0 0 0 0 0
158 1 3 31.1018 -2679 0 0 0 0 0
159 1 3 31.1018 -2676 0 0 0 0 0
160 1 3 31.1018 -2673 0 0 0 0 0
161 1 3 31.1018 -2670 0 0 0 0 0
162 1 3 31.1018 -2667 0 0 0 0 0
163 1 3 31.1018 -2664 0 0 0 0 0
164 1 3 31.1018 -2661 0 0 0 0 0
165 1 3 31.1018 -2658 0 0 0 0 0
166 1 3 31.1018 -2655 0 0 0 0 0
167 1 3 31.1018 -2652 0 0 0 0 0
168 1 3 31.1018 -2649 0 0 0 0 0
169 1 3 31.1018 -2646 0 0 0 0 0
170 1 3 31.1018 -2643 0 0 0 0 0
171 1 3 31.1018 -2640 0 0 0 0 0
172 1 3 31.1018 -2637 0 0 0 0 0
173 1 3 31.1018 -2634 0 0 0 0 0
174 1 3 31.1018 -2631 0 0 0 0 0
175 1 3 31.1018 -2628 0 0 0 0 0
176 1 3 31.1018 -2625 0 0 0 0 0
177 1 3 31.1018 -2622 0 0 0 0 0
178 1 3 31.1018 -2619 0 0 0 0 0
179 1 3 31.1018 -2616 0 0 0 0 0
180 1 3 31.1018 -2613 0 0 0 0 0
181 1 3 31.1018 -2610 0 0 0 0 0
182 1 3 31.1018 -2607 0 0 0 0 0
183 1 3 31.1018 -2604 0 0 0 0 0
184 1 3 31.1018 -2601 0 0 0 0 0
185 1 3 31.1018 -2598 0 0 0 0 0
186 1 3 31.1018 -2595 0 0 0 0 0
187 1 3 31.1018 -2592 0 0 0 0 0
188 1 3 31.1018 -2589 0 0 0 0 0
189 1 3 31.1018 -2586 0 0 0 0 0
190 1 3 31.1018 -2583 0 0 0 0 0
191 1 3 31.1018 -2580 0 0 0 0 0
192 1 3 31.1018 -2577 0 0 0 0 0
193 1 3 31.1018 -2574 0 0 0 0 0
194 1 3 31.1018 -2571 0 0 0 0 0
195 1 3 31.1018 -2568 0 0 0 0 0
196 1 3 31.1018 -2565 0 0 0 0 0
197 1 3 31.1018 -2562 0 0 0 0 0
198 1 3 31.1018 -2559 0 0 0 0 0
199 1 3 31.1018 -2556 0 0 0 0 0
200 1 3 31.1018 -2553 0 0 0 0 0
201 1 3 31.1018 -2550 0 0 0 0 0
202 1 3 31.1018 -2547 0 0 0 0 0
203 1 3 31.1018 -2544 0 0 0 0 0
204 1 3 31.1018 -2541 0 0 0 0 0
205 1 3 31.1018 -2538 0 0 0 0 0
206 1 3 31.1018 -2535 0 0 0 0 0
207 1 3 31.1018 -2532 0 0 0 0 0
208 1 3 31.1018 -2529 0 0 0 0 0
209 1 3 31.1018 -2526 0 0 0 0 0
210 1 3 31.1018 -2523 0 0 0 0 0
211 1 3 31.1018 -2520 0 0 0 0 0
212 1 3 31.1018 -2517 0 0 0 0 0
213 1 3 31.1018 -2514 0 0 0 0 0
214 1 3 31.1018 -2511 0 0 0 0 0
215 1 3 31.1018 -2508 0 0 0 0 0
216 1 3 31.1018 -2505 0 0 0 0 0
217 1 3 31.1018 -2502 0 0 0 0 0
218 1 3 31.1018 -2499 0 0 0 0 0
219 1 3 31.1018 -2496 0 0 0 0 0
220 1 3 31.1018 -2493 0 0 0 0 0
221 1 3 31.1018 -2490 0 0 0 0 0
222 1 3 31.1018 -2487 0 0 0 0 0
223 1 3 31.1018 -2484 0 0 0 0 0
224 1 3 31.1018 -2481 0 0 0 0 0
225 1 3 31.1018 -2478 0 0 0 0 0
226 1 3 31.1018 -2475 0 0 0 0 0
227 1 3 31.1018 -2472 0 0 0 0 0
228 1 3 31.1018 -2469 0 0 0 0 0
229 1 3 31.1018 -2466 0 0 0 0 0
230 1 3 31.1018 -2463 0 0 0 0 0
231 1 3 31.1018 -2460 0 0 0 0 0
232 1 3 31.1018 -2457 0 0 0 0 0
233 1 3 31.1018 -2454 0 0 0 0 0
234 1 3 31.1018 -2451 0 0 0 0 0
235 1 3 31.1018 -2448 0 0 0 0 0
236 1 3 31.1018 -2445 0 0 0 0 0
237 1 3 31.1018 -2442 0 0 0 0 0
238 1 3 31.1018 -2439 0 0 0 0 0
239 1 3 31.1018 -2436 0 0 0 0 0
240 1 3 31.1018 -2433 0 0 0 0 0
241 1 3 31.1018 -2430 0 0 0 0 0
242 1 3 31.1018 -2427 0 0 0 0 0
243 1 3 31.1018 -2424 0 0 0 0 0
244 1 3 31.1018 -2421 0 0 0 0 0
245 1 3 31.1018 -2418 0 0 0 0 0
246 1 3 31.1018 -2415 0 0 0 0 0
247 1 3 31.1018 -2412 0 0 0 0 0
248 1 3 31.1018 -2409 0 0 0 0 0
249 1 3 31.1018 -2406 0 0 0 0 0
250 1 3 31.1018 -2403 0 0 0 0 0
251 1 3 31.1018 -2400 0 0 0 0 0
252 1 3 31.1018 -2397 0 0 0 0 0
253 1 3 31.1018 -2394 0 0 0 0 0
254 1 3 31.1018 -2391 0 0 0 0 0
255 1 3 31.1018 -2388 0 0 0 0 0
256 1 3 31.1018 -2385 0 0 0 0 0
257 1 3 31.1018 -2382 0 0 0 0 0
258 1 3 31.1018 -2379 0 0 0 0 0
259 1 3 31.1018 -2376 0 0 0 0 0
260 1 3 31.1018 -2373 0 0 0 0 0
261 1 3 31.1018 -2370 0 0 0 0 0
262 1 3 31.1018 -2367 0 0 0 0 0
263 1 3 31.1018 -2364 0 0 0 0 0
264 1 3 31.1018 -2361 0 0 0 0 0
265 1 3 31.1018 -2358 0 0 0 0 0
266 1 3 31.1018 -2355 0 0 0 0 0
267 1 3 31.1018 -2352 0 0 0 0 0
268 1 3 31.1018 -2349 0 0 0 0 0
269 1 3 31.1018 -2346 0 0 0 0 0
270 1 3 31.1018 -2343 0 0 0 0 0
271 1 3 31.1018 -2340 0 0 0 0 0
272 1 3 31.1018 -2337 0 0 0 0 0
273 1 3 31.1018 -2334 0 0 0 0 0
274 1 3 31.1018 -2331 0 0 0 0 0
275 1 3 31.1018 -2328 0 0 0 0 0
276 1 3 31.1018 -2325 0 0 0 0 0
277 1 3 31.1018 -2322 0 0 0 0 0
278 1 3 31.1018 -2319 0 0 0 0 0
279 1 3 31.1018 -2316 0 0 0 0 0
280 1 3 31.1018 -2313 0 0 0 0 0
281 1 3 31.1018 -2310 0 0 0 0 0
282 1 3 31.1018 -2307 0 0 0 0 0
283 1 3 31.1018 -2304 0 0 0 0 0
284 1 3 31.1018 -2301 0 0 0 0 0
285 1 3 31.1018 -2298 0 0 0 0 0
286 1 3 31.1018 -2295 0 0 0 0 0
287 1 3 31.1018 -2292 0 0 0 0 0
288 1 3 31.1018 -2289 0 0 0 0 0
289 1 3 31.1018 -2286 0 0 0 0 0
290 1 3 31.1018 -2283 0 0 0 0 0
291 1 3 31.1018 -2280 0 0 0 0 0
292 1 3 31.1018 -2277 0 0 0 0 0
293 1 3 31.1018 -2274 0 0 0 0 0
294 1 3 31.1018 -2271 0 0 0 0 0
295 1 3 31.1018 -2268 0 0 0 0 0
296 1 3 31.1018 -2265 0 0 0 0 0
297 1 3 31.1018 -2262 0 0 0 0 0
298 1 3 31.1018 -2259 0 0 0 0 0
299 1 3 31.1018 -2256 0 0 0 0 0
300 1 3 31.1018 -2253 0 0 0 0 0
301 1 3 31.1018 -2250 0 0 0 0 0
302 1 3 31.1018 -2247 0 0 0 0 0
303 1 3 31.1018 -2244 0 0 0 0 0
304 1 3 31.1018 -2241 0 0 0 0 0
305 1 3 31.1018 -2238 0 0 0 0 0
306 1 3 31.1018 -2235 0 0 0 0 0
307 1 3 31.1018 -2232 0 0 0 0 0
308 1 3 31.1018 -2229 0 0 0 0 0
309 1 3 31.1018 -2226 0 0 0 0 0
310 1 3 31.1018 -2223 0 0 0 0 0
311 1 3 31.1018 -2220 0 0 0 0 0
312 1 3 31.1018 -2217 0 0 0 0 0
313 1 3 31.1018 -2214 0 0 0 0 0
314 1 3 31.1018 -2211 0 0 0 0 0
315 1 3 31.1018 -2208 0 0 0 0 0
316 1 3 31.1018 -2205 0 0 0 0 0
317 1 3 31.1018 -2202 0 0 0 0 0
318 1 3 31.1018 -2199 0 0 0 0 0
319 1 3 31.1018 -2196 0 0 0 0 0
320 1 3 31.1018 -2193 0 0 0 0 0
321 1 3 31.1018 -2190 0 0 0 0 0
322 1 3 31.1018 -2187 0 0 0 0 0
323 1 3 31.1018 -2184 0 0 0 0 0
324 1 3 31.1018 -2181 0 0 0 0 0
325 1 3 31.1018 -2178 0 0 0 0 0
326 1 3 31.1018 -2175 0 0 0 0 0
327 1 3 31.1018 -2172 0 0 0 0 0
328 1 3 31.1018 -2169 0 0 0 0 0
329 1 3 31.1018 -2166 0 0 0 0 0
330 1 3 31.1018 -2163 0 0 0 0 0
331 1 3 31.1018 -2160 0 0 0 0 0
332 1 3 31.1018 -2157 0 0 0 0 0
333 1 3 31.1018 -2154 0 0 0 0 0
334 1 3 31.1018 -2151 0 0 0 0 0
335 1 3 31.1018 -2148 0 0 0 0 0
336 1 3 31.1018 -2145 0 0 0 0 0
337 1 3 31.1018 -2142 0 0 0 0 0
338 1 3 31.1018 -2139 0 0 0 0 0
339 1 3 31.1018 -2136 0 0 0 0 0
340 1 3 31.1018 -2133 0 0 0 0 0
341 1 3 31.1018 -2130 0 0 0 0 0
342 1 3 31.1018 -2127 0 0 0 0 0
343 1 3 31.1018 -2124 0 0 0 0 0
344 1 3 31.1018 -2121 0 0 0 0 0
345 1 3 31.1018 -2118 0 0 0 0 0
346 1 3 31.1018 -2115 0 0 0 0 0
347 1 3 31.1018 -2112 0 0 0 0 0
348 1 3 31.1018 -2109 0 0 0 0 0
349 1 3 31.1018 -2106 0 0 0 0 0
350 1 3 31.1018 -2103 0 0 0 0 0
351 1 3 31.1018 -2100 0 0 0 0 0
352 1 3 31.1018 -2097 0 0 0 0 0
353 1 3 31.1018 -2094 0 0 0 0 0
354 1 3 31.1018 -2091 0 0 0 0 0
355 1 3 31.1018 -2088 0 0 0 0 0
356 1 3 31.1018 -2085 0 0 0 0 0
357 1 3 31.1018 -2082 0 0 0 0 0
358 1 3 31.1018 -2079 0 0 0 0 0
359 1 3 31.1018 -2076 0 0 0 0 0
360 1 3 31.1018 -2073 0 0 0 0 0
361 1 3 31.1018 -2070 0 0 0 0 0
362 1 3 31.1018 -2067 0 0 0 0 0
363 1 3 31.1018 -2064 0 0 0 0 0
364 1 3 31.1018 -2061 0 0 0 0 0
365 1 3 31.1018 -2058 0 0 0 0 0
366 1 3 31.1018 -2055 0 0 0 0 0
367 1 3 31.1018 -2052 0 0 0 0 0
368 1 3 31.1018 -2049 0 0 0 0 0
369 1 3 31.1018 -2046 0 0 0 0 0
370 1 3 31.1018 -2043 0 0 0 0 0
371 1 3 31.1018 -2040 0 0 0 0 0
372 1 3 31.1018 -2037 0 0 0 0 0
373 1 3 31.1018 -2034 0 0 0 0 0
374 1 3 31.1018 -2031 0 0 0 0 0
375 1 3 31.1018 -2028 0 0 0 0 0
376 1 3 31.1018 -2025 0 0 0 0 0
377 1 3 31.1018 -2022 0 0 0 0 0
378 1 3 31.1018 -2019 0 0 0 0 0
379 1 3 31.1018 -2016 0 0 0 0 0
380 1 3 31.1018 -2013 0 0 0 0 0
381 1 3 31.1018 -2010 0 0 0 0 0
382 1 3 31.1018 -2007 0 0 0 0 0
383 1 3 31.1018 -2004 0 0 0 0 0
384 1 3 31.1018 -2001 0 0 0 0 0
385 1 3 31.1018 -1998 0 0 0 0 0
386 1 3 31.1018 -1995 0 0 0 0 0
387 1 3 31.1018 -1992 0 0 0 0 0
388 1 3 31.1018 -1989 0 0 0 0 0
389 1 3 31.1018 -1986 0 0 0 0 0
390 1 3 31.1018 -1983 0 0 0 0 0
391 1 3 31.1018 -1980 0 0 0 0 0
392 1 3 31.1018 -1977 0 0 0 0 0
393 1 3 31.1018 -1974 0 0 0 0 0
394 1 3 31.1018 -1971 0 0 0 0 0
395 1 3 31.1018 -1968 0 0 0 0 0
396 1 3 31.1018 -1965 0 0 0 0 0
397 1 3 31.1018 -1962 0 0 0 0 0
398 1 3 31.1018 -1959 0 0 0 0 0
399 1 3 31.1018 -1956 0 0 0 0 0
400 1 3 31.1018 -1953 0 0 0 0 0
401 1 3 31.1018 -1950 0 0 0 0 0
402 1 3 31.1018 -1947 0 0 0 0 0
403 1 3 31.1018 -1944 0 0 0 0 0
404 1 3 31.1018 -1941 0 0 0 0 0
405 1 3 31.1018 -1938 0 0 0 0 0
406 1 3 31.1018 -1935 0 0 0 0 0
407 1 3 31.1018 -1932 0 0 0 0 0
408 1 3 31.1018 -1929 0 0 0 0 0
409 1 3 31.1018 -1926 0 0 0 0 0
410 1 3 31.1018 -1923 0 0 0 0 0
411 1 3 31.1018 -1920 0 0 0 0 0
412 1 3 31.1018 -1917 0 0 0 0 0
413 1 3 31.1018 -1914 0 0 0 0 0
414 1 3 31.1018 -1911 0 0 0 0 0
415 1 3 31.1018 -1908 0 0 0 0 0
416 1 3 31.1018 -1905 0 0 0 0 0
417 1 3 31.1018 -1902 0 0 0 0 0
418 1 3 31.1018 -1899 0 0 0 0 0
419 1 3 31.1018 -1896 0 0 0 0 0
420 1 3 31.1018 -1893 0 0 0 0 0
421 1 3 31.1018 -1890 0 0 0 0 0
422 1 3 31.1018 -1887 0 0 0 0 0
423 1 3 31.1018 -1884 0 0 0 0 0
424 1 3 31.1018 -1881 0 0 0 0 0
425 1 3 31.1018 -1878 0 0 0 0 0
426 1 3 31.1018 -1875 0 0 0 0 0
427 1 3 31.1018 -1872 0 0 0 0 0
428 1 3 31.1018 -1869 0 0 0 0 0
429 1 3 31.1018 -1866 0 0 0 0 0
430 1 3 31.1018 -1863 0 0 0 0 0
431 1 3 31.1018 -1860 0 0 0 0 0
432 1 3 31.1018 -1857 0 0 0 0 0
433 1 3 31.1018 -1854 0 0 0 0 0
434 1 3 31.1018 -1851 0 0 0 0 0
435 1 3 31.1018 -1848 0 0 0 0 0
436 1 3 31.1018 -1845 0 0 0 0 0
437 1 3 31.1018 -1842 0 0 0 0 0
438 1 3 31.1018 -1839 0 0 0 0 0
439 1 3 31.1018 -1836 0 0 0 0 0
440 1 3 31.1018 -1833 0 0 0 0 0
441 1 3 31.1018 -1830 0 0 0 0 0
442 1 3 31.1018 -1827 0 0 0 0 0
443 1 3 31.1018 -1824 0 0 0 0 0
444 1 3 31.1018 -1821 0 0 0 0 0
445 1 3 31.1018 -1818 0 0 0 0 0
446 1 3 31.1018 -1815 0 0 0 0 0
447 1 3 31.1018 -1812 0 0 0 0 0
448 1 3 31.1018 -1809 0 0 0 0 0
449 1 3 31.1018 -1806 0 0 0 0 0
450 1 3 31.1018 -1803 0 0 0 0 0
451 1 3 31.1018 -1800 0 0 0 0 0
452 1 3 31.1018 -1797 0 0 0 0 0
453 1 3 31.1018 -1794 0 0 0 0 0
454 1 3 31.1018 -1791 0 0 0 0 0
455 1 3 31.1018 -1788 0 0 0 0 0
456 1 3 31.1018 -1785 0 0 0 0 0
457 1 3 31.1018 -1782 0 0 0 0 0
458 1 3 31.1018 -1779 0 0 0 0 0
459 1 3 31.1018 -1776 0 0 0 0 0
460 1 3 31.1018 -1773 0 0 0 0 0
461 1 3 31.1018 -1770 0 0 0 0 0
462 1 3 31.1018 -1767 0 0 0 0 0
463 1 3 31.1018 -1764 0 0 0 0 0
464 1 3 31.1018 -1761 0 0 0 0 0
465 1 3 31.1018 -1758 0 0 0 0 0
466 1 3 31.1018 -1755 0 0 0 0 0
467 1 3 31.1018 -1752 0 0 0 0 0
468 1 3 31.1018 -1749 0 0 0 0 0
469 1 3 31.1018 -1746 0 0 0 0 0
470 1 3 31.1018 -1743 0 0 0 0 0
471 1 3 31.1018 -1740 0 0 0 0 0
472 1 3 31.1018 -1737 0 0 0 0 0
473 1 3 31.1018 -1734 0 0 0 0 0
474 1 3 31.1018 -1731 0 0 0 0 0
475 1 3 31.1018 -1728 0 0 0 0 0
476 1 3 31.1018 -1725 0 0 0 0 0
477 1 3 31.1018 -1722 0 0 0 0 0
478 1 3 31.1018 -1719 0 0 0 0 0
479 1 3 31.1018 -1716 0 0 0 0 0
480 1 3 31.1018 -1713 0 0 0 0 0
481 1 3 31.1018 -1710 0 0 0 0 0
482 1 3 31.1018 -1707 0 0 0 0 0
483 1 3 31.1018 -1704 0 0 0 0 0
484 1 3 31.1018 -1701 0 0 0 0 0
485 1 3 31.1018 -1698 0 0 0 0 0
486 1 3 31.1018 -1695 0 0 0 0 0
487 1 3 31.1018 -1692 0 0 0 0 0
488 1 3 31.1018 -1689 0 0 0 0 0
489 1 3 31.1018 -1686 0 0 0 0 0
490 1 3 31.1018 -1683 0 0 0 0 0
491 1 3 31.1018 -1680 0 0 0 0 0
492 1 3 31.1018 -1677 0 0 0 0 0
493 1 3 31.1018 -1674 0 0 0 0 0
494 1 3 31.1018 -1671 0 0 0 0 0
495 1 3 31.1018 -1668 0 0 0 0 0
496 1 3 31.1018 -1665 0 0 0 0 0
497 1 3 31.1018 -1662 0 0 0 0 0
498 1 3 31.1018 -1659 0 0 0 0 0
499 1 3 31.1018 -1656 0 0 0 0 0
500 1 3 31.1018 -1653 0 0 0 0 0
501 1 3 31.1018 -1650 0 0 0 0 0
502 1 3 31.1018 -1647 0 0 0 0 0
503 1 3 31.1018 -1644 0 0 0 0 0
504 1 3 31.1018 -1641 0 0 0 0 0
505 1 3 31.1018 -1638 0 0 0 0 0
506 1 3 31.1018 -1635 0 0 0 0 0
507 1 3 31.1018 -1632 0 0 0 0 0
508 1 3 31.1018 -1629 0 0 0 0 0
509 1 3 31.1018 -1626 0 0 0 0 0
510 1 3 31.1018 -1623 0 0 0 0 0
511 1 3 31.1018 -1620 0 0 0 0 0
512 1 3 31.1018 -1617 0 0 0 0 0
513 1 3 31.1018 -1614 0 0 0 0 0
514 1 3 31.1018 -1611 0 0 0 0 0
515 1 3 31.1018 -1608 0 0 0 0 0
516 1 3 31.1018 -1605 0 0 0 0 0
517 1 3 31.1018 -1602 0 0 0 0 0
518 1 3 31.1018 -1599 0 0 0 0 0
519 1 3 31.1018 -1596 0 0 0 0 0
520 1 3 31.1018 -1593 0 0 0 0 0
521 1 3 31.1018 -1590 0 0 0 0 0
522 1 3 31.1018 -1587 0 0 0 0 0
523 1 3 31.1018 -1584 0 0 0 0 0
524 1 3 31.1018 -1581 0 0 0 0 0
525 1 3 31.1018 -1578 0 0 0 0 0
2101 2 3 31.1018 -2104.50010136450601 4.10914e-21 2.59757461285437463 0.0725536 0 -0.00112791
2102 2 3 31.1018 -2101.50010136450646 4.10327e-21 2.59757461284249658 0.0724499 0 -0.00112629
2103 2 3 31.1018 -2098.50010136450692 4.0974e-21 2.59757461283061808 0.0723463 0 -0.00112467
2104 2 3 31.1018 -2095.50010136450737 4.09153e-21 2.59757461281874003 0.0722426 0 -0.00112305
2105 2 3 31.1018 -2092.50010136450783 4.08566e-21 2.59757461280686197 0.072139 0 -0.00112143
2106 2 3 31.1018 -2089.50010136450828 4.07979e-21 2.59757461279498392 0.0720353 0 -0.00111982
2107 2 3 31.1018 -2086.50010136450874 4.07392e-21 2.59757461278310542 0.0719317 0 -0.0011182
2108 2 3 31.1018 -2083.50010136450919 4.06805e-21 2.59757461277122736 0.071828 0 -0.00111658
2109 2 3 31.1018 -2080.50010136450965 4.06218e-21 2.59757461275934931 0.0717244 0 -0.00111496
2110 2 3 31.1018 -2077.5001013645101 4.05631e-21 2.59757461274747126 0.0716207 0 -0.00111334
2111 2 3 31.1018 -2074.50010136451056 4.05044e-21 2.59757461273559276 0.071517 0 -0.00111172
2112 2 3 31.1018 -2071.50010136451101 4.04457e-21 2.5975746127237147 0.0714134 0 -0.0011101
2113 2 3 31.1018 -2068.50010136451147 4.0387e-21 2.59757461271183665 0.0713097 0 -0.00110848
2114 2 3 31.1018 -2065.50010136451192 4.03283e-21 2.5975746126999586 0.0712061 0 -0.00110686
2115 2 3 31.1018 -2062.50010136451237 4.02695e-21 2.5975746126880801 0.0711024 0 -0.00110524
2116 2 3 31.1018 -2059.50010136451283 4.02108e-21 2.59757461267620204 0.0709988 0 -0.00110362
2117 2 3 31.1018 -2056.50010136451328 4.01521e-21 2.59757461266432399 0.0708951 0 -0.001102
2118 2 3 31.1018 -2053.50010136451374 4.00934e-21 2.59757461265244594 0.0707915 0 -0.00110038
2119 2 3 31.1018 -2050.50010136451419 4.00347e-21 2.59757461264056744 0.0706878 0 -0.00109876
2120 2 3 31.1018 -2047.50010136451465 3.9976e-21 2.59757461262868938 0.0705842 0 -0.00109714
2121 2 3 31.1018 -2044.5001013645151 3.99173e-21 2.59757461261681133 0.0704805 0 -0.00109553
2122 2 3 31.1018 -2041.50010136451556 3.98586e-21 2.59757461260493328 0.0703769 0 -0.00109391
2123 2 3 31.1018 -2038.50010136451601 3.97999e-21 2.59757461259305478 0.0702732 0 -0.00109229
2124 2 3 31.1018 -2035.50010136451647 3.97412e-21 2.59757461258117672 0.0701696 0 -0.00109067
2125 2 3 31.1018 -2032.50010136451692 3.96825e-21 2.59757461256929867 0.0700659 0 -0.00108905
2126 2 3 31.1018 -2029.50010136451738 3.96238e-21 2.59757461255742061 0.0699623 0 -0.00108743
2127 2 3 31.1018 -2026.50010136451783 3.95651e-21 2.59757461254554212 0.0698586 0 -0.00108581
2128 2 3 31.1018 -2023.50010136451829 3.95064e-21 2.59757461253366406 0.069755 0 -0.00108419
2129 2 3 31.1018 -2020.50010136451874 3.94477e-21 2.59757461252178601 0.0696513 0 -0.00108257
2130 2 3 31.1018 -2017.5001013645192 3.9389e-21 2.59757461250990795 0.0695476 0 -0.00108095
2131 2 3 31.1018 -2014.50010136451965 3.93303e-21 2.59757461249802946 0.069444 0 -0.00107933
2132 2 3 31.1018 -2011.50010136452011 3.92716e-21 2.5975746124861514 0.0693403 0 -0.00107771
2133 2 3 31.1018 -2008.50010136452056 3.92129e-21 2.59757461247427335 0.0692367 0 -0.00107609
2134 2 3 31.1018 -2005.50010136452102 3.91542e-21 2.59757461246239529 0.069133 0 -0.00107447
2135 2 3 31.1018 -2002.50010136452147 3.90955e-21 2.5975746124505168 0.0690294 0 -0.00107285
2136 2 3 31.1018 -1999.50010136452192 3.90368e-21 2.59757461243863874 0.0689257 0 -0.00107123
2137 2 3 31.1018 -1996.50010136452238 3.89781e-21 2.59757461242676069 0.0688221 0 -0.00106962
2138 2 3 31.1018 -1993.50010136452283 3.89194e-21 2.59757461241488263 0.0687184 0 -0.001068
2139 2 3 31.1018 -1990.50010136452329 3.88607e-21 2.59757461240300414 0.0686148 0 -0.00106638
2140 2 3 31.1018 -1987.50010136452374 3.8802e-21 2.59757461239112608 0.0685111 0 -0.00106476
2141 2 3 31.1018 -1984.5001013645242 3.87433e-21 2.59757461237924803 0.0684075 0 -0.00106314
2142 2 3 31.1018 -1981.50010136452465 3.86846e-21 2.59757461236736997 0.0683038 0 -0.00106152
2143 2 3 31.1018 -1978.50010136452511 3.86259e-21 2.59757461235549147 0.0682002 0 -0.0010599
2144 2 3 31.1018 -1975.50010136452556 3.85672e-21 2.59757461234361342 0.0680965 0 -0.00105828
2145 2 3 31.1018 -1972.50010136452602 3.85085e-21 2.59757461233173537 0.0679929 0 -0.00105666
2146 2 3 31.1018 -1969.50010136452647 3.84498e-21 2.59757461231985731 0.0678892 0 -0.00105504
2147 2 3 31.1018 -1966.50010136452693 3.83911e-21 2.59757461230797881 0.0677856 0 -0.00105342
2148 2 3 31.1018 -1963.50010136452738 3.83324e-21 2.59757461229610076 0.0676819 0 -0.0010518
2149 2 3 31.1018 -1960.50010136452784 3.82737e-21 2.59757461228422271 0.0675782 0 -0.00105018
2150 2 3 31.1018 -1957.50010136452829 3.8215e-21 2.59757461227234465 0.0674746 0 -0.00104856
2151 2 3 31.1018 -1954.50010136452875 3.81563e-21 2.59757461226046615 0.0673709 0 -0.00104694
2152 2 3 31.1018 -1951.5001013645292 3.80976e-21 2.5975746122485881 0.0672673 0 -0.00104532
2153 2 3 31.1018 -1948.50010136452966 3.80389e-21 2.59757461223671005 0.0671636 0 -0.0010437
2154 2 3 31.1018 -1945.50010136453011 3.79802e-21 2.59757461222483199 0.06706 0 -0.00104209
2155 2 3 31.1018 -1942.50010136453056 3.79215e-21 2.59757461221295349 0.0669563 0 -0.00104047
2156 2 3 31.1018 -1939.50010136453102 3.78628e-21 2.59757461220107544 0.0668527 0 -0.00103885
2157 2 3 31.1018 -1936.50010136453147 3.78041e-21 2.59757461218919738 0.066749 0 -0.00103723
2158 2 3 31.1018 -1933.50010136453193 3.77454e-21 2.59757461217731933 0.0666454 0 -0.00103561
2159 2 3 31.1018 -1930.50010136453238 3.76867e-21 2.59757461216544083 0.0665417 0 -0.00103399
2160 2 3 31.1018 -1927.50010136453284 3.7628e-21 2.59757461215356278 0.0664381 0 -0.00103237
2161 2 3 31.1018 -1924.50010136453329 3.75693e-21 2.59757461214168472 0.0663344 0 -0.00103075
2162 2 3 31.1018 -1921.50010136453375 3.75106e-21 2.59757461212980667 0.0662308 0 -0.00102913
2163 2 3 31.1018 -1918.5001013645342 3.74519e-21 2.59757461211792817 0.0661271 0 -0.00102751
2164 2 3 31.1018 -1915.50010136453466 3.73932e-21 2.59757461210605012 0.0660235 0 -0.00102589
2165 2 3 31.1018 -1912.50010136453511 3.73345e-21 2.59757461209417206 0.0659198 0 -0.00102427
2166 2 3 31.1018 -1909.50010136453557 3.72757e-21 2.59757461208229401 0.0658162 0 -0.00102265
2167 2 3 31.1018 -1906.50010136453602 3.7217e-21 2.59757461207041551 0.0657125 0 -0.00102103
2168 2 3 31.1018 -1903.50010136453648 3.71583e-21 2.59757461205853746 0.0656088 0 -0.00101941
2169 2 3 31.1018 -1900.50010136453693 3.70996e-21 2.5975746120466594 0.0655052 0 -0.00101779
2170 2 3 31.1018 -1897.50010136453739 3.70409e-21 2.59757461203478135 0.0654015 0 -0.00101618
2171 2 3 31.1018 -1894.50010136453784 3.69822e-21 2.59757461202290285 0.0652979 0 -0.00101455
2172 2 3 31.1018 -1891.5001013645383 3.69235e-21 2.5975746120110248 0.0651942 0 -0.00101294
2173 2 3 31.1018 -1888.50010136453875 3.68648e-21 2.59757461199914674 0.0650906 0 -0.00101132
2174 2 3 31.1018 -1885.5001013645392 3.68061e-21 2.59757461198726869 0.0649869 0 -0.0010097
2175 2 3 31.1018 -1882.50010136453966 3.67474e-21 2.59757461197539019 0.0648833 0 -0.00100808
2176 2 3 31.1018 -1879.50010136454011 3.66887e-21 2.59757461196351214 0.0647796 0 -0.00100646
2177 2 3 31.1018 -1876.50010136454057 3.663e-21 2.59757461195163408 0.064676 0 -0.00100484
2178 2 3 31.1018 -1873.50010136454102 3.65713e-21 2.59757461193975603 0.0645723 0 -0.00100322
2179 2 3 31.1018 -1870.50010136454148 3.65126e-21 2.59757461192787753 0.0644687 0 -0.0010016
2180 2 3 31.1018 -1867.50010136454193 3.64539e-21 2.59757461191599948 0.064365 0 -0.000999982
2181 2 3 31.1018 -1864.50010136454239 3.63952e-21 2.59757461190412142 0.0642614 0 -0.000998362
2182 2 3 31.1018 -1861.50010136454284 3.63365e-21 2.59757461189224337 0.0641577 0 -0.000996744
2183 2 3 31.1018 -1858.5001013645433 3.62778e-21 2.59757461188036487 0.0640541 0 -0.000995124
2184 2 3 31.1018 -1855.50010136454375 3.62191e-21 2.59757461186848682 0.0639504 0 -0.000993504
2185 2 3 31.1018 -1852.50010136454421 3.61604e-21 2.59757461185660876 0.0638468 0 -0.000991885
2186 2 3 31.1018 -1849.50010136454466 3.61017e-21 2.59757461184473071 0.0637431 0 -0.000990266
2187 2 3 31.1018 -1846.50010136454512 3.6043e-21 2.59757461183285221 0.0636394 0 -0.000988645
2188 2 3 31.1018 -1843.50010136454557 3.59843e-21 2.59757461182097416 0.0635358 0 -0.000987027
2189 2 3 31.1018 -1840.50010136454603 3.59256e-21 2.5975746118090961 0.0634321 0 -0.000985408
2190 2 3 31.1018 -1837.50010136454648 3.58669e-21 2.59757461179721805 0.0633285 0 -0.000983788
2191 2 3 31.1018 -1834.50010136454694 3.58082e-21 2.59757461178533955 0.0632248 0 -0.000982167
2192 2 3 31.1018 -1831.50010136454739 3.57495e-21 2.59757461177346149 0.0631212 0 -0.000980549
2193 2 3 31.1018 -1828.50010136454785 3.56908e-21 2.59757461176158344 0.0630175 0 -0.00097893
2194 2 3 31.1018 -1825.5001013645483 3.56321e-21 2.59757461174970539 0.0629139 0 -0.000977311
2195 2 3 31.1018 -1822.50010136454875 3.55734e-21 2.59757461173782689 0.0628102 0 -0.000975692
2196 2 3 31.1018 -1819.50010136454921 3.55147e-21 2.59757461172594883 0.0627066 0 -0.000974071
2197 2 3 31.1018 -1816.50010136454966 3.5456e-21 2.59757461171407078 0.0626029 0 -0.000972451
2198 2 3 31.1018 -1813.50010136455012 3.53973e-21 2.59757461170219273 0.0624993 0 -0.000970835
2199 2 3 31.1018 -1810.50010136455057 3.53386e-21 2.59757461169031423 0.0623956 0 -0.000969213
2200 2 3 31.1018 -1807.50010136455103 3.52799e-21 2.59757461167843617 0.062292 0 -0.000967595
2201 2 3 31.1018 -1804.50010136455148 3.52212e-21 2.59757461166655812 0.0621883 0 -0.000965974
2202 2 3 31.1018 -1801.50010136455194 3.51625e-21 2.59757461165468007 0.0620847 0 -0.000964356
2203 2 3 31.1018 -1798.50010136455239 3.51038e-21 2.59757461164280157 0.061981 0 -0.000962736
2204 2 3 31.1018 -1795.50010136455285 3.50451e-21 2.59757461163092351 0.0618774 0 -0.000961116
2205 2 3 31.1018 -1792.5001013645533 3.49864e-21 2.59757461161904546 0.0617737 0 -0.000959498
2206 2 3 31.1018 -1789.50010136455376 3.49277e-21 2.59757461160716741 0.06167 0 -0.000957879
2207 2 3 31.1018 -1786.50010136455421 3.4869e-21 2.59757461159528891 0.0615664 0 -0.000956259
2208 2 3 31.1018 -1783.50010136455467 3.48103e-21 2.59757461158341085 0.0614627 0 -0.00095464
2209 2 3 31.1018 -1780.50010136455512 3.47516e-21 2.5975746115715328 0.0613591 0 -0.00095302
2210 2 3 31.1018 -1777.50010136455558 3.46929e-21 2.59757461155965474 0.0612554 0 -0.000951401
2211 2 3 31.1018 -1774.50010136455603 3.46342e-21 2.59757461154777625 0.0611518 0 -0.00094978
2212 2 3 31.1018 -1771.50010136455649 3.45755e-21 2.59757461153589819 0.0610481 0 -0.000948163
2213 2 3 31.1018 -1768.50010136455694 3.45168e-21 2.59757461152402014 0.0609445 0 -0.000946542
2214 2 3 31.1018 -1765.50010136455739 3.44581e-21 2.59757461151214208 0.0608408 0 -0.000944924
2215 2 3 31.1018 -1762.50010136455785 3.43994e-21 2.59757461150026359 0.0607372 0 -0.000943304
2216 2 3 31.1018 -1759.5001013645583 3.43406e-21 2.59757461148838553 0.0606335 0 -0.000941685
2217 2 3 31.1018 -1756.50010136455876 3.42819e-21 2.59757461147650748 0.0605299 0 -0.000940065
2218 2 3 31.1018 -1753.50010136455921 3.42232e-21 2.59757461146462942 0.0604262 0 -0.000938447
2219 2 3 31.1018 -1750.50010136455967 3.41645e-21 2.59757461145275093 0.0603226 0 -0.000936826
2220 2 3 31.1018 -1747.50010136456012 3.41058e-21 2.59757461144087287 0.0602189 0 -0.000935207
2221 2 3 31.1018 -1744.50010136456058 3.40471e-21 2.59757461142899482 0.0601153 0 -0.000933589
2222 2 3 31.1018 -1741.50010136456103 3.39884e-21 2.59757461141711676 0.0600116 0 -0.000931969
2223 2 3 31.1018 -1738.50010136456149 3.39297e-21 2.59757461140523827 0.0599079 0 -0.000930349
2224 2 3 31.1018 -1735.50010136456194 3.3871e-21 2.59757461139336021 0.0598043 0 -0.00092873
2225 2 3 31.1018 -1732.5001013645624 3.38123e-21 2.59757461138148216 0.0597006 0 -0.000927111
2226 2 3 31.1018 -1729.50010136456285 3.37536e-21 2.5975746113696041 0.059597 0 -0.000925493
2227 2 3 31.1018 -1726.50010136456331 3.36949e-21 2.5975746113577256 0.0594933 0 -0.000923872
2228 2 3 31.1018 -1723.50010136456376 3.36362e-21 2.59757461134584755 0.0593897 0 -0.000922254
2229 2 3 31.1018 -1720.50010136456422 3.35775e-21 2.5975746113339695 0.059286 0 -0.000920632
2230 2 3 31.1018 -1717.50010136456467 3.35188e-21 2.59757461132209144 0.0591824 0 -0.000919015
2231 2 3 31.1018 -1714.50010136456513 3.34601e-21 2.59757461131021294 0.0590787 0 -0.000917395
2232 2 3 31.1018 -1711.50010136456558 3.34014e-21 2.59757461129833489 0.0589751 0 -0.000915776
2233 2 3 31.1018 -1708.50010136456604 3.33427e-21 2.59757461128645684 0.0588714 0 -0.000914157
2234 2 3 31.1018 -1705.50010136456649 3.3284e-21 2.59757461127457878 0.0587678 0 -0.000912537
2235 2 3 31.1018 -1702.50010136456694 3.32253e-21 2.59757461126270028 0.0586641 0 -0.000910917
2236 2 3 31.1018 -1699.5001013645674 3.31666e-21 2.59757461125082223 0.0585605 0 -0.000909298
2237 2 3 31.1018 -1696.50010136456785 3.31079e-21 2.59757461123894418 0.0584568 0 -0.00090768
2238 2 3 31.1018 -1693.50010136456831 3.30492e-21 2.59757461122706612 0.0583532 0 -0.000906061