ITEM: TIMESTEP
4100000
ITEM: NUMBER OF ATOMS
1501
ITEM: BOX BOUNDS pp pp pp
-1.3500000000000000e+03 1.3500000000000000e+03
-1.0000000000000000e+02 1.0000000000000000e+02
-1.0000000000000000e+02 1.0000000000000000e+02
ITEM: ATOMS id type diameter mass xu yu zu fx fy fz
1 1 3 31.1018 -1350 0 0 0 0 0
2 1 3 31.1018 -1347 0 0 0 0 0
3 1 3 31.1018 -1344 0 0 0 0 0
4 1 3 31.1018 -1341 0 0 0 0 0
5 1 3 31.1018 -1338 0 0 0 0 0
6 1 3 31.1018 -1335 0 0 0 0 0
7 1 3 31.1018 -1332 0 0 0 0 0
8 1 3 31.1018 -1329 0 0 0 0 0
9 1 3 31.1018 -1326 0 0 0 0 0
10 1 3 31.1018 -1323 0 0 0 0 0
11 1 3 31.1018 -1320 0 0 0 0 0
12 1 3 31.1018 -1317 0 0 0 0 0
13 1 3 31.1018 -1314 0 0 0 0 0
14 1 3 31.1018 -1311 0 0 0 0 0
15 1 3 31.1018 -1308 0 0 0 0 0
16 1 3 31.1018 -1305 0 0 0 0 0
17 1 3 31.1018 -1302 0 0 0 0 0
18 1 3 31.1018 -1299 0 0 0 0 0
19 1 3 31.1018 -1296 0 0 0 0 0
20 1 3 31.1018 -1293 0 0 0 0 0
21 1 3 31.1018 -1290 0 0 0 0 0
22 1 3 31.1018 -1287 0 0 0 0 0
23 1 3 31.1018 -1284 0 0 0 0 0
24 1 3 31.1018 -1281 0 0 0 0 0
25 1 3 31.1018 -1278 0 0 0 0 0
26 1 3 31.1018 -1275 0 0 0 0 0
27 1 3 31.1018 -1272 0 0 0 0 0
28 1 3 31.1018 -1269 0 0 0 0 0
29 1 3 31.1018 -1266 0 0 0 0 0
30 1 3 31.1018 -1263 0 0 0 0 0
31 1 3 31.1018 -1260 0 0 0 0 0
32 1 3 31.1018 -1257 0 0 0 0 0
33 1 3 31.1018 -1254 0 0 0 0 0
34 1 3 31.1018 -1251 0 0 0 0 0
35 1 3 31.1018 -1248 0 0 0 0 0
36 1 3 31.1018 -1245 0 0 0 0 0
37 1 3 31.1018 -1242 0 0 0 0 0
38 1 3 31.1018 -1239 0 0 0 0 0
39 1 3 31.1018 -1236 0 0 0 0 0
40 1 3 31.1018 -1233 0 0 0 0 0
41 1 3 31.1018 -1230 0 0 0 0 0
42 1 3 31.1018 -1227 0 0 0 0 0
43 1 3 31.1018 -1224 0 0 0 0 0
44 1 3 31.1018 -1221 0 0 0 0 0
45 1 3 31.1018 -1218 0 0 0 0 0
46 1 3 31.1018 -1215 0 0 0 0 0
47 1 3 31.1018 -1212 0 0 0 0 0
48 1 3 31.1018 -1209 0 0 0 0 0
49 1 3 31.1018 -1206 0 0 0 0 0
50 1 3 31.1018 -1203 0 0 0 0 0
51 1 3 31.1018 -1200 0 0 0 0 0
52 1 3 31.1018 -1197 0 0 0 0 0
53 1 3 31.1018 -1194 0 0 0 0 0
54 1 3 31.1018 -1191 0 0 0 0 0
55 1 3 31.1018 -1188 0 0 0 0 0
56 1 3 31.1018 -1185 0 0 0 0 0
57 1 3 31.1018 -1182 0 0 0 0 0
58 1 3 31.1018 -1179 0 0 0 0 0
59 1 3 31.1018 -1176 0 0 0 0 0
60 1 3 31.1018 -1173 0 0 0 0 0
61 1 3 31.1018 -1170 0 0 0 0 0
62 1 3 31.1018 -1167 0 0 0 0 0
63 1 3 31.1018 -1164 0 0 0 0 0
64 1 3 31.1018 -1161 0 0 0 0 0
65 1 3 31.1018 -1158 0 0 0 0 0
66 1 3 31.1018 -1155 0 0 0 0 0
67 1 3 31.1018 -1152 0 0 0 0 0
68 1 3 31.1018 -1149 0 0 0 0 0
69 1 3 31.1018 -1146 0 0 0 0 0
70 1 3 31.1018 -1143 0 0 0 0 0
71 1 3 31.1018 -1140 0 0 0 0 0
72 1 3 31.1018 -1137 0 0 0 0 0
73 1 3 31.1018 -1134 0 0 0 0 0
74 1 3 31.1018 -1131 0 0 0 0 0
75 1 3 31.1018 -1128 0 0 0 0 0
76 1 3 31.1018 -1125 0 0 0 0 0
77 1 3 31.1018 -1122 0 0 0 0 0
78 1 3 31.1018 -1119 0 0 0 0 0
79 1 3 31.1018 -1116 0 0 0 0 0
80 1 3 31.1018 -1113 0 0 0 0 0
81 1 3 31.1018 -1110 0 0 0 0 0
82 1 3 31.1018 -1107 0 0 0 0 0
83 1 3 31.1018 -1104 0 0 0 0 0
84 1 3 31.1018 -1101 0 0 0 0 0
85 1 3 31.1018 -1098 0 0 0 0 0
86 1 3 31.1018 -1095 0 0 0 0 0
87 1 3 31.1018 -1092 0 0 0 0 0
88 1 3 31.1018 -1089 0 0 0 0 0
89 1 3 31.1018 -1086 0 0 0 0 0
90 1 3 31.1018 -1083 0 0 0 0 0
91 1 3 31.1018 -1080 0 0 0 0 0
92 1 3 31.1018 -1077 0 0 0 0 0
93 1 3 31.1018 -1074 0 0 0 0 0
94 1 3 31.1018 -1071 0 0 0 0 0
95 1 3 31.1018 -1068 0 0 0 0 0
96 1 3 31.1018 -1065 0 0 0 0 0
97 1 3 31.1018 -1062 0 0 0 0 0
98 1 3 31.1018 -1059 0 0 0 0 0
99 1 3 31.1018 -1056 0 0 0 0 0
100 1 3 31.1018 -1053 0 0 0 0 0
101 1 3 31.1018 -1050 0 0 0 0 0
102 1 3 31.1018 -1047 0 0 0 0 0
103 1 3 31.1018 -1044 0 0 0 0 0
104 1 3 31.1018 -1041 0 0 0 0 0
105 1 3 31.1018 -1038 0 0 0 0 0
106 1 3 31.1018 -1035 0 0 0 0 0
107 1 3 31.1018 -1032 0 0 0 0 0
108 1 3 31.1018 -1029 0 0 0 0 0
109 1 3 31.1018 -1026 0 0 0 0 0
110 1 3 31.1018 -1023 0 0 0 0 0
111 1 3 31.1018 -1020 0 0 0 0 0
112 1 3 31.1018 -1017 0 0 0 0 0
113 1 3 31.1018 -1014 0 0 0 0 0
114 1 3 31.1018 -1011 0 0 0 0 0
115 1 3 31.1018 -1008 0 0 0 0 0
116 1 3 31.1018 -1005 0 0 0 0 0
117 1 3 31.1018 -1002 0 0 0 0 0
118 1 3 31.1018 -999 0 0 0 0 0
119 1 3 31.1018 -996 0 0 0 0 0
120 1 3 31.1018 -993 0 0 0 0 0
121 1 3 31.1018 -990 0 0 0 0 0
122 1 3 31.1018 -987 0 0 0 0 0
123 1 3 31.1018 -984 0 0 0 0 0
124 1 3 31.1018 -981 0 0 0 0 0
125 1 3 31.1018 -978 0 0 0 0 0
126 1 3 31.1018 -975 0 0 0 0 0
127 1 3 31.1018 -972 0 0 0 0 0
128 1 3 31.1018 -969 0 0 0 0 0
129 1 3 31.1018 -966 0 0 0 0 0
130 1 3 31.1018 -963 0 0 0 0 0
131 1 3 31.1018 -960 0 0 0 0 0
132 1 3 31.1018 -957 0 0 0 0 0
133 1 3 31.1018 -954 0 0 0 0 0
134 1 3 31.1018 -951 0 0 0 0 0
135 1 3 31.1018 -948 0 0 0 0 0
136 1 3 31.1018 -945 0 0 0 0 0
137 1 3 31.1018 -942 0 0 0 0 0
138 1 3 31.1018 -939 0 0 0 0 0
139 1 3 31.1018 -936 0 0 0 0 0
140 1 3 31.1018 -933 0 0 0 0 0
141 1 3 31.1018 -930 0 0 0 0 0
142 1 3 31.1018 -927 0 0 0 0 0
143 1 3 31.1018 -924 0 0 0 0 0
144 1 3 31.1018 -921 0 0 0 0 0
145 1 3 31.1018 -918 0 0 0 0 0
146 1 3 31.1018 -915 0 0 0 0 0
147 1 3 31.1018 -912 0 0 0 0 0
148 1 3 31.1018 -909 0 0 0 0 0
149 1 3 31.1018 -906 0 0 0 0 0
150 1 3 31.1018 -903 0 0 0 0 0
151 1 3 31.1018 -900 0 0 0 0 0
152 1 3 31.1018 -897 0 0 0 0 0
153 1 3 31.1018 -894 0 0 0 0 0
154 1 3 31.1018 -891 0 0 0 0 0
155 1 3 31.1018 -888 0 0 0 0 0
156 1 3 31.1018 -885 0 0 0 0 0
157 1 3 31.1018 -882 0 0 0 0 0
158 1 3 31.1018 -879 0 0 0 0 0
159 1 3 31.1018 -876 0 0 0 0 0
160 1 3 31.1018 -873 0 0 0 0 0
161 1 3 31.1018 -870 0 0 0 0 0
162 1 3 31.1018 -867 0 0 0 0 0
163 1 3 31.1018 -864 0 0 0 0 0
164 1 3 31.1018 -861 0 0 0 0 0
165 1 3 31.1018 -858 0 0 0 0 0
166 1 3 31.1018 -855 0 0 0 0 0
167 1 3 31.1018 -852 0 0 0 0 0
168 1 3 31.1018 -849 0 0 0 0 0
169 1 3 31.1018 -846 0 0 0 0 0
170 1 3 31.1018 -843 0 0 0 0 0
171 1 3 31.1018 -840 0 0 0 0 0
172 1 3 31.1018 -837 0 0 0 0 0
173 1 3 31.1018 -834 0 0 0 0 0
174 1 3 31.1018 -831 0 0 0 0 0
175 1 3 31.1018 -828 0 0 0 0 0
176 1 3 31.1018 -825 0 0 0 0 0
177 1 3 31.1018 -822 0 0 0 0 0
178 1 3 31.1018 -819 0 0 0 0 0
179 1 3 31.1018 -816 0 0 0 0 0
180 1 3 31.1018 -813 0 0 0 0 0
181 1 3 31.1018 -810 0 0 0 0 0
182 1 3 31.1018 -807 0 0 0 0 0
183 1 3 31.1018 -804 0 0 0 0 0
184 1 3 31.1018 -801 0 0 0 0 0
185 1 3 31.1018 -798 0 0 0 0 0
186 1 3 31.1018 -795 0 0 0 0 0
187 1 3 31.1018 -792 0 0 0 0 0
188 1 3 31.1018 -789 0 0 0 0 0
189 1 3 31.1018 -786 0 0 0 0 0
190 1 3 31.1018 -783 0 0 0 0 0
191 1 3 31.1018 -780 0 0 0 0 0
192 1 3 31.1018 -777 0 0 0 0 0
193 1 3 31.1018 -774 0 0 0 0 0
194 1 3 31.1018 -771 0 0 0 0 0
195 1 3 31.1018 -768 0 0 0 0 0
196 1 3 31.1018 -765 0 0 0 0 0
197 1 3 31.1018 -762 0 0 0 0 0
198 1 3 31.1018 -759 0 0 0 0 0
199 1 3 31.1018 -756 0 0 0 0 0
200 1 3 31.1018 -753 0 0 0 0 0
201 1 3 31.1018 -750 0 0 0 0 0
202 1 3 31.1018 -747 0 0 0 0 0
203 1 3 31.1018 -744 0 0 0 0 0
204 1 3 31.1018 -741 0 0 0 0 0
205 1 3 31.1018 -738 0 0 0 0 0
206 1 3 31.1018 -735 0 0 0 0 0
207 1 3 31.1018 -732 0 0 0 0 0
208 1 3 31.1018 -729 0 0 0 0 0
209 1 3 31.1018 -726 0 0 0 0 0
210 1 3 31.1018 -723 0 0 0 0 0
211 1 3 31.1018 -720 0 0 0 0 0
212 1 3 31.1018 -717 0 0 0 0 0
213 1 3 31.1018 -714 0 0 0 0 0
214 1 3 31.1018 -711 0 0 0 0 0
215 1 3 31.1018 -708 0 0 0 0 0
216 1 3 31.1018 -705 0 0 0 0 0
217 1 3 31.1018 -702 0 0 0 0 0
218 1 3 31.1018 -699 0 0 0 0 0
219 1 3 31.1018 -696 0 0 0 0 0
220 1 3 31.1018 -693 0 0 0 0 0
221 1 3 31.1018 -690 0 0 0 0 0
222 1 3 31.1018 -687 0 0 0 0 0
223 1 3 31.1018 -684 0 0 0 0 0
224 1 3 31.1018 -681 0 0 0 0 0
225 1 3 31.1018 -678 0 0 0 0 0
901 2 3 31.1018 -904.500101365386172 -4.996e-14 2.59757462458052135 0.169734 0 -0.00307871
902 2 3 31.1018 -901.500101365386172 -4.97935e-14 2.59757462451587262 0.169167 0 -0.00306816
903 2 3 31.1018 -898.500101365386172 -4.96269e-14 2.59757462445122389 0.1686 0 -0.00305761
904 2 3 31.1018 -895.500101365386058 -4.94604e-14 2.5975746243865756 0.168033 0 -0.00304707
905 2 3 31.1018 -892.500101365386058 -4.92939e-14 2.59757462432192687 0.167466 0 -0.00303651
906 2 3 31.1018 -889.500101365386058 -4.91273e-14 2.59757462425727814 0.166898 0 -0.00302596
907 2 3 31.1018 -886.500101365386058 -4.89608e-14 2.59757462419262941 0.166331 0 -0.00301541
908 2 3 31.1018 -883.500101365386058 -4.87943e-14 2.59757462412798112 0.165764 0 -0.00300485
909 2 3 31.1018 -880.500101365386058 -4.86277e-14 2.59757462406333239 0.165197 0 -0.0029943
910 2 3 31.1018 -877.500101365385945 -4.84612e-14 2.59757462399868366 0.16463 0 -0.00298376
911 2 3 31.1018 -874.500101365385945 -4.82947e-14 2.59757462393403493 0.164062 0 -0.00297321
912 2 3 31.1018 -871.500101365385945 -4.81281e-14 2.59757462386938665 0.163495 0 -0.00296266
913 2 3 31.1018 -868.500101365385945 -4.79616e-14 2.59757462380473791 0.162928 0 -0.0029521
914 2 3 31.1018 -865.500101365385945 -4.77951e-14 2.59757462374008918 0.162361 0 -0.00294155
915 2 3 31.1018 -862.500101365385945 -4.76285e-14 2.59757462367544045 0.161794 0 -0.002931
916 2 3 31.1018 -859.500101365385831 -4.7462e-14 2.59757462361079217 0.161227 0 -0.00292046
917 2 3 31.1018 -856.500101365385831 -4.72955e-14 2.59757462354614344 0.160659 0 -0.00290991
918 2 3 31.1018 -853.500101365385831 -4.71289e-14 2.5975746234814947 0.160092 0 -0.00289935
919 2 3 31.1018 -850.500101365385831 -4.69624e-14 2.59757462341684597 0.159525 0 -0.0028888
920 2 3 31.1018 -847.500101365385831 -4.67959e-14 2.59757462335219769 0.158958 0 -0.00287825
921 2 3 31.1018 -844.500101365385831 -4.66293e-14 2.59757462328754896 0.158391 0 -0.0028677
922 2 3 31.1018 -841.500101365385717 -4.64628e-14 2.59757462322290023 0.157823 0 -0.00285715
923 2 3 31.1018 -838.500101365385717 -4.62963e-14 2.59757462315825149 0.157256 0 -0.0028466
924 2 3 31.1018 -835.500101365385717 -4.61297e-14 2.59757462309360321 0.156689 0 -0.00283605
925 2 3 31.1018 -832.500101365385717 -4.59632e-14 2.59757462302895448 0.156122 0 -0.0028255
926 2 3 31.1018 -829.500101365385717 -4.57967e-14 2.59757462296430575 0.155555 0 -0.00281495
927 2 3 31.1018 -826.500101365385717 -4.56301e-14 2.59757462289965702 0.154987 0 -0.00280439
928 2 3 31.1018 -823.500101365385603 -4.54636e-14 2.59757462283500873 0.15442 0 -0.00279385
929 2 3 31.1018 -820.500101365385603 -4.52971e-14 2.59757462277036 0.153853 0 -0.0027833
930 2 3 31.1018 -817.500101365385603 -4.51305e-14 2.59757462270571127 0.153286 0 -0.00277275
931 2 3 31.1018 -814.500101365385603 -4.4964e-14 2.59757462264106254 0.152719 0 -0.0027622
932 2 3 31.1018 -811.500101365385603 -4.47975e-14 2.59757462257641425 0.152152 0 -0.00275164
933 2 3 31.1018 -808.500101365385603 -4.46309e-14 2.59757462251176552 0.151584 0 -0.00274109
934 2 3 31.1018 -805.50010136538549 -4.44644e-14 2.59757462244711679 0.151017 0 -0.00273055
935 2 3 31.1018 -802.50010136538549 -4.42979e-14 2.59757462238246806 0.15045 0 -0.00272
936 2 3 31.1018 -799.50010136538549 -4.41313e-14 2.59757462231781977 0.149883 0 -0.00270945
937 2 3 31.1018 -796.50010136538549 -4.39648e-14 2.59757462225317104 0.149316 0 -0.00269889
938 2 3 31.1018 -793.50010136538549 -4.37983e-14 2.59757462218852231 0.148748 0 -0.00268834
939 2 3 31.1018 -790.50010136538549 -4.36317e-14 2.59757462212387358 0.148181 0 -0.00267779
940 2 3 31.1018 -787.500101365385376 -4.34652e-14 2.59757462205922529 0.147614 0 -0.00266725
941 2 3 31.1018 -784.500101365385376 -4.32987e-14 2.59757462199457656 0.147047 0 -0.0026567
942 2 3 31.1018 -781.500101365385376 -4.31321e-14 2.59757462192992783 0.14648 0 -0.00264615
943 2 3 31.1018 -778.500101365385376 -4.29656e-14 2.5975746218652791 0.145912 0 -0.00263559
944 2 3 31.1018 -775.500101365385376 -4.27991e-14 2.59757462180063081 0.145345 0 -0.00262504
945 2 3 31.1018 -772.500101365385262 -4.26325e-14 2.59757462173598208 0.144778 0 -0.0026145
946 2 3 31.1018 -769.500101365385262 -4.2466e-14 2.59757462167133335 0.144211 0 -0.00260395
947 2 3 31.1018 -766.500101365385262 -4.22995e-14 2.59757462160668462 0.143644 0 -0.0025934
948 2 3 31.1018 -763.500101365385262 -4.21329e-14 2.59757462154203633 0.143076 0 -0.00258285
949 2 3 31.1018 -760.500101365385262 -4.19664e-14 2.5975746214773876 0.142509 0 -0.00257229
950 2 3 31.1018 -757.500101365385262 -4.17999e-14 2.59757462141273887 0.141942 0 -0.00256174
951 2 3 31.1018 -754.500101365385149 -4.16333e-14 2.59757462134809014 0.141375 0 -0.0025512
952 2 3 31.1018 -751.500101365385149 -4.14668e-14 2.59757462128344185 0.140808 0 -0.00254065
953 2 3 31.1018 -748.500101365385149 -4.13003e-14 2.59757462121879312 0.14024 0 -0.0025301
954 2 3 31.1018 -745.500101365385149 -4.11337e-14 2.59757462115414439 0.139673 0 -0.00251955
955 2 3 31.1018 -742.500101365385149 -4.09672e-14 2.59757462108949566 0.139106 0 -0.002509
956 2 3 31.1018 -739.500101365385149 -4.08007e-14 2.59757462102484737 0.138539 0 -0.00249844
957 2 3 31.1018 -736.500101365385035 -4.06341e-14 2.59757462096019864 0.137972 0 -0.0024879
958 2 3 31.1018 -733.500101365385035 -4.04676e-14 2.59757462089554991 0.137404 0 -0.00247735
959 2 3 31.1018 -730.500101365385035 -4.03011e-14 2.59757462083090118 0.136837 0 -0.0024668
960 2 3 31.1018 -727.500101365385035 -4.01345e-14 2.5975746207662529 0.13627 0 -0.00245625
961 2 3 31.1018 -724.500101365385035 -3.9968e-14 2.59757462070160416 0.135703 0 -0.0024457
962 2 3 31.1018 -721.500101365385035 -3.98015e-14 2.59757462063695543 0.135136 0 -0.00243515
963 2 3 31.1018 -718.500101365384921 -3.96349e-14 2.5975746205723067 0.134568 0 -0.00242461
964 2 3 31.1018 -715.500101365384921 -3.94684e-14 2.59757462050765842 0.134001 0 -0.00241392
965 2 3 31.1018 -712.500101365384921 -3.93019e-14 2.59757462044300969 0.133434 0 -0.00240322
966 2 3 31.1018 -709.500101365384921 -3.91353e-14 2.59757462037836095 0.132866 0 -0.00239252
967 2 3 31.1018 -706.500101365384921 -3.89688e-14 2.59757462031371222 0.132299 0 -0.00238183
968 2 3 31.1018 -703.500101365384921 -3.88023e-14 2.59757462024906394 0.131731 0 -0.00237113
969 2 3 31.1018 -700.500101365384808 -3.86357e-14 2.59757462018441521 0.131164 0 -0.00236045
970 2 3 31.1018 -697.500101365384808 -3.84692e-14 2.59757462011976648 0.130596 0 -0.00234975
971 2 3 31.1018 -694.500101365384808 -3.83027e-14 2.59757462005511774 0.130029 0 -0.00233905
972 2 3 31.1018 -691.500101365384808 -3.81361e-14 2.59757461999046946 0.129461 0 -0.00232836
973 2 3 31.1018 -688.500101365384808 -3.79696e-14 2.59757461992582073 0.128894 0 -0.00231766
974 2 3 31.1018 -685.500101365384808 -3.78031e-14 2.597574619861172 0.128327 0 -0.00230696
975 2 3 31.1018 -682.500101365384694 -3.76365e-14 2.59757461979652327 0.127759 0 -0.00229628
976 2 3 31.1018 -679.500101365384694 -3.747e-14 2.59757461973187498 0.127192 0 -0.00228558
977 2 3 31.1018 -676.500101365384694 -3.73035e-14 2.59757461966722625 0.126624 0 -0.00227489
226 1 3 31.1018 -675 0 0 0 0 0
227 1 3 31.1018 -672 0 0 0 0 0
228 1 3 31.1018 -669 0 0 0 0 0
229 1 3 31.1018 -666 0 0 0 0 0
230 1 3 31.1018 -663 0 0 0 0 0
231 1 3 31.1018 -660 0 0 0 0 0
232 1 3 31.1018 -657 0 0 0 0 0
233 1 3 31.1018 -654 0 0 0 0 0
234 1 3 31.1018 -651 0 0 0 0 0
235 1 3 31.1018 -648 0 0 0 0 0
236 1 3 31.1018 -645 0 0 0 0 0
237 1 3 31.1018 -642 0 0 0 0 0
238 1 3 31.1018 -639 0 0 0 0 0
239 1 3 31.1018 -636 0 0 0 0 0
240 1 3 31.1018 -633 0 0 0 0 0
241 1 3 31.1018 -630 0 0 0 0 0
242 1 3 31.1018 -627 0 0 0 0 0
243 1 3 31.1018 -624 0 0 0 0 0
244 1 3 31.1018 -621 0 0 0 0 0
245 1 3 31.1018 -618 0 0 0 0 0
246 1 3 31.1018 -615 0 0 0 0 0
247 1 3 31.1018 -612 0 0 0 0 0
248 1 3 31.1018 -609 0 0 0 0 0
249 1 3 31.1018 -606 0 0 0 0 0
250 1 3 31.1018 -603 0 0 0 0 0
251 1 3 31.1018 -600 0 0 0 0 0
252 1 3 31.1018 -597 0 0 0 0 0
253 1 3 31.1018 -594 0 0 0 0 0
254 1 3 31.1018 -591 0 0 0 0 0
255 1 3 31.1018 -588 0 0 0 0 0
256 1 3 31.1018 -585 0 0 0 0 0
257 1 3 31.1018 -582 0 0 0 0 0
258 1 3 31.1018 -579 0 0 0 0 0
259 1 3 31.1018 -576 0 0 0 0 0
260 1 3 31.1018 -573 0 0 0 0 0
261 1 3 31.1018 -570 0 0 0 0 0
262 1 3 31.1018 -567 0 0 0 0 0
263 1 3 31.1018 -564 0 0 0 0 0
264 1 3 31.1018 -561 0 0 0 0 0
265 1 3 31.1018 -558 0 0 0 0 0
266 1 3 31.1018 -555 0 0 0 0 0
267 1 3 31.1018 -552 0 0 0 0 0
268 1 3 31.1018 -549 0 0 0 0 0
269 1 3 31.1018 -546 0 0 0 0 0
270 1 3 31.1018 -543 0 0 0 0 0
271 1 3 31.1018 -540 0 0 0 0 0
272 1 3 31.1018 -537 0 0 0 0 0
273 1 3 31.1018 -534 0 0 0 0 0
274 1 3 31.1018 -531 0 0 0 0 0
275 1 3 31.1018 -528 0 0 0 0 0
276 1 3 31.1018 -525 0 0 0 0 0
277 1 3 31.1018 -522 0 0 0 0 0
278 1 3 31.1018 -519 0 0 0 0 0
279 1 3 31.1018 -516 0 0 0 0 0
280 1 3 31.1018 -513 0 0 0 0 0
281 1 3 31.1018 -510 0 0 0 0 0
282 1 3 31.1018 -507 0 0 0 0 0
283 1 3 31.1018 -504 0 0 0 0 0
284 1 3 31.1018 -501 0 0 0 0 0
285 1 3 31.1018 -498 0 0 0 0 0
286 1 3 31.1018 -495 0 0 0 0 0
287 1 3 31.1018 -492 0 0 0 0 0
288 1 3 31.1018 -489 0 0 0 0 0
289 1 3 31.1018 -486 0 0 0 0 0
290 1 3 31.1018 -483 0 0 0 0 0
291 1 3 31.1018 -480 0 0 0 0 0
292 1 3 31.1018 -477 0 0 0 0 0
293 1 3 31.1018 -474 0 0 0 0 0
294 1 3 31.1018 -471 0 0 0 0 0
295 1 3 31.1018 -468 0 0 0 0 0
296 1 3 31.1018 -465 0 0 0 0 0
297 1 3 31.1018 -462 0 0 0 0 0
298 1 3 31.1018 -459 0 0 0 0 0
299 1 3 31.1018 -456 0 0 0 0 0
300 1 3 31.1018 -453 0 0 0 0 0
301 1 3 31.1018 -450 0 0 0 0 0
302 1 3 31.1018 -447 0 0 0 0 0
303 1 3 31.1018 -444 0 0 0 0 0
304 1 3 31.1018 -441 0 0 0 0 0
305 1 3 31.1018 -438 0 0 0 0 0
306 1 3 31.1018 -435 0 0 0 0 0
307 1 3 31.1018 -432 0 0 0 0 0
308 1 3 31.1018 -429 0 0 0 0 0
309 1 3 31.1018 -426 0 0 0 0 0
310 1 3 31.1018 -423 0 0 0 0 0
311 1 3 31.1018 -420 0 0 0 0 0
312 1 3 31.1018 -417 0 0 0 0 0
313 1 3 31.1018 -414 0 0 0 0 0
314 1 3 31.1018 -411 0 0 0 0 0
315 1 3 31.1018 -408 0 0 0 0 0
316 1 3 31.1018 -405 0 0 0 0 0
317 1 3 31.1018 -402 0 0 0 0 0
318 1 3 31.1018 -399 0 0 0 0 0
319 1 3 31.1018 -396 0 0 0 0 0
320 1 3 31.1018 -393 0 0 0 0 0
321 1 3 31.1018 -390 0 0 0 0 0
322 1 3 31.1018 -387 0 0 0 0 0
323 1 3 31.1018 -384 0 0 0 0 0
324 1 3 31.1018 -381 0 0 0 0 0
325 1 3 31.1018 -378 0 0 0 0 0
326 1 3 31.1018 -375 0 0 0 0 0
327 1 3 31.1018 -372 0 0 0 0 0
328 1 3 31.1018 -369 0 0 0 0 0
329 1 3 31.1018 -366 0 0 0 0 0
330 1 3 31.1018 -363 0 0 0 0 0
331 1 3 31.1018 -360 0 0 0 0 0
332 1 3 31.1018 -357 0 0 0 0 0
333 1 3 31.1018 -354 0 0 0 0 0
334 1 3 31.1018 -351 0 0 0 0 0
335 1 3 31.1018 -348 0 0 0 0 0
336 1 3 31.1018 -345 0 0 0 0 0
337 1 3 31.1018 -342 0 0 0 0 0
338 1 3 31.1018 -339 0 0 0 0 0
339 1 3 31.1018 -336 0 0 0 0 0
340 1 3 31.1018 -333 0 0 0 0 0
341 1 3 31.1018 -330 0 0 0 0 0
342 1 3 31.1018 -327 0 0 0 0 0
343 1 3 31.1018 -324 0 0 0 0 0
344 1 3 31.1018 -321 0 0 0 0 0
345 1 3 31.1018 -318 0 0 0 0 0
346 1 3 31.1018 -315 0 0 0 0 0
347 1 3 31.1018 -312 0 0 0 0 0
348 1 3 31.1018 -309 0 0 0 0 0
349 1 3 31.1018 -306 0 0 0 0 0
350 1 3 31.1018 -303 0 0 0 0 0
351 1 3 31.1018 -300 0 0 0 0 0
352 1 3 31.1018 -297 0 0 0 0 0
353 1 3 31.1018 -294 0 0 0 0 0
354 1 3 31.1018 -291 0 0 0 0 0
355 1 3 31.1018 -288 0 0 0 0 0
356 1 3 31.1018 -285 0 0 0 0 0
357 1 3 31.1018 -282 0 0 0 0 0
358 1 3 31.1018 -279 0 0 0 0 0
359 1 3 31.1018 -276 0 0 0 0 0
360 1 3 31.1018 -273 0 0 0 0 0
361 1 3 31.1018 -270 0 0 0 0 0
362 1 3 31.1018 -267 0 0 0 0 0
363 1 3 31.1018 -264 0 0 0 0 0
364 1 3 31.1018 -261 0 0 0 0 0
365 1 3 31.1018 -258 0 0 0 0 0
366 1 3 31.1018 -255 0 0 0 0 0
367 1 3 31.1018 -252 0 0 0 0 0
368 1 3 31.1018 -249 0 0 0 0 0
369 1 3 31.1018 -246 0 0 0 0 0
370 1 3 31.1018 -243 0 0 0 0 0
371 1 3 31.1018 -240 0 0 0 0 0
372 1 3 31.1018 -237 0 0 0 0 0
373 1 3 31.1018 -234 0 0 0 0 0
374 1 3 31.1018 -231 0 0 0 0 0
375 1 3 31.1018 -228 0 0 0 0 0
376 1 3 31.1018 -225 0 0 0 0 0
377 1 3 31.1018 -222 0 0 0 0 0
378 1 3 31.1018 -219 0 0 0 0 0
379 1 3 31.1018 -216 0 0 0 0 0
380 1 3 31.1018 -213 0 0 0 0 0
381 1 3 31.1018 -210 0 0 0 0 0
382 1 3 31.1018 -207 0 0 0 0 0
383 1 3 31.1018 -204 0 0 0 0 0
384 1 3 31.1018 -201 0 0 0 0 0
385 1 3 31.1018 -198 0 0 0 0 0
386 1 3 31.1018 -195 0 0 0 0 0
387 1 3 31.1018 -192 0 0 0 0 0
388 1 3 31.1018 -189 0 0 0 0 0
389 1 3 31.1018 -186 0 0 0 0 0
390 1 3 31.1018 -183 0 0 0 0 0
391 1 3 31.1018 -180 0 0 0 0 0
392 1 3 31.1018 -177 0 0 0 0 0
393 1 3 31.1018 -174 0 0 0 0 0
394 1 3 31.1018 -171 0 0 0 0 0
395 1 3 31.1018 -168 0 0 0 0 0
396 1 3 31.1018 -165 0 0 0 0 0
397 1 3 31.1018 -162 0 0 0 0 0
398 1 3 31.1018 -159 0 0 0 0 0
399 1 3 31.1018 -156 0 0 0 0 0
400 1 3 31.1018 -153 0 0 0 0 0
401 1 3 31.1018 -150 0 0 0 0 0
402 1 3 31.1018 -147 0 0 0 0 0
403 1 3 31.1018 -144 0 0 0 0 0
404 1 3 31.1018 -141 0 0 0 0 0
405 1 3 31.1018 -138 0 0 0 0 0
406 1 3 31.1018 -135 0 0 0 0 0
407 1 3 31.1018 -132 0 0 0 0 0
408 1 3 31.1018 -129 0 0 0 0 0
409 1 3 31.1018 -126 0 0 0 0 0
410 1 3 31.1018 -123 0 0 0 0 0
411 1 3 31.1018 -120 0 0 0 0 0
412 1 3 31.1018 -117 0 0 0 0 0
413 1 3 31.1018 -114 0 0 0 0 0
414 1 3 31.1018 -111 0 0 0 0 0
415 1 3 31.1018 -108 0 0 0 0 0
416 1 3 31.1018 -105 0 0 0 0 0
417 1 3 31.1018 -102 0 0 0 0 0
418 1 3 31.1018 -99 0 0 0 0 0
419 1 3 31.1018 -96 0 0 0 0 0
420 1 3 31.1018 -93 0 0 0 0 0
421 1 3 31.1018 -90 0 0 0 0 0
422 1 3 31.1018 -87 0 0 0 0 0
423 1 3 31.1018 -84 0 0 0 0 0
424 1 3 31.1018 -81 0 0 0 0 0
425 1 3 31.1018 -78 0 0 0 0 0
426 1 3 31.1018 -75 0 0 0 0 0
427 1 3 31.1018 -72 0 0 0 0 0
428 1 3 31.1018 -69 0 0 0 0 0
429 1 3 31.1018 -66 0 0 0 0 0
430 1 3 31.1018 -63 0 0 0 0 0
431 1 3 31.1018 -60 0 0 0 0 0
432 1 3 31.1018 -57 0 0 0 0 0
433 1 3 31.1018 -54 0 0 0 0 0
434 1 3 31.1018 -51 0 0 0 0 0
435 1 3 31.1018 -48 0 0 0 0 0
436 1 3 31.1018 -45 0 0 0 0 0
437 1 3 31.1018 -42 0 0 0 0 0
438 1 3 31.1018 -39 0 0 0 0 0
439 1 3 31.1018 -36 0 0 0 0 0
440 1 3 31.1018 -33 0 0 0 0 0
441 1 3 31.1018 -30 0 0 0 0 0
442 1 3 31.1018 -27 0 0 0 0 0
443 1 3 31.1018 -24 0 0 0 0 0
444 1 3 31.1018 -21 0 0 0 0 0
445 1 3 31.1018 -18 0 0 0 0 0
446 1 3 31.1018 -15 0 0 0 0 0
447 1 3 31.1018 -12 0 0 0 0 0
448 1 3 31.1018 -9 0 0 0 0 0
449 1 3 31.1018 -6 0 0 0 0 0
450 1 3 31.1018 -3 0 0 0 0 0
978 2 3 31.1018 -673.500101365384694 -3.71369e-14 2.59757461960257752 0.126057 0 -0.00226419
979 2 3 31.1018 -670.500101365384694 -3.69704e-14 2.59757461953792879 0.125489 0 -0.00225349
980 2 3 31.1018 -667.500101365384694 -3.68039e-14 2.5975746194732805 0.124922 0 -0.0022428
981 2 3 31.1018 -664.50010136538458 -3.66373e-14 2.59757461940863177 0.124354 0 -0.00223211
982 2 3 31.1018 -661.50010136538458 -3.64708e-14 2.59757461934398304 0.123787 0 -0.00222142
983 2 3 31.1018 -658.50010136538458 -3.63043e-14 2.59757461927933431 0.12322 0 -0.00221072
984 2 3 31.1018 -655.50010136538458 -3.61377e-14 2.59757461921468602 0.122652 0 -0.00220003
985 2 3 31.1018 -652.50010136538458 -3.59712e-14 2.59757461915003729 0.122085 0 -0.00218933
986 2 3 31.1018 -649.50010136538458 -3.58047e-14 2.59757461908538856 0.121517 0 -0.00217863
987 2 3 31.1018 -646.500101365384467 -3.56381e-14 2.59757461902073983 0.12095 0 -0.00216795
988 2 3 31.1018 -643.500101365384467 -3.54716e-14 2.59757461895609154 0.120382 0 -0.00215725
989 2 3 31.1018 -640.500101365384467 -3.53051e-14 2.59757461889144281 0.119815 0 -0.00214656
990 2 3 31.1018 -637.500101365384467 -3.51385e-14 2.59757461882679408 0.119247 0 -0.00213586
991 2 3 31.1018 -634.500101365384467 -3.4972e-14 2.59757461876214535 0.11868 0 -0.00212516
992 2 3 31.1018 -631.500101365384467 -3.48055e-14 2.59757461869749706 0.118113 0 -0.00211447
993 2 3 31.1018 -628.500101365384353 -3.46389e-14 2.59757461863284833 0.117545 0 -0.00210378
994 2 3 31.1018 -625.500101365384353 -3.44724e-14 2.5975746185681996 0.116978 0 -0.00209309
995 2 3 31.1018 -622.500101365384353 -3.43059e-14 2.59757461850355087 0.11641 0 -0.00208239
996 2 3 31.1018 -619.500101365384353 -3.41393e-14 2.59757461843890258 0.115843 0 -0.00207169
997 2 3 31.1018 -616.500101365384353 -3.39728e-14 2.59757461837425385 0.115275 0 -0.002061
998 2 3 31.1018 -613.500101365384239 -3.38063e-14 2.59757461830960512 0.114708 0 -0.00205032
999 2 3 31.1018 -610.500101365384239 -3.36397e-14 2.59757461824495639 0.11414 0 -0.00203962
1000 2 3 31.1018 -607.500101365384239 -3.34732e-14 2.5975746181803081 0.113573 0 -0.00202892
1001 2 3 31.1018 -604.500101365384239 -3.33067e-14 2.59757461811565937 0.113005 0 -0.00201823
1002 2 3 31.1018 -601.500101365384239 -3.31401e-14 2.59757461805101064 0.112438 0 -0.00200753
1003 2 3 31.1018 -598.500101365384239 -3.29736e-14 2.59757461798636191 0.111871 0 -0.00199683
1004 2 3 31.1018 -595.500101365384126 -3.28071e-14 2.59757461792171362 0.111303 0 -0.00198615
1005 2 3 31.1018 -592.500101365384126 -3.26405e-14 2.59757461785706489 0.110736 0 -0.00197545
1006 2 3 31.1018 -589.500101365384126 -3.2474e-14 2.59757461779241616 0.110168 0 -0.00196476
1007 2 3 31.1018 -586.500101365384126 -3.23075e-14 2.59757461772776743 0.109601 0 -0.00195406
1008 2 3 31.1018 -583.500101365384126 -3.21409e-14 2.59757461766311915 0.109033 0 -0.00194337
1009 2 3 31.1018 -580.500101365384126 -3.19744e-14 2.59757461759847041 0.108466 0 -0.00193267
1010 2 3 31.1018 -577.500101365384012 -3.18079e-14 2.59757461753382168 0.107898 0 -0.00192199
1011 2 3 31.1018 -574.500101365384012 -3.16413e-14 2.59757461746917295 0.107331 0 -0.00191129
1012 2 3 31.1018 -571.500101365384012 -3.14748e-14 2.59757461740452467 0.106763 0 -0.0019006
1013 2 3 31.1018 -568.500101365384012 -3.13083e-14 2.59757461733987594 0.106196 0 -0.0018899
1014 2 3 31.1018 -565.500101365384012 -3.11417e-14 2.5975746172752272 0.105629 0 -0.0018792
1015 2 3 31.1018 -562.500101365384012 -3.09752e-14 2.59757461721057847 0.105061 0 -0.00186851
1016 2 3 31.1018 -559.500101365383898 -3.08087e-14 2.59757461714593019 0.104494 0 -0.00185782
1017 2 3 31.1018 -556.500101365383898 -3.06421e-14 2.59757461708128146 0.103926 0 -0.00184713
1018 2 3 31.1018 -553.500101365383898 -3.04756e-14 2.59757461701663273 0.103359 0 -0.00183643
1019 2 3 31.1018 -550.500101365383898 -3.03091e-14 2.59757461695198399 0.102791 0 -0.00182574
1020 2 3 31.1018 -547.500101365383898 -3.01425e-14 2.59757461688733571 0.102224 0 -0.00181504
1021 2 3 31.1018 -544.500101365383898 -2.9976e-14 2.59757461682268698 0.101656 0 -0.00180435
1022 2 3 31.1018 -541.500101365383784 -2.98095e-14 2.59757461675803825 0.101089 0 -0.00179366
1023 2 3 31.1018 -538.500101365383784 -2.96429e-14 2.59757461669338952 0.100522 0 -0.00178297
1024 2 3 31.1018 -535.500101365383784 -2.94764e-14 2.59757461662874123 0.0999541 0 -0.00177227
1025 2 3 31.1018 -532.500101365383784 -2.93099e-14 2.5975746165640925 0.0993866 0 -0.00176158
1026 2 3 31.1018 -529.500101365383784 -2.91433e-14 2.59757461649944377 0.0988192 0 -0.00175088
1027 2 3 31.1018 -526.500101365383784 -2.89768e-14 2.59757461643479504 0.0982518 0 -0.00174018
1028 2 3 31.1018 -523.500101365383671 -2.88103e-14 2.59757461637014675 0.0976842 0 -0.0017295
1029 2 3 31.1018 -520.500101365383671 -2.86437e-14 2.59757461630549802 0.0971168 0 -0.00171881
1030 2 3 31.1018 -517.500101365383671 -2.84772e-14 2.59757461624084929 0.0965494 0 -0.00170811
1031 2 3 31.1018 -514.500101365383784 -2.83107e-14 2.59757461617620056 0.095982 0 -0.0016974
1032 2 3 31.1018 -511.500101365383671 -2.81441e-14 2.59757461611155227 0.0954145 0 -0.00168672
1033 2 3 31.1018 -508.500101365383671 -2.79776e-14 2.59757461604690354 0.0948471 0 -0.00167602
1034 2 3 31.1018 -505.500101365383671 -2.78111e-14 2.59757461598225481 0.0942796 0 -0.00166533
1035 2 3 31.1018 -502.500101365383614 -2.76445e-14 2.59757461591760608 0.0937121 0 -0.00165464
1036 2 3 31.1018 -499.500101365383614 -2.7478e-14 2.59757461585295779 0.0931447 0 -0.00164394
1037 2 3 31.1018 -496.500101365383614 -2.73115e-14 2.59757461578830906 0.0925773 0 -0.00163325
1038 2 3 31.1018 -493.500101365383557 -2.71449e-14 2.59757461572366033 0.0920098 0 -0.00162256
1039 2 3 31.1018 -490.500101365383557 -2.69784e-14 2.5975746156590116 0.0914424 0 -0.00161186
1040 2 3 31.1018 -487.500101365383557 -2.68119e-14 2.59757461559436331 0.0908749 0 -0.00160117
1041 2 3 31.1018 -484.5001013653835 -2.66453e-14 2.59757461552971458 0.0903074 0 -0.00159048
1042 2 3 31.1018 -481.5001013653835 -2.64788e-14 2.59757461546506585 0.08974 0 -0.00157978
1043 2 3 31.1018 -478.5001013653835 -2.63123e-14 2.59757461540041712 0.0891726 0 -0.00156909
1044 2 3 31.1018 -475.500101365383443 -2.61457e-14 2.59757461533576883 0.0886051 0 -0.0015584
1045 2 3 31.1018 -472.500101365383443 -2.59792e-14 2.5975746152711201 0.0880376 0 -0.0015477
1046 2 3 31.1018 -469.500101365383443 -2.58127e-14 2.59757461520647137 0.0874702 0 -0.00153701
1047 2 3 31.1018 -466.500101365383387 -2.56461e-14 2.59757461514182264 0.0869027 0 -0.00152632
1048 2 3 31.1018 -463.500101365383387 -2.54796e-14 2.59757461507717435 0.0863353 0 -0.00151563
1049 2 3 31.1018 -460.500101365383387 -2.53131e-14 2.59757461501252562 0.0857678 0 -0.00150493
1050 2 3 31.1018 -457.50010136538333 -2.51465e-14 2.59757461494787689 0.0852004 0 -0.00149424
1051 2 3 31.1018 -454.50010136538333 -2.498e-14 2.59757461488322816 0.0846329 0 -0.00148354
1052 2 3 31.1018 -451.50010136538333 -2.48135e-14 2.59757461481857987 0.0840655 0 -0.00147285
1053 2 3 31.1018 -448.500101365383273 -2.46469e-14 2.59757461475393114 0.083498 0 -0.00146216
1054 2 3 31.1018 -445.500101365383273 -2.44804e-14 2.59757461468928241 0.0829306 0 -0.00145143
1055 2 3 31.1018 -442.500101365383273 -2.43139e-14 2.59757461462463368 0.0823633 0 -0.00144068
1056 2 3 31.1018 -439.500101365383216 -2.41473e-14 2.5975746145599854 0.0817959 0 -0.00142994
1057 2 3 31.1018 -436.500101365383216 -2.39808e-14 2.59757461449533666 0.0812285 0 -0.00141919
1058 2 3 31.1018 -433.500101365383216 -2.38143e-14 2.59757461443068793 0.0806612 0 -0.00140844
1059 2 3 31.1018 -430.500101365383159 -2.36477e-14 2.5975746143660392 0.0800938 0 -0.0013977
1060 2 3 31.1018 -427.500101365383159 -2.34812e-14 2.59757461430139092 0.0795265 0 -0.00138695
1061 2 3 31.1018 -424.500101365383159 -2.33147e-14 2.59757461423674219 0.0789591 0 -0.0013762
1062 2 3 31.1018 -421.500101365383102 -2.31481e-14 2.59757461417209345 0.0783917 0 -0.00136546
1063 2 3 31.1018 -418.500101365383102 -2.29816e-14 2.59757461410744472 0.0778244 0 -0.00135471
1064 2 3 31.1018 -415.500101365383102 -2.28151e-14 2.59757461404279644 0.077257 0 -0.00134396
1065 2 3 31.1018 -412.500101365383046 -2.26485e-14 2.59757461397814771 0.0766896 0 -0.00133322
1066 2 3 31.1018 -409.500101365383046 -2.2482e-14 2.59757461391349898 0.0761223 0 -0.00132247
1067 2 3 31.1018 -406.500101365383046 -2.23155e-14 2.59757461384885024 0.0755549 0 -0.00131172
1068 2 3 31.1018 -403.500101365382989 -2.21489e-14 2.59757461378420196 0.0749875 0 -0.00130098
1069 2 3 31.1018 -400.500101365382989 -2.19824e-14 2.59757461371955323 0.0744202 0 -0.00129023