ITEM: TIMESTEP
3400000
ITEM: NUMBER OF ATOMS
751
ITEM: BOX BOUNDS pp pp pp
-6.7500000000000000e+02 6.7500000000000000e+02
-1.0000000000000000e+02 1.0000000000000000e+02
-1.0000000000000000e+02 1.0000000000000000e+02
ITEM: ATOMS id type diameter mass xu yu zu fx fy fz
1 1 3 31.1018 -675 0 0 0 0 0
2 1 3 31.1018 -672 0 0 0 0 0
3 1 3 31.1018 -669 0 0 0 0 0
4 1 3 31.1018 -666 0 0 0 0 0
5 1 3 31.1018 -663 0 0 0 0 0
6 1 3 31.1018 -660 0 0 0 0 0
7 1 3 31.1018 -657 0 0 0 0 0
8 1 3 31.1018 -654 0 0 0 0 0
9 1 3 31.1018 -651 0 0 0 0 0
10 1 3 31.1018 -648 0 0 0 0 0
11 1 3 31.1018 -645 0 0 0 0 0
12 1 3 31.1018 -642 0 0 0 0 0
13 1 3 31.1018 -639 0 0 0 0 0
14 1 3 31.1018 -636 0 0 0 0 0
15 1 3 31.1018 -633 0 0 0 0 0
16 1 3 31.1018 -630 0 0 0 0 0
17 1 3 31.1018 -627 0 0 0 0 0
18 1 3 31.1018 -624 0 0 0 0 0
19 1 3 31.1018 -621 0 0 0 0 0
20 1 3 31.1018 -618 0 0 0 0 0
21 1 3 31.1018 -615 0 0 0 0 0
22 1 3 31.1018 -612 0 0 0 0 0
23 1 3 31.1018 -609 0 0 0 0 0
24 1 3 31.1018 -606 0 0 0 0 0
25 1 3 31.1018 -603 0 0 0 0 0
26 1 3 31.1018 -600 0 0 0 0 0
27 1 3 31.1018 -597 0 0 0 0 0
28 1 3 31.1018 -594 0 0 0 0 0
29 1 3 31.1018 -591 0 0 0 0 0
30 1 3 31.1018 -588 0 0 0 0 0
31 1 3 31.1018 -585 0 0 0 0 0
32 1 3 31.1018 -582 0 0 0 0 0
33 1 3 31.1018 -579 0 0 0 0 0
34 1 3 31.1018 -576 0 0 0 0 0
35 1 3 31.1018 -573 0 0 0 0 0
36 1 3 31.1018 -570 0 0 0 0 0
37 1 3 31.1018 -567 0 0 0 0 0
38 1 3 31.1018 -564 0 0 0 0 0
39 1 3 31.1018 -561 0 0 0 0 0
40 1 3 31.1018 -558 0 0 0 0 0
41 1 3 31.1018 -555 0 0 0 0 0
42 1 3 31.1018 -552 0 0 0 0 0
43 1 3 31.1018 -549 0 0 0 0 0
44 1 3 31.1018 -546 0 0 0 0 0
45 1 3 31.1018 -543 0 0 0 0 0
46 1 3 31.1018 -540 0 0 0 0 0
47 1 3 31.1018 -537 0 0 0 0 0
48 1 3 31.1018 -534 0 0 0 0 0
49 1 3 31.1018 -531 0 0 0 0 0
50 1 3 31.1018 -528 0 0 0 0 0
51 1 3 31.1018 -525 0 0 0 0 0
52 1 3 31.1018 -522 0 0 0 0 0
53 1 3 31.1018 -519 0 0 0 0 0
54 1 3 31.1018 -516 0 0 0 0 0
55 1 3 31.1018 -513 0 0 0 0 0
56 1 3 31.1018 -510 0 0 0 0 0
57 1 3 31.1018 -507 0 0 0 0 0
58 1 3 31.1018 -504 0 0 0 0 0
59 1 3 31.1018 -501 0 0 0 0 0
60 1 3 31.1018 -498 0 0 0 0 0
61 1 3 31.1018 -495 0 0 0 0 0
62 1 3 31.1018 -492 0 0 0 0 0
63 1 3 31.1018 -489 0 0 0 0 0
64 1 3 31.1018 -486 0 0 0 0 0
65 1 3 31.1018 -483 0 0 0 0 0
66 1 3 31.1018 -480 0 0 0 0 0
67 1 3 31.1018 -477 0 0 0 0 0
68 1 3 31.1018 -474 0 0 0 0 0
69 1 3 31.1018 -471 0 0 0 0 0
70 1 3 31.1018 -468 0 0 0 0 0
71 1 3 31.1018 -465 0 0 0 0 0
72 1 3 31.1018 -462 0 0 0 0 0
73 1 3 31.1018 -459 0 0 0 0 0
74 1 3 31.1018 -456 0 0 0 0 0
75 1 3 31.1018 -453 0 0 0 0 0
76 1 3 31.1018 -450 0 0 0 0 0
77 1 3 31.1018 -447 0 0 0 0 0
78 1 3 31.1018 -444 0 0 0 0 0
79 1 3 31.1018 -441 0 0 0 0 0
80 1 3 31.1018 -438 0 0 0 0 0
81 1 3 31.1018 -435 0 0 0 0 0
82 1 3 31.1018 -432 0 0 0 0 0
83 1 3 31.1018 -429 0 0 0 0 0
84 1 3 31.1018 -426 0 0 0 0 0
85 1 3 31.1018 -423 0 0 0 0 0
86 1 3 31.1018 -420 0 0 0 0 0
87 1 3 31.1018 -417 0 0 0 0 0
88 1 3 31.1018 -414 0 0 0 0 0
89 1 3 31.1018 -411 0 0 0 0 0
90 1 3 31.1018 -408 0 0 0 0 0
91 1 3 31.1018 -405 0 0 0 0 0
92 1 3 31.1018 -402 0 0 0 0 0
93 1 3 31.1018 -399 0 0 0 0 0
94 1 3 31.1018 -396 0 0 0 0 0
95 1 3 31.1018 -393 0 0 0 0 0
96 1 3 31.1018 -390 0 0 0 0 0
97 1 3 31.1018 -387 0 0 0 0 0
98 1 3 31.1018 -384 0 0 0 0 0
99 1 3 31.1018 -381 0 0 0 0 0
100 1 3 31.1018 -378 0 0 0 0 0
101 1 3 31.1018 -375 0 0 0 0 0
102 1 3 31.1018 -372 0 0 0 0 0
103 1 3 31.1018 -369 0 0 0 0 0
104 1 3 31.1018 -366 0 0 0 0 0
105 1 3 31.1018 -363 0 0 0 0 0
106 1 3 31.1018 -360 0 0 0 0 0
107 1 3 31.1018 -357 0 0 0 0 0
108 1 3 31.1018 -354 0 0 0 0 0
109 1 3 31.1018 -351 0 0 0 0 0
110 1 3 31.1018 -348 0 0 0 0 0
111 1 3 31.1018 -345 0 0 0 0 0
112 1 3 31.1018 -342 0 0 0 0 0
113 1 3 31.1018 -339 0 0 0 0 0
451 2 3 31.1018 -454.500101401246411 3.12542e-19 2.59757460172041643 0.398362 0 0.116546
452 2 3 31.1018 -451.500101401246638 3.10459e-19 2.59757460149679442 0.399464 0 0.1184
453 2 3 31.1018 -448.500101401246866 3.08375e-19 2.59757460127317241 0.400566 0 0.120254
454 2 3 31.1018 -445.500101401247093 3.06292e-19 2.5975746010495504 0.401669 0 0.122108
455 2 3 31.1018 -442.500101401247321 3.04208e-19 2.59757460082592795 0.402771 0 0.123962
456 2 3 31.1018 -439.500101401247605 3.02124e-19 2.59757460060230594 0.401949 0 0.124705
457 2 3 31.1018 -436.500101401247832 3.00041e-19 2.59757460037868393 0.399773 0 0.124667
458 2 3 31.1018 -433.50010140124806 2.97957e-19 2.59757460015506192 0.397597 0 0.124629
459 2 3 31.1018 -430.500101401248287 2.95874e-19 2.59757459993143947 0.395421 0 0.124591
460 2 3 31.1018 -427.500101401248514 2.9379e-19 2.59757459970781746 0.393245 0 0.124553
461 2 3 31.1018 -424.500101401248742 2.91706e-19 2.59757459948419545 0.391069 0 0.124514
462 2 3 31.1018 -421.500101401248969 2.89623e-19 2.59757459926057344 0.388893 0 0.124476
463 2 3 31.1018 -418.500101401249196 2.87539e-19 2.59757459903695098 0.386718 0 0.124438
464 2 3 31.1018 -415.500101401249424 2.85455e-19 2.59757459881332897 0.384542 0 0.1244
465 2 3 31.1018 -412.500101401249651 2.83372e-19 2.59757459858970696 0.382366 0 0.124362
466 2 3 31.1018 -409.500101401249879 2.81288e-19 2.59757459836608495 0.38019 0 0.124324
467 2 3 31.1018 -406.500101401250106 2.79205e-19 2.5975745981424625 0.378014 0 0.124286
468 2 3 31.1018 -403.500101401250333 2.77121e-19 2.59757459791884049 0.375838 0 0.124247
469 2 3 31.1018 -400.500101401250561 2.75037e-19 2.59757459769521848 0.373662 0 0.124209
470 2 3 31.1018 -397.500101401250845 2.72954e-19 2.59757459747159647 0.371487 0 0.124172
471 2 3 31.1018 -394.500101401251072 2.7087e-19 2.59757459724797402 0.369312 0 0.124134
472 2 3 31.1018 -391.5001014012513 2.68787e-19 2.59757459702435201 0.367136 0 0.124096
473 2 3 31.1018 -388.500101401251527 2.66703e-19 2.59757459680073 0.364961 0 0.124058
474 2 3 31.1018 -385.500101401251754 2.64619e-19 2.59757459657710799 0.362786 0 0.12402
475 2 3 31.1018 -382.500101401251982 2.62536e-19 2.59757459635348553 0.360611 0 0.123983
476 2 3 31.1018 -379.500101401252209 2.60452e-19 2.59757459612986352 0.358435 0 0.123945
477 2 3 31.1018 -376.500101401252437 2.58368e-19 2.59757459590624151 0.35626 0 0.123907
478 2 3 31.1018 -373.500101401252664 2.56285e-19 2.5975745956826195 0.357367 0 0.125765
479 2 3 31.1018 -370.500101401252891 2.54201e-19 2.59757459545899705 0.358549 0 0.127666
480 2 3 31.1018 -367.500101401253119 2.52118e-19 2.59757459523537504 0.359731 0 0.129567
481 2 3 31.1018 -364.500101401253346 2.50034e-19 2.59757459501175303 0.360913 0 0.131468
482 2 3 31.1018 -361.500101401253573 2.4795e-19 2.59757459478813102 0.362094 0 0.133369
483 2 3 31.1018 -358.500101401253801 2.45867e-19 2.59757459456450857 0.363276 0 0.135269
484 2 3 31.1018 -355.500101401254085 2.43783e-19 2.59757459434088656 0.364458 0 0.13717
485 2 3 31.1018 -352.500101401254312 2.417e-19 2.59757459411726455 0.365639 0 0.139071
486 2 3 31.1018 -349.50010140125454 2.39616e-19 2.59757459389364254 0.366821 0 0.140972
487 2 3 31.1018 -346.500101401254767 2.37532e-19 2.59757459367002008 0.368003 0 0.142873
488 2 3 31.1018 -343.500101401254994 2.35449e-19 2.59757459344639807 0.366097 0 0.142991
489 2 3 31.1018 -340.500101401255222 2.33365e-19 2.59757459322277606 0.363846 0 0.142909
114 1 3 31.1018 -336 0 0 0 0 0
115 1 3 31.1018 -333 0 0 0 0 0
116 1 3 31.1018 -330 0 0 0 0 0
117 1 3 31.1018 -327 0 0 0 0 0
118 1 3 31.1018 -324 0 0 0 0 0
119 1 3 31.1018 -321 0 0 0 0 0
120 1 3 31.1018 -318 0 0 0 0 0
121 1 3 31.1018 -315 0 0 0 0 0
122 1 3 31.1018 -312 0 0 0 0 0
123 1 3 31.1018 -309 0 0 0 0 0
124 1 3 31.1018 -306 0 0 0 0 0
125 1 3 31.1018 -303 0 0 0 0 0
126 1 3 31.1018 -300 0 0 0 0 0
127 1 3 31.1018 -297 0 0 0 0 0
128 1 3 31.1018 -294 0 0 0 0 0
129 1 3 31.1018 -291 0 0 0 0 0
130 1 3 31.1018 -288 0 0 0 0 0
131 1 3 31.1018 -285 0 0 0 0 0
132 1 3 31.1018 -282 0 0 0 0 0
133 1 3 31.1018 -279 0 0 0 0 0
134 1 3 31.1018 -276 0 0 0 0 0
135 1 3 31.1018 -273 0 0 0 0 0
136 1 3 31.1018 -270 0 0 0 0 0
137 1 3 31.1018 -267 0 0 0 0 0
138 1 3 31.1018 -264 0 0 0 0 0
139 1 3 31.1018 -261 0 0 0 0 0
140 1 3 31.1018 -258 0 0 0 0 0
141 1 3 31.1018 -255 0 0 0 0 0
142 1 3 31.1018 -252 0 0 0 0 0
143 1 3 31.1018 -249 0 0 0 0 0
144 1 3 31.1018 -246 0 0 0 0 0
145 1 3 31.1018 -243 0 0 0 0 0
146 1 3 31.1018 -240 0 0 0 0 0
147 1 3 31.1018 -237 0 0 0 0 0
148 1 3 31.1018 -234 0 0 0 0 0
149 1 3 31.1018 -231 0 0 0 0 0
150 1 3 31.1018 -228 0 0 0 0 0
151 1 3 31.1018 -225 0 0 0 0 0
152 1 3 31.1018 -222 0 0 0 0 0
153 1 3 31.1018 -219 0 0 0 0 0
154 1 3 31.1018 -216 0 0 0 0 0
155 1 3 31.1018 -213 0 0 0 0 0
156 1 3 31.1018 -210 0 0 0 0 0
157 1 3 31.1018 -207 0 0 0 0 0
158 1 3 31.1018 -204 0 0 0 0 0
159 1 3 31.1018 -201 0 0 0 0 0
160 1 3 31.1018 -198 0 0 0 0 0
161 1 3 31.1018 -195 0 0 0 0 0
162 1 3 31.1018 -192 0 0 0 0 0
163 1 3 31.1018 -189 0 0 0 0 0
164 1 3 31.1018 -186 0 0 0 0 0
165 1 3 31.1018 -183 0 0 0 0 0
166 1 3 31.1018 -180 0 0 0 0 0
167 1 3 31.1018 -177 0 0 0 0 0
168 1 3 31.1018 -174 0 0 0 0 0
169 1 3 31.1018 -171 0 0 0 0 0
170 1 3 31.1018 -168 0 0 0 0 0
171 1 3 31.1018 -165 0 0 0 0 0
172 1 3 31.1018 -162 0 0 0 0 0
173 1 3 31.1018 -159 0 0 0 0 0
174 1 3 31.1018 -156 0 0 0 0 0
175 1 3 31.1018 -153 0 0 0 0 0
176 1 3 31.1018 -150 0 0 0 0 0
177 1 3 31.1018 -147 0 0 0 0 0
178 1 3 31.1018 -144 0 0 0 0 0
179 1 3 31.1018 -141 0 0 0 0 0
180 1 3 31.1018 -138 0 0 0 0 0
181 1 3 31.1018 -135 0 0 0 0 0
182 1 3 31.1018 -132 0 0 0 0 0
183 1 3 31.1018 -129 0 0 0 0 0
184 1 3 31.1018 -126 0 0 0 0 0
185 1 3 31.1018 -123 0 0 0 0 0
186 1 3 31.1018 -120 0 0 0 0 0
187 1 3 31.1018 -117 0 0 0 0 0
188 1 3 31.1018 -114 0 0 0 0 0
189 1 3 31.1018 -111 0 0 0 0 0
190 1 3 31.1018 -108 0 0 0 0 0
191 1 3 31.1018 -105 0 0 0 0 0
192 1 3 31.1018 -102 0 0 0 0 0
193 1 3 31.1018 -99 0 0 0 0 0
194 1 3 31.1018 -96 0 0 0 0 0
195 1 3 31.1018 -93 0 0 0 0 0
196 1 3 31.1018 -90 0 0 0 0 0
197 1 3 31.1018 -87 0 0 0 0 0
198 1 3 31.1018 -84 0 0 0 0 0
199 1 3 31.1018 -81 0 0 0 0 0
200 1 3 31.1018 -78 0 0 0 0 0
201 1 3 31.1018 -75 0 0 0 0 0
202 1 3 31.1018 -72 0 0 0 0 0
203 1 3 31.1018 -69 0 0 0 0 0
204 1 3 31.1018 -66 0 0 0 0 0
205 1 3 31.1018 -63 0 0 0 0 0
206 1 3 31.1018 -60 0 0 0 0 0
207 1 3 31.1018 -57 0 0 0 0 0
208 1 3 31.1018 -54 0 0 0 0 0
209 1 3 31.1018 -51 0 0 0 0 0
210 1 3 31.1018 -48 0 0 0 0 0
211 1 3 31.1018 -45 0 0 0 0 0
212 1 3 31.1018 -42 0 0 0 0 0
213 1 3 31.1018 -39 0 0 0 0 0
214 1 3 31.1018 -36 0 0 0 0 0
215 1 3 31.1018 -33 0 0 0 0 0
216 1 3 31.1018 -30 0 0 0 0 0
217 1 3 31.1018 -27 0 0 0 0 0
218 1 3 31.1018 -24 0 0 0 0 0
219 1 3 31.1018 -21 0 0 0 0 0
220 1 3 31.1018 -18 0 0 0 0 0
221 1 3 31.1018 -15 0 0 0 0 0
222 1 3 31.1018 -12 0 0 0 0 0
223 1 3 31.1018 -9 0 0 0 0 0
224 1 3 31.1018 -6 0 0 0 0 0
225 1 3 31.1018 -3 0 0 0 0 0
490 2 3 31.1018 -337.500101401255449 2.31281e-19 2.59757459299915405 0.361595 0 0.142828
491 2 3 31.1018 -334.500101401255677 2.29198e-19 2.5975745927755316 0.359345 0 0.142747
492 2 3 31.1018 -331.500101401255904 2.27114e-19 2.59757459255190959 0.357094 0 0.142665
493 2 3 31.1018 -328.500101401256131 2.25031e-19 2.59757459232828758 0.354843 0 0.142584
494 2 3 31.1018 -325.500101401256359 2.22947e-19 2.59757459210466557 0.352592 0 0.142503
495 2 3 31.1018 -322.500101401256586 2.20863e-19 2.59757459188104312 0.350342 0 0.142421
496 2 3 31.1018 -319.500101401256813 2.1878e-19 2.59757459165742111 0.348091 0 0.14234
497 2 3 31.1018 -316.500101401257041 2.16696e-19 2.5975745914337991 0.34584 0 0.142259
498 2 3 31.1018 -313.500101401257325 2.14613e-19 2.59757459121017709 0.34359 0 0.142177
499 2 3 31.1018 -310.500101401257552 2.12529e-19 2.59757459098655463 0.341339 0 0.142096
500 2 3 31.1018 -307.50010140125778 2.10445e-19 2.59757459076293262 0.339088 0 0.142014
501 2 3 31.1018 -304.500101401258007 2.08362e-19 2.59757459053931061 0.336837 0 0.141933
502 2 3 31.1018 -301.500101401258235 2.06278e-19 2.5975745903156886 0.334587 0 0.141852
503 2 3 31.1018 -298.500101401258462 2.04194e-19 2.59757459009206615 0.332336 0 0.14177
504 2 3 31.1018 -295.500101401258689 2.02111e-19 2.59757458986844414 0.330085 0 0.141689
505 2 3 31.1018 -292.500101401258917 2.00027e-19 2.59757458964482213 0.327834 0 0.141608
506 2 3 31.1018 -289.500101401259144 1.97944e-19 2.59757458942120012 0.325584 0 0.141526
507 2 3 31.1018 -286.500101401259371 1.9586e-19 2.59757458919757767 0.323333 0 0.141445
508 2 3 31.1018 -283.500101401259599 1.93776e-19 2.59757458897395566 0.321082 0 0.141364
509 2 3 31.1018 -280.500101401259826 1.91693e-19 2.59757458875033365 0.318831 0 0.141282
510 2 3 31.1018 -277.500101401260054 1.89609e-19 2.59757458852671164 0.316581 0 0.141201
511 2 3 31.1018 -274.500101401260281 1.87525e-19 2.59757458830308918 0.31433 0 0.14112
512 2 3 31.1018 -271.500101401260565 1.85442e-19 2.59757458807946717 0.312079 0 0.141038
513 2 3 31.1018 -268.500101401260792 1.83358e-19 2.59757458785584516 0.309828 0 0.140957
514 2 3 31.1018 -265.50010140126102 1.81275e-19 2.59757458763222315 0.307578 0 0.140875
515 2 3 31.1018 -262.500101401261247 1.79191e-19 2.5975745874086007 0.305327 0 0.140794
516 2 3 31.1018 -259.500101401261418 1.77107e-19 2.59757458718497869 0.303076 0 0.140713
517 2 3 31.1018 -256.500101401261645 1.75024e-19 2.59757458696135668 0.300826 0 0.140632
518 2 3 31.1018 -253.500101401261873 1.7294e-19 2.59757458673773467 0.298576 0 0.140551
519 2 3 31.1018 -250.5001014012621 1.70857e-19 2.59757458651411222 0.296325 0 0.14047
520 2 3 31.1018 -247.500101401262327 1.68773e-19 2.59757458629049021 0.294075 0 0.140388
521 2 3 31.1018 -244.500101401262555 1.66689e-19 2.5975745860668682 0.291824 0 0.140307
522 2 3 31.1018 -241.50010140126281 1.64606e-19 2.59757458584324619 0.289573 0 0.140226
523 2 3 31.1018 -238.500101401263038 1.62522e-19 2.59757458561962373 0.287322 0 0.140146
524 2 3 31.1018 -235.500101401263265 1.60438e-19 2.59757458539600172 0.28507 0 0.140065
525 2 3 31.1018 -232.500101401263493 1.58355e-19 2.59757458517237971 0.282819 0 0.139985
526 2 3 31.1018 -229.50010140126372 1.56271e-19 2.5975745849487577 0.280568 0 0.139904
527 2 3 31.1018 -226.500101401263947 1.54188e-19 2.59757458472513525 0.278316 0 0.139824
528 2 3 31.1018 -223.500101401264175 1.52104e-19 2.59757458450151324 0.276065 0 0.139743
529 2 3 31.1018 -220.50010140126443 1.5002e-19 2.59757458427789123 0.273813 0 0.139662
530 2 3 31.1018 -217.500101401264658 1.47937e-19 2.59757458405426922 0.271562 0 0.139582
531 2 3 31.1018 -214.500101401264885 1.45853e-19 2.59757458383064677 0.269311 0 0.139501
532 2 3 31.1018 -211.500101401265113 1.4377e-19 2.59757458360702476 0.267059 0 0.139421
533 2 3 31.1018 -208.50010140126534 1.41686e-19 2.59757458338340275 0.264808 0 0.13934
534 2 3 31.1018 -205.500101401265567 1.39602e-19 2.59757458315978074 0.262556 0 0.139259
535 2 3 31.1018 -202.500101401265795 1.37519e-19 2.59757458293615828 0.260305 0 0.139179
536 2 3 31.1018 -199.500101401266051 1.35435e-19 2.59757458271253627 0.258053 0 0.139098
537 2 3 31.1018 -196.500101401266278 1.33351e-19 2.59757458248891426 0.255802 0 0.139018
538 2 3 31.1018 -193.500101401266505 1.31268e-19 2.59757458226529225 0.253551 0 0.138937
539 2 3 31.1018 -190.500101401266733 1.29184e-19 2.5975745820416698 0.251299 0 0.138857
540 2 3 31.1018 -187.50010140126696 1.27101e-19 2.59757458181804779 0.249048 0 0.138776
541 2 3 31.1018 -184.500101401267187 1.25017e-19 2.59757458159442578 0.246796 0 0.138695
542 2 3 31.1018 -181.500101401267415 1.22933e-19 2.59757458137080377 0.244545 0 0.138615
543 2 3 31.1018 -178.500101401267671 1.2085e-19 2.59757458114718132 0.242293 0 0.138534
544 2 3 31.1018 -175.500101401267898 1.18766e-19 2.59757458092355931 0.240042 0 0.138454
545 2 3 31.1018 -172.500101401268125 1.16683e-19 2.5975745806999373 0.237791 0 0.138373
546 2 3 31.1018 -169.500101401268353 1.14599e-19 2.59757458047631529 0.235539 0 0.138292
547 2 3 31.1018 -166.50010140126858 1.12515e-19 2.59757458025269283 0.233288 0 0.138212
548 2 3 31.1018 -163.500101401268807 1.10432e-19 2.59757458002907082 0.231036 0 0.138131
549 2 3 31.1018 -160.500101401269035 1.08348e-19 2.59757457980544881 0.228785 0 0.138051
550 2 3 31.1018 -157.500101401269291 1.06264e-19 2.5975745795818268 0.226533 0 0.13797
551 2 3 31.1018 -154.500101401269518 1.04181e-19 2.59757457935820435 0.224282 0 0.13789
552 2 3 31.1018 -151.500101401269745 1.02097e-19 2.59757457913458234 0.22203 0 0.137809
553 2 3 31.1018 -148.500101401269973 1.00014e-19 2.59757457891096033 0.219779 0 0.137728
554 2 3 31.1018 -145.5001014012702 9.793e-20 2.59757457868733832 0.217528 0 0.137648
555 2 3 31.1018 -142.500101401270427 9.58464e-20 2.59757457846371587 0.215276 0 0.137567
556 2 3 31.1018 -139.500101401270655 9.37627e-20 2.59757457824009386 0.213025 0 0.137487
557 2 3 31.1018 -136.500101401270911 9.16791e-20 2.59757457801647185 0.210773 0 0.137406
558 2 3 31.1018 -133.500101401271138 8.95955e-20 2.59757457779284984 0.208522 0 0.137325
559 2 3 31.1018 -130.500101401271394 8.75119e-20 2.59757457756922738 0.20627 0 0.137245
560 2 3 31.1018 -127.500101401271607 8.54283e-20 2.59757457734560537 0.204019 0 0.137164
561 2 3 31.1018 -124.500101401271834 8.33447e-20 2.59757457712198336 0.201767 0 0.137084
562 2 3 31.1018 -121.500101401272076 8.1261e-20 2.59757457689836135 0.199516 0 0.137003
563 2 3 31.1018 -118.500101401272303 7.91774e-20 2.5975745766747389 0.197264 0 0.136922
564 2 3 31.1018 -115.500101401272531 7.70938e-20 2.59757457645111689 0.195013 0 0.136842
565 2 3 31.1018 -112.500101401272772 7.50102e-20 2.59757457622749488 0.192762 0 0.136761
566 2 3 31.1018 -109.500101401273 7.29266e-20 2.59757457600387287 0.19051 0 0.136681
567 2 3 31.1018 -106.500101401273227 7.0843e-20 2.59757457578025042 0.188259 0 0.1366
568 2 3 31.1018 -103.500101401273454 6.87593e-20 2.59757457555662841 0.186007 0 0.13652
569 2 3 31.1018 -100.500101401273696 6.66757e-20 2.5975745753330064 0.183756 0 0.136439
570 2 3 31.1018 -97.5001014012739233 6.45921e-20 2.59757457510938439 0.181504 0 0.136358
571 2 3 31.1018 -94.5001014012741507 6.25085e-20 2.59757457488576193 0.179253 0 0.136278
572 2 3 31.1018 -91.5001014012743923 6.04249e-20 2.59757457466213992 0.177001 0 0.136197
573 2 3 31.1018 -88.5001014012746197 5.83413e-20 2.59757457443851791 0.17475 0 0.136117
574 2 3 31.1018 -85.500101401274847 5.62576e-20 2.5975745742148959 0.172498 0 0.136036
575 2 3 31.1018 -82.5001014012750744 5.4174e-20 2.59757457399127345 0.170247 0 0.135955
576 2 3 31.1018 -79.500101401275316 5.20904e-20 2.59757457376765144 0.167995 0 0.135875
577 2 3 31.1018 -76.5001014012755434 5.00068e-20 2.59757457354402943 0.165744 0 0.135794
578 2 3 31.1018 -73.5001014012757707 4.79232e-20 2.59757457332040742 0.163493 0 0.135714
579 2 3 31.1018 -70.5001014012760123 4.58396e-20 2.59757457309678497 0.161241 0 0.135633
580 2 3 31.1018 -67.5001014012762397 4.37559e-20 2.59757457287316296 0.15899 0 0.135552
581 2 3 31.1018 -64.5001014012764671 4.16723e-20 2.59757457264954095 0.156738 0 0.135472
582 2 3 31.1018 -61.5001014012767087 3.95887e-20 2.59757457242591894 0.154487 0 0.135391
583 2 3 31.1018 -58.5001014012769431 3.75051e-20 2.59757457220229648 0.152235 0 0.135311
584 2 3 31.1018 -55.5001014012771705 3.54215e-20 2.59757457197867447 0.149984 0 0.13523
585 2 3 31.1018 -52.500101401277405 3.33379e-20 2.59757457175505246 0.147732 0 0.135149
586 2 3 31.1018 -49.5001014012776324 3.12542e-20 2.59757457153143045 0.145481 0 0.135069
587 2 3 31.1018 -46.5001014012778668 2.91706e-20 2.597574571307808 0.143229 0 0.134988
588 2 3 31.1018 -43.5001014012780942 2.7087e-20 2.59757457108418599 0.140977 0 0.134908
589 2 3 31.1018 -40.5001014012783287 2.50034e-20 2.59757457086056398 0.138725 0 0.134828
590 2 3 31.1018 -37.5001014012785632 2.29198e-20 2.59757457063694197 0.136473 0 0.134748
591 2 3 31.1018 -34.5001014012787834 2.08362e-20 2.59757457041331952 0.13422 0 0.134668
592 2 3 31.1018 -31.5001014012790179 1.87525e-20 2.59757457018969751 0.131968 0 0.134588
593 2 3 31.1018 -28.5001014012792488 1.66689e-20 2.5975745699660755 0.129715 0 0.134508
594 2 3 31.1018 -25.5001014012794798 1.45853e-20 2.59757456974245349 0.127463 0 0.134428
595 2 3 31.1018 -22.5001014012797107 1.25017e-20 2.59757456951883103 0.12521 0 0.134348
596 2 3 31.1018 -19.5001014012799416 1.04181e-20 2.59757456929520902 0.122958 0 0.134268
597 2 3 31.1018 -16.5001014012801761 8.33447e-21 2.59757456907158701 0.120705 0 0.134188
598 2 3 31.1018 -13.500101401280407 6.25085e-21 2.597574568847965 0.118453 0 0.134108
599 2 3 31.1018 -10.500101401280638 4.16723e-21 2.59757456862434255 0.1162 0 0.134028
600 2 3 31.1018 -7.50010140128087066 2.08362e-21 2.59757456840072054 0.113948 0 0.133948
601 2 3 31.1018 -4.50010140128110159 -1.14115e-35 2.59757456817709853 0.111695 0 0.133868
602 2 3 31.1018 -1.50010140128133296 -2.08362e-21 2.59757456795347652 0.109443 0 0.133788
226 1 3 31.1018 0 0 0 0 0 0
227 1 3 31.1018 3 0 0 0 0 0
228 1 3 31.1018 6 0 0 0 0 0
229 1 3 31.1018 9 0 0 0 0 0
230 1 3 31.1018 12 0 0 0 0 0
231 1 3 31.1018 15 0 0 0 0 0
232 1 3 31.1018 18 0 0 0 0 0
233 1 3 31.1018 21 0 0 0 0 0
234 1 3 31.1018 24 0 0 0 0 0
235 1 3 31.1018 27 0 0 0 0 0
236 1 3 31.1018 30 0 0 0 0 0
237 1 3 31.1018 33 0 0 0 0 0
238 1 3 31.1018 36 0 0 0 0 0
239 1 3 31.1018 39 0 0 0 0 0
240 1 3 31.1018 42 0 0 0 0 0
241 1 3 31.1018 45 0 0 0 0 0
242 1 3 31.1018 48 0 0 0 0 0
243 1 3 31.1018 51 0 0 0 0 0
244 1 3 31.1018 54 0 0 0 0 0
245 1 3 31.1018 57 0 0 0 0 0
246 1 3 31.1018 60 0 0 0 0 0
247 1 3 31.1018 63 0 0 0 0 0
248 1 3 31.1018 66 0 0 0 0 0
249 1 3 31.1018 69 0 0 0 0 0
250 1 3 31.1018 72 0 0 0 0 0
251 1 3 31.1018 75 0 0 0 0 0
252 1 3 31.1018 78 0 0 0 0 0
253 1 3 31.1018 81 0 0 0 0 0
254 1 3 31.1018 84 0 0 0 0 0
255 1 3 31.1018 87 0 0 0 0 0
256 1 3 31.1018 90 0 0 0 0 0
257 1 3 31.1018 93 0 0 0 0 0
258 1 3 31.1018 96 0 0 0 0 0
259 1 3 31.1018 99 0 0 0 0 0
260 1 3 31.1018 102 0 0 0 0 0
261 1 3 31.1018 105 0 0 0 0 0
262 1 3 31.1018 108 0 0 0 0 0
263 1 3 31.1018 111 0 0 0 0 0
264 1 3 31.1018 114 0 0 0 0 0
265 1 3 31.1018 117 0 0 0 0 0
266 1 3 31.1018 120 0 0 0 0 0
267 1 3 31.1018 123 0 0 0 0 0
268 1 3 31.1018 126 0 0 0 0 0
269 1 3 31.1018 129 0 0 0 0 0
270 1 3 31.1018 132 0 0 0 0 0
271 1 3 31.1018 135 0 0 0 0 0
272 1 3 31.1018 138 0 0 0 0 0
273 1 3 31.1018 141 0 0 0 0 0
274 1 3 31.1018 144 0 0 0 0 0
275 1 3 31.1018 147 0 0 0 0 0
276 1 3 31.1018 150 0 0 0 0 0
277 1 3 31.1018 153 0 0 0 0 0
278 1 3 31.1018 156 0 0 0 0 0
279 1 3 31.1018 159 0 0 0 0 0
280 1 3 31.1018 162 0 0 0 0 0
281 1 3 31.1018 165 0 0 0 0 0
282 1 3 31.1018 168 0 0 0 0 0
283 1 3 31.1018 171 0 0 0 0 0
284 1 3 31.1018 174 0 0 0 0 0
285 1 3 31.1018 177 0 0 0 0 0
286 1 3 31.1018 180 0 0 0 0 0
287 1 3 31.1018 183 0 0 0 0 0
288 1 3 31.1018 186 0 0 0 0 0
289 1 3 31.1018 189 0 0 0 0 0
290 1 3 31.1018 192 0 0 0 0 0
291 1 3 31.1018 195 0 0 0 0 0
292 1 3 31.1018 198 0 0 0 0 0
293 1 3 31.1018 201 0 0 0 0 0
294 1 3 31.1018 204 0 0 0 0 0
295 1 3 31.1018 207 0 0 0 0 0
296 1 3 31.1018 210 0 0 0 0 0
297 1 3 31.1018 213 0 0 0 0 0
298 1 3 31.1018 216 0 0 0 0 0
299 1 3 31.1018 219 0 0 0 0 0
300 1 3 31.1018 222 0 0 0 0 0
301 1 3 31.1018 225 0 0 0 0 0
302 1 3 31.1018 228 0 0 0 0 0
303 1 3 31.1018 231 0 0 0 0 0
304 1 3 31.1018 234 0 0 0 0 0
305 1 3 31.1018 237 0 0 0 0 0
306 1 3 31.1018 240 0 0 0 0 0
307 1 3 31.1018 243 0 0 0 0 0
308 1 3 31.1018 246 0 0 0 0 0
309 1 3 31.1018 249 0 0 0 0 0
310 1 3 31.1018 252 0 0 0 0 0
311 1 3 31.1018 255 0 0 0 0 0
312 1 3 31.1018 258 0 0 0 0 0
313 1 3 31.1018 261 0 0 0 0 0
314 1 3 31.1018 264 0 0 0 0 0
315 1 3 31.1018 267 0 0 0 0 0
316 1 3 31.1018 270 0 0 0 0 0
317 1 3 31.1018 273 0 0 0 0 0
318 1 3 31.1018 276 0 0 0 0 0
319 1 3 31.1018 279 0 0 0 0 0
320 1 3 31.1018 282 0 0 0 0 0
321 1 3 31.1018 285 0 0 0 0 0
322 1 3 31.1018 288 0 0 0 0 0
323 1 3 31.1018 291 0 0 0 0 0
324 1 3 31.1018 294 0 0 0 0 0
325 1 3 31.1018 297 0 0 0 0 0
326 1 3 31.1018 300 0 0 0 0 0
327 1 3 31.1018 303 0 0 0 0 0
328 1 3 31.1018 306 0 0 0 0 0
329 1 3 31.1018 309 0 0 0 0 0
330 1 3 31.1018 312 0 0 0 0 0
331 1 3 31.1018 315 0 0 0 0 0
332 1 3 31.1018 318 0 0 0 0 0
333 1 3 31.1018 321 0 0 0 0 0
334 1 3 31.1018 324 0 0 0 0 0
335 1 3 31.1018 327 0 0 0 0 0
336 1 3 31.1018 330 0 0 0 0 0
337 1 3 31.1018 333 0 0 0 0 0
338 1 3 31.1018 336 0 0 0 0 0
603 2 3 31.1018 1.49989859871843567 -4.16723e-21 2.59757456772985451 0.10719 0 0.133707
604 2 3 31.1018 4.49989859871820297 -6.25085e-21 2.59757456750623206 0.104938 0 0.133627
605 2 3 31.1018 7.49989859871797204 -8.33447e-21 2.59757456728261005 0.102685 0 0.133547
606 2 3 31.1018 10.499898598717742 -1.04181e-20 2.59757456705898804 0.100433 0 0.133467
607 2 3 31.1018 13.4998985987175111 -1.25017e-20 2.59757456683536603 0.0981801 0 0.133387
608 2 3 31.1018 16.4998985987172802 -1.45853e-20 2.59757456661174357 0.0959276 0 0.133307
609 2 3 31.1018 19.4998985987170492 -1.66689e-20 2.59757456638812156 0.0936751 0 0.133227
610 2 3 31.1018 22.4998985987168183 -1.87525e-20 2.59757456616449955 0.0914226 0 0.133147
611 2 3 31.1018 25.4998985987165838 -2.08362e-20 2.59757456594087754 0.0891701 0 0.133067
612 2 3 31.1018 28.49989859871636 -2.29198e-20 2.59757456571725509 0.0869176 0 0.132987
613 2 3 31.1018 31.4998985987161255 -2.50034e-20 2.59757456549363308 0.0846651 0 0.132907
614 2 3 31.1018 34.4998985987158804 -2.7087e-20 2.59757456527001107 0.0824126 0 0.132827
615 2 3 31.1018 37.499898598715653 -2.91706e-20 2.59757456504638906 0.08016 0 0.132747
616 2 3 31.1018 40.4998985987154185 -3.12542e-20 2.59757456482276661 0.0779075 0 0.132667
617 2 3 31.1018 43.4998985987151912 -3.33379e-20 2.5975745645991446 0.075655 0 0.132587
618 2 3 31.1018 46.4998985987149567 -3.54215e-20 2.59757456437552259 0.0734025 0 0.132507
619 2 3 31.1018 49.4998985987147293 -3.75051e-20 2.59757456415190058 0.07115 0 0.132427
620 2 3 31.1018 52.4998985987144948 -3.95887e-20 2.59757456392827812 0.0688975 0 0.132347
621 2 3 31.1018 55.4998985987142603 -4.16723e-20 2.59757456370465611 0.0666449 0 0.132267
622 2 3 31.1018 58.499898598714033 -4.37559e-20 2.5975745634810341 0.0643924 0 0.132187
623 2 3 31.1018 61.4998985987138056 -4.58396e-20 2.59757456325741209 0.0621399 0 0.132107
624 2 3 31.1018 64.4998985987135711 -4.79232e-20 2.59757456303378964 0.0598874 0 0.132027
625 2 3 31.1018 67.4998985987133437 -5.00068e-20 2.59757456281016763 0.0576348 0 0.131947
626 2 3 31.1018 70.4998985987131164 -5.20904e-20 2.59757456258654562 0.0553823 0 0.131867
627 2 3 31.1018 73.4998985987128748 -5.4174e-20 2.59757456236292361 0.0531298 0 0.131787
628 2 3 31.1018 76.4998985987126474 -5.62576e-20 2.59757456213930116 0.0508773 0 0.131707
629 2 3 31.1018 79.49989859871242 -5.83413e-20 2.59757456191567915 0.0486247 0 0.131627
630 2 3 31.1018 82.4998985987121927 -6.04249e-20 2.59757456169205714 0.0463722 0 0.131547
631 2 3 31.1018 85.4998985987119511 -6.25085e-20 2.59757456146843513 0.0441197 0 0.131467
632 2 3 31.1018 88.4998985987117237 -6.45921e-20 2.59757456124481267 0.0418672 0 0.131387
633 2 3 31.1018 91.4998985987114963 -6.66757e-20 2.59757456102119066 0.0396146 0 0.131307
634 2 3 31.1018 94.4998985987112547 -6.87593e-20 2.59757456079756865 0.0373621 0 0.131227
635 2 3 31.1018 97.4998985987110274 -7.0843e-20 2.59757456057394664 0.0351096 0 0.131147
636 2 3 31.1018 100.4998985987108 -7.29266e-20 2.59757456035032419 0.032857 0 0.131067
637 2 3 31.1018 103.499898598710573 -7.50102e-20 2.59757456012670218 0.0306045 0 0.130987
638 2 3 31.1018 106.499898598710331 -7.70938e-20 2.59757455990308017 0.0283519 0 0.130907
639 2 3 31.1018 109.499898598710104 -7.91774e-20 2.59757455967945816 0.0260998 0 0.130827
640 2 3 31.1018 112.499898598709876 -8.1261e-20 2.59757455945583571 0.0238476 0 0.130747
641 2 3 31.1018 115.499898598709635 -8.33447e-20 2.5975745592322137 0.0215955 0 0.130667
642 2 3 31.1018 118.499898598709407 -8.54283e-20 2.59757455900859169 0.0193433 0 0.130587
643 2 3 31.1018 121.49989859870918 -8.75119e-20 2.59757455878496968 0.0170911 0 0.130507
644 2 3 31.1018 124.499898598708967 -8.95955e-20 2.59757455856134722 0.0148389 0 0.130428
645 2 3 31.1018 127.499898598708739 -9.16791e-20 2.59757455833772521 0.0125867 0 0.130348
646 2 3 31.1018 130.499898598708484 -9.37627e-20 2.5975745581141032 0.0103346 0 0.130268
647 2 3 31.1018 133.499898598708256 -9.58464e-20 2.59757455789048119 0.00808243 0 0.130188
648 2 3 31.1018 136.499898598708029 -9.793e-20 2.59757455766685874 0.00583025 0 0.130108
649 2 3 31.1018 139.499898598707802 -1.00014e-19 2.59757455744323673 0.00357807 0 0.130029
650 2 3 31.1018 142.499898598707574 -1.02097e-19 2.59757455721961472 0.0013259 0 0.129949
651 2 3 31.1018 145.499898598707347 -1.04181e-19 2.59757455699599271 -0.000926285 0 0.129869
652 2 3 31.1018 148.499898598707119 -1.06264e-19 2.59757455677237026 -0.00317847 0 0.129789
653 2 3 31.1018 151.499898598706864 -1.08348e-19 2.59757455654874825 -0.00543062 0 0.129709
654 2 3 31.1018 154.499898598706636 -1.10432e-19 2.59757455632512624 -0.0076828 0 0.129629
655 2 3 31.1018 157.499898598706409 -1.12515e-19 2.59757455610150423 -0.00993557 0 0.12955
656 2 3 31.1018 160.499898598706181 -1.14599e-19 2.59757455587788177 -0.0121888 0 0.129471
657 2 3 31.1018 163.499898598705954 -1.16683e-19 2.59757455565425976 -0.0144419 0 0.129391
658 2 3 31.1018 166.499898598705727 -1.18766e-19 2.59757455543063775 -0.0166951 0 0.129312
659 2 3 31.1018 169.499898598705499 -1.2085e-19 2.59757455520701575 -0.0189483 0 0.129233
660 2 3 31.1018 172.499898598705244 -1.22933e-19 2.59757455498339329 -0.0212015 0 0.129154
661 2 3 31.1018 175.499898598705016 -1.25017e-19 2.59757455475977128 -0.0234547 0 0.129074
662 2 3 31.1018 178.499898598704789 -1.27101e-19 2.59757455453614927 -0.0257078 0 0.128995
663 2 3 31.1018 181.499898598704561 -1.29184e-19 2.59757455431252726 -0.027961 0 0.128916
664 2 3 31.1018 184.499898598704334 -1.31268e-19 2.59757455408890481 -0.0299867 0 0.128705
665 2 3 31.1018 187.499898598704107 -1.33351e-19 2.5975745538652828 -0.0316768 0 0.128301
666 2 3 31.1018 190.499898598703879 -1.35435e-19 2.59757455364166079 -0.0333669 0 0.127897
667 2 3 31.1018 193.499898598703624 -1.37519e-19 2.59757455341803878 -0.0350569 0 0.127492
668 2 3 31.1018 196.499898598703396 -1.39602e-19 2.59757455319441632 -0.036747 0 0.127088
669 2 3 31.1018 199.499898598703169 -1.41686e-19 2.59757455297079431 -0.0384371 0 0.126683
670 2 3 31.1018 202.499898598702941 -1.4377e-19 2.59757455274717231 -0.0401272 0 0.126279