ITEM: TIMESTEP
4100000
ITEM: NUMBER OF ATOMS
1001
ITEM: BOX BOUNDS pp pp pp
-9.0000000000000000e+02 9.0000000000000000e+02
-1.0000000000000000e+02 1.0000000000000000e+02
-1.0000000000000000e+02 1.0000000000000000e+02
ITEM: ATOMS id type diameter mass xu yu zu fx fy fz
1 1 3 31.1018 -900 0 0 0 0 0
2 1 3 31.1018 -897 0 0 0 0 0
3 1 3 31.1018 -894 0 0 0 0 0
4 1 3 31.1018 -891 0 0 0 0 0
5 1 3 31.1018 -888 0 0 0 0 0
6 1 3 31.1018 -885 0 0 0 0 0
7 1 3 31.1018 -882 0 0 0 0 0
8 1 3 31.1018 -879 0 0 0 0 0
9 1 3 31.1018 -876 0 0 0 0 0
10 1 3 31.1018 -873 0 0 0 0 0
11 1 3 31.1018 -870 0 0 0 0 0
12 1 3 31.1018 -867 0 0 0 0 0
13 1 3 31.1018 -864 0 0 0 0 0
14 1 3 31.1018 -861 0 0 0 0 0
15 1 3 31.1018 -858 0 0 0 0 0
16 1 3 31.1018 -855 0 0 0 0 0
17 1 3 31.1018 -852 0 0 0 0 0
18 1 3 31.1018 -849 0 0 0 0 0
19 1 3 31.1018 -846 0 0 0 0 0
20 1 3 31.1018 -843 0 0 0 0 0
21 1 3 31.1018 -840 0 0 0 0 0
22 1 3 31.1018 -837 0 0 0 0 0
23 1 3 31.1018 -834 0 0 0 0 0
24 1 3 31.1018 -831 0 0 0 0 0
25 1 3 31.1018 -828 0 0 0 0 0
26 1 3 31.1018 -825 0 0 0 0 0
27 1 3 31.1018 -822 0 0 0 0 0
28 1 3 31.1018 -819 0 0 0 0 0
29 1 3 31.1018 -816 0 0 0 0 0
30 1 3 31.1018 -813 0 0 0 0 0
31 1 3 31.1018 -810 0 0 0 0 0
32 1 3 31.1018 -807 0 0 0 0 0
33 1 3 31.1018 -804 0 0 0 0 0
34 1 3 31.1018 -801 0 0 0 0 0
35 1 3 31.1018 -798 0 0 0 0 0
36 1 3 31.1018 -795 0 0 0 0 0
37 1 3 31.1018 -792 0 0 0 0 0
38 1 3 31.1018 -789 0 0 0 0 0
39 1 3 31.1018 -786 0 0 0 0 0
40 1 3 31.1018 -783 0 0 0 0 0
41 1 3 31.1018 -780 0 0 0 0 0
42 1 3 31.1018 -777 0 0 0 0 0
43 1 3 31.1018 -774 0 0 0 0 0
44 1 3 31.1018 -771 0 0 0 0 0
45 1 3 31.1018 -768 0 0 0 0 0
46 1 3 31.1018 -765 0 0 0 0 0
47 1 3 31.1018 -762 0 0 0 0 0
48 1 3 31.1018 -759 0 0 0 0 0
49 1 3 31.1018 -756 0 0 0 0 0
50 1 3 31.1018 -753 0 0 0 0 0
51 1 3 31.1018 -750 0 0 0 0 0
52 1 3 31.1018 -747 0 0 0 0 0
53 1 3 31.1018 -744 0 0 0 0 0
54 1 3 31.1018 -741 0 0 0 0 0
55 1 3 31.1018 -738 0 0 0 0 0
56 1 3 31.1018 -735 0 0 0 0 0
57 1 3 31.1018 -732 0 0 0 0 0
58 1 3 31.1018 -729 0 0 0 0 0
59 1 3 31.1018 -726 0 0 0 0 0
60 1 3 31.1018 -723 0 0 0 0 0
61 1 3 31.1018 -720 0 0 0 0 0
62 1 3 31.1018 -717 0 0 0 0 0
63 1 3 31.1018 -714 0 0 0 0 0
64 1 3 31.1018 -711 0 0 0 0 0
65 1 3 31.1018 -708 0 0 0 0 0
66 1 3 31.1018 -705 0 0 0 0 0
67 1 3 31.1018 -702 0 0 0 0 0
68 1 3 31.1018 -699 0 0 0 0 0
69 1 3 31.1018 -696 0 0 0 0 0
70 1 3 31.1018 -693 0 0 0 0 0
71 1 3 31.1018 -690 0 0 0 0 0
72 1 3 31.1018 -687 0 0 0 0 0
73 1 3 31.1018 -684 0 0 0 0 0
74 1 3 31.1018 -681 0 0 0 0 0
75 1 3 31.1018 -678 0 0 0 0 0
76 1 3 31.1018 -675 0 0 0 0 0
77 1 3 31.1018 -672 0 0 0 0 0
78 1 3 31.1018 -669 0 0 0 0 0
79 1 3 31.1018 -666 0 0 0 0 0
80 1 3 31.1018 -663 0 0 0 0 0
81 1 3 31.1018 -660 0 0 0 0 0
82 1 3 31.1018 -657 0 0 0 0 0
83 1 3 31.1018 -654 0 0 0 0 0
84 1 3 31.1018 -651 0 0 0 0 0
85 1 3 31.1018 -648 0 0 0 0 0
86 1 3 31.1018 -645 0 0 0 0 0
87 1 3 31.1018 -642 0 0 0 0 0
88 1 3 31.1018 -639 0 0 0 0 0
89 1 3 31.1018 -636 0 0 0 0 0
90 1 3 31.1018 -633 0 0 0 0 0
91 1 3 31.1018 -630 0 0 0 0 0
92 1 3 31.1018 -627 0 0 0 0 0
93 1 3 31.1018 -624 0 0 0 0 0
94 1 3 31.1018 -621 0 0 0 0 0
95 1 3 31.1018 -618 0 0 0 0 0
96 1 3 31.1018 -615 0 0 0 0 0
97 1 3 31.1018 -612 0 0 0 0 0
98 1 3 31.1018 -609 0 0 0 0 0
99 1 3 31.1018 -606 0 0 0 0 0
100 1 3 31.1018 -603 0 0 0 0 0
101 1 3 31.1018 -600 0 0 0 0 0
102 1 3 31.1018 -597 0 0 0 0 0
103 1 3 31.1018 -594 0 0 0 0 0
104 1 3 31.1018 -591 0 0 0 0 0
105 1 3 31.1018 -588 0 0 0 0 0
106 1 3 31.1018 -585 0 0 0 0 0
107 1 3 31.1018 -582 0 0 0 0 0
108 1 3 31.1018 -579 0 0 0 0 0
109 1 3 31.1018 -576 0 0 0 0 0
110 1 3 31.1018 -573 0 0 0 0 0
111 1 3 31.1018 -570 0 0 0 0 0
112 1 3 31.1018 -567 0 0 0 0 0
113 1 3 31.1018 -564 0 0 0 0 0
114 1 3 31.1018 -561 0 0 0 0 0
115 1 3 31.1018 -558 0 0 0 0 0
116 1 3 31.1018 -555 0 0 0 0 0
117 1 3 31.1018 -552 0 0 0 0 0
118 1 3 31.1018 -549 0 0 0 0 0
119 1 3 31.1018 -546 0 0 0 0 0
120 1 3 31.1018 -543 0 0 0 0 0
121 1 3 31.1018 -540 0 0 0 0 0
122 1 3 31.1018 -537 0 0 0 0 0
123 1 3 31.1018 -534 0 0 0 0 0
124 1 3 31.1018 -531 0 0 0 0 0
125 1 3 31.1018 -528 0 0 0 0 0
126 1 3 31.1018 -525 0 0 0 0 0
127 1 3 31.1018 -522 0 0 0 0 0
128 1 3 31.1018 -519 0 0 0 0 0
129 1 3 31.1018 -516 0 0 0 0 0
130 1 3 31.1018 -513 0 0 0 0 0
131 1 3 31.1018 -510 0 0 0 0 0
132 1 3 31.1018 -507 0 0 0 0 0
133 1 3 31.1018 -504 0 0 0 0 0
134 1 3 31.1018 -501 0 0 0 0 0
135 1 3 31.1018 -498 0 0 0 0 0
136 1 3 31.1018 -495 0 0 0 0 0
137 1 3 31.1018 -492 0 0 0 0 0
138 1 3 31.1018 -489 0 0 0 0 0
139 1 3 31.1018 -486 0 0 0 0 0
140 1 3 31.1018 -483 0 0 0 0 0
141 1 3 31.1018 -480 0 0 0 0 0
142 1 3 31.1018 -477 0 0 0 0 0
143 1 3 31.1018 -474 0 0 0 0 0
144 1 3 31.1018 -471 0 0 0 0 0
145 1 3 31.1018 -468 0 0 0 0 0
146 1 3 31.1018 -465 0 0 0 0 0
147 1 3 31.1018 -462 0 0 0 0 0
148 1 3 31.1018 -459 0 0 0 0 0
149 1 3 31.1018 -456 0 0 0 0 0
150 1 3 31.1018 -453 0 0 0 0 0
601 2 3 31.1018 -604.50010136516596 1.89928e-19 2.59757463460339766 0.238389 0 -0.0148431
602 2 3 31.1018 -601.50010136516596 1.88979e-19 2.59757463445242953 0.239068 0 -0.0136701
603 2 3 31.1018 -598.50010136516596 1.88029e-19 2.59757463430146096 0.239747 0 -0.0124971
604 2 3 31.1018 -595.500101365166074 1.87079e-19 2.59757463415049283 0.240427 0 -0.0113241
605 2 3 31.1018 -592.500101365166074 1.8613e-19 2.59757463399952471 0.241106 0 -0.0101511
606 2 3 31.1018 -589.500101365166074 1.8518e-19 2.59757463384855658 0.241785 0 -0.0089781
607 2 3 31.1018 -586.500101365166188 1.84231e-19 2.59757463369758801 0.242465 0 -0.00780509
608 2 3 31.1018 -583.500101365166188 1.83281e-19 2.59757463354661988 0.243144 0 -0.0066321
609 2 3 31.1018 -580.500101365166302 1.82331e-19 2.59757463339565176 0.242396 0 -0.00628317
610 2 3 31.1018 -577.500101365166302 1.81382e-19 2.59757463324468363 0.241117 0 -0.00624098
611 2 3 31.1018 -574.500101365166302 1.80432e-19 2.59757463309371506 0.239839 0 -0.00619879
612 2 3 31.1018 -571.500101365166415 1.79482e-19 2.59757463294274693 0.23856 0 -0.00615659
613 2 3 31.1018 -568.500101365166415 1.78533e-19 2.5975746327917788 0.237281 0 -0.0061144
614 2 3 31.1018 -565.500101365166415 1.77583e-19 2.59757463264081068 0.236002 0 -0.00607222
615 2 3 31.1018 -562.500101365166529 1.76633e-19 2.59757463248984211 0.234724 0 -0.00603001
616 2 3 31.1018 -559.500101365166529 1.75684e-19 2.59757463233887398 0.233445 0 -0.00598783
617 2 3 31.1018 -556.500101365166643 1.74734e-19 2.59757463218790585 0.232166 0 -0.00594563
618 2 3 31.1018 -553.500101365166643 1.73784e-19 2.59757463203693773 0.230887 0 -0.00590344
619 2 3 31.1018 -550.500101365166643 1.72835e-19 2.59757463188596915 0.229609 0 -0.00586125
620 2 3 31.1018 -547.500101365166756 1.71885e-19 2.59757463173500103 0.22833 0 -0.00581905
621 2 3 31.1018 -544.500101365166756 1.70936e-19 2.5975746315840329 0.227051 0 -0.00577686
622 2 3 31.1018 -541.500101365166756 1.69986e-19 2.59757463143306477 0.225772 0 -0.00573468
623 2 3 31.1018 -538.50010136516687 1.69036e-19 2.5975746312820962 0.224494 0 -0.00569248
624 2 3 31.1018 -535.50010136516687 1.68087e-19 2.59757463113112808 0.223215 0 -0.00565029
625 2 3 31.1018 -532.500101365166984 1.67137e-19 2.59757463098015995 0.221936 0 -0.00560809
626 2 3 31.1018 -529.500101365166984 1.66187e-19 2.59757463082919182 0.220657 0 -0.0055659
627 2 3 31.1018 -526.500101365166984 1.65238e-19 2.59757463067822325 0.219378 0 -0.00552371
628 2 3 31.1018 -523.500101365167097 1.64288e-19 2.59757463052725512 0.2181 0 -0.00548151
629 2 3 31.1018 -520.500101365167097 1.63338e-19 2.597574630376287 0.216821 0 -0.00543933
630 2 3 31.1018 -517.500101365167097 1.62389e-19 2.59757463022531887 0.215542 0 -0.00539714
631 2 3 31.1018 -514.500101365167097 1.61439e-19 2.5975746300743503 0.214263 0 -0.00535495
632 2 3 31.1018 -511.500101365167211 1.60489e-19 2.59757462992338217 0.212985 0 -0.00531275
633 2 3 31.1018 -508.500101365167268 1.5954e-19 2.59757462977241405 0.211706 0 -0.00527056
634 2 3 31.1018 -505.500101365167325 1.5859e-19 2.59757462962144592 0.210427 0 -0.00522837
635 2 3 31.1018 -502.500101365167325 1.57641e-19 2.59757462947047735 0.209148 0 -0.00518618
636 2 3 31.1018 -499.500101365167382 1.56691e-19 2.59757462931950922 0.207869 0 -0.00514399
637 2 3 31.1018 -496.500101365167438 1.55741e-19 2.59757462916854109 0.206591 0 -0.0051018
638 2 3 31.1018 -493.500101365167495 1.54792e-19 2.59757462901757297 0.205312 0 -0.00505961
639 2 3 31.1018 -490.500101365167495 1.53842e-19 2.5975746288666044 0.204033 0 -0.00501742
640 2 3 31.1018 -487.500101365167552 1.52892e-19 2.59757462871563627 0.202754 0 -0.00497523
641 2 3 31.1018 -484.500101365167609 1.51943e-19 2.59757462856466814 0.201476 0 -0.00493304
642 2 3 31.1018 -481.500101365167666 1.50993e-19 2.59757462841370002 0.200197 0 -0.00489084
643 2 3 31.1018 -478.500101365167666 1.50043e-19 2.59757462826273144 0.198918 0 -0.00484866
644 2 3 31.1018 -475.500101365167723 1.49094e-19 2.59757462811176332 0.197639 0 -0.00480647
645 2 3 31.1018 -472.500101365167779 1.48144e-19 2.59757462796079519 0.196361 0 -0.00476427
646 2 3 31.1018 -469.500101365167836 1.47195e-19 2.59757462780982706 0.195082 0 -0.00472208
647 2 3 31.1018 -466.500101365167836 1.46245e-19 2.59757462765885849 0.193803 0 -0.0046799
648 2 3 31.1018 -463.500101365167893 1.45295e-19 2.59757462750789037 0.192524 0 -0.0046377
649 2 3 31.1018 -460.50010136516795 1.44346e-19 2.59757462735692224 0.191245 0 -0.00459551
650 2 3 31.1018 -457.500101365168007 1.43396e-19 2.59757462720595411 0.189967 0 -0.00455332
651 2 3 31.1018 -454.500101365168007 1.42446e-19 2.59757462705498554 0.188688 0 -0.00451114
652 2 3 31.1018 -451.500101365168064 1.41497e-19 2.59757462690401741 0.187409 0 -0.00446895
151 1 3 31.1018 -450 0 0 0 0 0
152 1 3 31.1018 -447 0 0 0 0 0
153 1 3 31.1018 -444 0 0 0 0 0
154 1 3 31.1018 -441 0 0 0 0 0
155 1 3 31.1018 -438 0 0 0 0 0
156 1 3 31.1018 -435 0 0 0 0 0
157 1 3 31.1018 -432 0 0 0 0 0
158 1 3 31.1018 -429 0 0 0 0 0
159 1 3 31.1018 -426 0 0 0 0 0
160 1 3 31.1018 -423 0 0 0 0 0
161 1 3 31.1018 -420 0 0 0 0 0
162 1 3 31.1018 -417 0 0 0 0 0
163 1 3 31.1018 -414 0 0 0 0 0
164 1 3 31.1018 -411 0 0 0 0 0
165 1 3 31.1018 -408 0 0 0 0 0
166 1 3 31.1018 -405 0 0 0 0 0
167 1 3 31.1018 -402 0 0 0 0 0
168 1 3 31.1018 -399 0 0 0 0 0
169 1 3 31.1018 -396 0 0 0 0 0
170 1 3 31.1018 -393 0 0 0 0 0
171 1 3 31.1018 -390 0 0 0 0 0
172 1 3 31.1018 -387 0 0 0 0 0
173 1 3 31.1018 -384 0 0 0 0 0
174 1 3 31.1018 -381 0 0 0 0 0
175 1 3 31.1018 -378 0 0 0 0 0
176 1 3 31.1018 -375 0 0 0 0 0
177 1 3 31.1018 -372 0 0 0 0 0
178 1 3 31.1018 -369 0 0 0 0 0
179 1 3 31.1018 -366 0 0 0 0 0
180 1 3 31.1018 -363 0 0 0 0 0
181 1 3 31.1018 -360 0 0 0 0 0
182 1 3 31.1018 -357 0 0 0 0 0
183 1 3 31.1018 -354 0 0 0 0 0
184 1 3 31.1018 -351 0 0 0 0 0
185 1 3 31.1018 -348 0 0 0 0 0
186 1 3 31.1018 -345 0 0 0 0 0
187 1 3 31.1018 -342 0 0 0 0 0
188 1 3 31.1018 -339 0 0 0 0 0
189 1 3 31.1018 -336 0 0 0 0 0
190 1 3 31.1018 -333 0 0 0 0 0
191 1 3 31.1018 -330 0 0 0 0 0
192 1 3 31.1018 -327 0 0 0 0 0
193 1 3 31.1018 -324 0 0 0 0 0
194 1 3 31.1018 -321 0 0 0 0 0
195 1 3 31.1018 -318 0 0 0 0 0
196 1 3 31.1018 -315 0 0 0 0 0
197 1 3 31.1018 -312 0 0 0 0 0
198 1 3 31.1018 -309 0 0 0 0 0
199 1 3 31.1018 -306 0 0 0 0 0
200 1 3 31.1018 -303 0 0 0 0 0
201 1 3 31.1018 -300 0 0 0 0 0
202 1 3 31.1018 -297 0 0 0 0 0
203 1 3 31.1018 -294 0 0 0 0 0
204 1 3 31.1018 -291 0 0 0 0 0
205 1 3 31.1018 -288 0 0 0 0 0
206 1 3 31.1018 -285 0 0 0 0 0
207 1 3 31.1018 -282 0 0 0 0 0
208 1 3 31.1018 -279 0 0 0 0 0
209 1 3 31.1018 -276 0 0 0 0 0
210 1 3 31.1018 -273 0 0 0 0 0
211 1 3 31.1018 -270 0 0 0 0 0
212 1 3 31.1018 -267 0 0 0 0 0
213 1 3 31.1018 -264 0 0 0 0 0
214 1 3 31.1018 -261 0 0 0 0 0
215 1 3 31.1018 -258 0 0 0 0 0
216 1 3 31.1018 -255 0 0 0 0 0
217 1 3 31.1018 -252 0 0 0 0 0
218 1 3 31.1018 -249 0 0 0 0 0
219 1 3 31.1018 -246 0 0 0 0 0
220 1 3 31.1018 -243 0 0 0 0 0
221 1 3 31.1018 -240 0 0 0 0 0
222 1 3 31.1018 -237 0 0 0 0 0
223 1 3 31.1018 -234 0 0 0 0 0
224 1 3 31.1018 -231 0 0 0 0 0
225 1 3 31.1018 -228 0 0 0 0 0
226 1 3 31.1018 -225 0 0 0 0 0
227 1 3 31.1018 -222 0 0 0 0 0
228 1 3 31.1018 -219 0 0 0 0 0
229 1 3 31.1018 -216 0 0 0 0 0
230 1 3 31.1018 -213 0 0 0 0 0
231 1 3 31.1018 -210 0 0 0 0 0
232 1 3 31.1018 -207 0 0 0 0 0
233 1 3 31.1018 -204 0 0 0 0 0
234 1 3 31.1018 -201 0 0 0 0 0
235 1 3 31.1018 -198 0 0 0 0 0
236 1 3 31.1018 -195 0 0 0 0 0
237 1 3 31.1018 -192 0 0 0 0 0
238 1 3 31.1018 -189 0 0 0 0 0
239 1 3 31.1018 -186 0 0 0 0 0
240 1 3 31.1018 -183 0 0 0 0 0
241 1 3 31.1018 -180 0 0 0 0 0
242 1 3 31.1018 -177 0 0 0 0 0
243 1 3 31.1018 -174 0 0 0 0 0
244 1 3 31.1018 -171 0 0 0 0 0
245 1 3 31.1018 -168 0 0 0 0 0
246 1 3 31.1018 -165 0 0 0 0 0
247 1 3 31.1018 -162 0 0 0 0 0
248 1 3 31.1018 -159 0 0 0 0 0
249 1 3 31.1018 -156 0 0 0 0 0
250 1 3 31.1018 -153 0 0 0 0 0
251 1 3 31.1018 -150 0 0 0 0 0
252 1 3 31.1018 -147 0 0 0 0 0
253 1 3 31.1018 -144 0 0 0 0 0
254 1 3 31.1018 -141 0 0 0 0 0
255 1 3 31.1018 -138 0 0 0 0 0
256 1 3 31.1018 -135 0 0 0 0 0
257 1 3 31.1018 -132 0 0 0 0 0
258 1 3 31.1018 -129 0 0 0 0 0
259 1 3 31.1018 -126 0 0 0 0 0
260 1 3 31.1018 -123 0 0 0 0 0
261 1 3 31.1018 -120 0 0 0 0 0
262 1 3 31.1018 -117 0 0 0 0 0
263 1 3 31.1018 -114 0 0 0 0 0
264 1 3 31.1018 -111 0 0 0 0 0
265 1 3 31.1018 -108 0 0 0 0 0
266 1 3 31.1018 -105 0 0 0 0 0
267 1 3 31.1018 -102 0 0 0 0 0
268 1 3 31.1018 -99 0 0 0 0 0
269 1 3 31.1018 -96 0 0 0 0 0
270 1 3 31.1018 -93 0 0 0 0 0
271 1 3 31.1018 -90 0 0 0 0 0
272 1 3 31.1018 -87 0 0 0 0 0
273 1 3 31.1018 -84 0 0 0 0 0
274 1 3 31.1018 -81 0 0 0 0 0
275 1 3 31.1018 -78 0 0 0 0 0
276 1 3 31.1018 -75 0 0 0 0 0
277 1 3 31.1018 -72 0 0 0 0 0
278 1 3 31.1018 -69 0 0 0 0 0
279 1 3 31.1018 -66 0 0 0 0 0
280 1 3 31.1018 -63 0 0 0 0 0
281 1 3 31.1018 -60 0 0 0 0 0
282 1 3 31.1018 -57 0 0 0 0 0
283 1 3 31.1018 -54 0 0 0 0 0
284 1 3 31.1018 -51 0 0 0 0 0
285 1 3 31.1018 -48 0 0 0 0 0
286 1 3 31.1018 -45 0 0 0 0 0
287 1 3 31.1018 -42 0 0 0 0 0
288 1 3 31.1018 -39 0 0 0 0 0
289 1 3 31.1018 -36 0 0 0 0 0
290 1 3 31.1018 -33 0 0 0 0 0
291 1 3 31.1018 -30 0 0 0 0 0
292 1 3 31.1018 -27 0 0 0 0 0
293 1 3 31.1018 -24 0 0 0 0 0
294 1 3 31.1018 -21 0 0 0 0 0
295 1 3 31.1018 -18 0 0 0 0 0
296 1 3 31.1018 -15 0 0 0 0 0
297 1 3 31.1018 -12 0 0 0 0 0
298 1 3 31.1018 -9 0 0 0 0 0
299 1 3 31.1018 -6 0 0 0 0 0
300 1 3 31.1018 -3 0 0 0 0 0
653 2 3 31.1018 -448.500101365168121 1.40547e-19 2.59757462675304929 0.18613 0 -0.00442675
654 2 3 31.1018 -445.500101365168177 1.39597e-19 2.59757462660208116 0.184852 0 -0.00438456
655 2 3 31.1018 -442.500101365168177 1.38648e-19 2.59757462645111259 0.183573 0 -0.00434238
656 2 3 31.1018 -439.500101365168234 1.37698e-19 2.59757462630014446 0.182294 0 -0.00430019
657 2 3 31.1018 -436.500101365168291 1.36748e-19 2.59757462614917634 0.181015 0 -0.004258
658 2 3 31.1018 -433.500101365168348 1.35799e-19 2.59757462599820821 0.179736 0 -0.00421581
659 2 3 31.1018 -430.500101365168348 1.34849e-19 2.59757462584723964 0.178458 0 -0.00417362
660 2 3 31.1018 -427.500101365168405 1.339e-19 2.59757462569627151 0.177179 0 -0.00413143
661 2 3 31.1018 -424.500101365168462 1.3295e-19 2.59757462554530338 0.1759 0 -0.00408924
662 2 3 31.1018 -421.500101365168518 1.32e-19 2.59757462539433526 0.174621 0 -0.00404705
663 2 3 31.1018 -418.500101365168518 1.31051e-19 2.59757462524336669 0.173342 0 -0.00400487
664 2 3 31.1018 -415.500101365168575 1.30101e-19 2.59757462509239856 0.172064 0 -0.00396268
665 2 3 31.1018 -412.500101365168632 1.29151e-19 2.59757462494143043 0.170785 0 -0.00392049
666 2 3 31.1018 -409.500101365168689 1.28202e-19 2.59757462479046231 0.169506 0 -0.0038783
667 2 3 31.1018 -406.500101365168689 1.27252e-19 2.59757462463949373 0.168227 0 -0.00383611
668 2 3 31.1018 -403.500101365168746 1.26302e-19 2.59757462448852561 0.166949 0 -0.00379392
669 2 3 31.1018 -400.500101365168803 1.25353e-19 2.59757462433755748 0.16567 0 -0.00375173
670 2 3 31.1018 -397.50010136516886 1.24403e-19 2.59757462418658935 0.164391 0 -0.00370954
671 2 3 31.1018 -394.50010136516886 1.23453e-19 2.59757462403562078 0.163112 0 -0.00366736
672 2 3 31.1018 -391.500101365168916 1.22504e-19 2.59757462388465266 0.161833 0 -0.00362514
673 2 3 31.1018 -388.500101365168973 1.21554e-19 2.59757462373368453 0.160554 0 -0.00358263
674 2 3 31.1018 -385.500101365168973 1.20605e-19 2.5975746235827164 0.159275 0 -0.00354012
675 2 3 31.1018 -382.50010136516903 1.19655e-19 2.59757462343174783 0.157995 0 -0.0034976
676 2 3 31.1018 -379.500101365169087 1.18705e-19 2.5975746232807797 0.156716 0 -0.00345509
677 2 3 31.1018 -376.500101365169144 1.17756e-19 2.59757462312981158 0.155437 0 -0.00341257
678 2 3 31.1018 -373.500101365169144 1.16806e-19 2.59757462297884345 0.154157 0 -0.00337006
679 2 3 31.1018 -370.500101365169201 1.15856e-19 2.59757462282787488 0.152878 0 -0.00332755
680 2 3 31.1018 -367.500101365169257 1.14907e-19 2.59757462267690675 0.151598 0 -0.00328504
681 2 3 31.1018 -364.500101365169314 1.13957e-19 2.59757462252593863 0.150319 0 -0.00324252
682 2 3 31.1018 -361.500101365169314 1.13007e-19 2.5975746223749705 0.14904 0 -0.00320001
683 2 3 31.1018 -358.500101365169371 1.12058e-19 2.59757462222400193 0.14776 0 -0.0031575
684 2 3 31.1018 -355.500101365169428 1.11108e-19 2.5975746220730338 0.146481 0 -0.00311499
685 2 3 31.1018 -352.500101365169485 1.10158e-19 2.59757462192206567 0.145202 0 -0.00307247
686 2 3 31.1018 -349.500101365169485 1.09209e-19 2.59757462177109755 0.143922 0 -0.00302996
687 2 3 31.1018 -346.500101365169542 1.08259e-19 2.59757462162012898 0.142643 0 -0.00298745
688 2 3 31.1018 -343.500101365169598 1.0731e-19 2.59757462146916085 0.141364 0 -0.00294494
689 2 3 31.1018 -340.500101365169655 1.0636e-19 2.59757462131819272 0.140084 0 -0.00290242
690 2 3 31.1018 -337.500101365169655 1.0541e-19 2.5975746211672246 0.138805 0 -0.00285992
691 2 3 31.1018 -334.500101365169712 1.04461e-19 2.59757462101625602 0.137526 0 -0.0028174
692 2 3 31.1018 -331.500101365169769 1.03511e-19 2.5975746208652879 0.136246 0 -0.00277489
693 2 3 31.1018 -328.500101365169826 1.02561e-19 2.59757462071431977 0.134967 0 -0.00273238
694 2 3 31.1018 -325.500101365169826 1.01612e-19 2.59757462056335164 0.133687 0 -0.00268987
695 2 3 31.1018 -322.500101365169883 1.00662e-19 2.59757462041238307 0.132408 0 -0.00264735
696 2 3 31.1018 -319.50010136516994 9.97124e-20 2.59757462026141495 0.131129 0 -0.00260484
697 2 3 31.1018 -316.500101365169996 9.87628e-20 2.59757462011044682 0.129849 0 -0.00256233
698 2 3 31.1018 -313.500101365169996 9.78131e-20 2.59757461995947869 0.12857 0 -0.00251982
699 2 3 31.1018 -310.500101365170053 9.68635e-20 2.59757461980851012 0.127291 0 -0.00247731
700 2 3 31.1018 -307.50010136517011 9.59138e-20 2.59757461965754199 0.126011 0 -0.0024348
701 2 3 31.1018 -304.500101365170167 9.49642e-20 2.59757461950657387 0.124732 0 -0.00239228
702 2 3 31.1018 -301.500101365170167 9.40146e-20 2.59757461935560574 0.123453 0 -0.00234978
703 2 3 31.1018 -298.500101365170224 9.30649e-20 2.59757461920463717 0.122173 0 -0.00230726
704 2 3 31.1018 -295.500101365170281 9.21153e-20 2.59757461905366904 0.120894 0 -0.00226475
705 2 3 31.1018 -292.500101365170337 9.11656e-20 2.59757461890270092 0.119614 0 -0.00222224
706 2 3 31.1018 -289.500101365170337 9.0216e-20 2.59757461875173279 0.118335 0 -0.00217973
707 2 3 31.1018 -286.500101365170394 8.92663e-20 2.59757461860076422 0.117056 0 -0.00213722
708 2 3 31.1018 -283.500101365170451 8.83167e-20 2.59757461844979609 0.115776 0 -0.00209471
709 2 3 31.1018 -280.500101365170508 8.73671e-20 2.59757461829882796 0.114497 0 -0.0020522
710 2 3 31.1018 -277.500101365170508 8.64174e-20 2.59757461814785984 0.113218 0 -0.00200969
711 2 3 31.1018 -274.500101365170565 8.54678e-20 2.59757461799689127 0.111938 0 -0.00196718
712 2 3 31.1018 -271.500101365170622 8.45181e-20 2.59757461784592314 0.110659 0 -0.00192467
713 2 3 31.1018 -268.500101365170678 8.35685e-20 2.59757461769495501 0.10938 0 -0.00188216
714 2 3 31.1018 -265.500101365170678 8.26189e-20 2.59757461754398689 0.1081 0 -0.00183965
715 2 3 31.1018 -262.500101365170735 8.16692e-20 2.59757461739301831 0.106821 0 -0.00179714
716 2 3 31.1018 -259.500101365170792 8.07196e-20 2.59757461724205019 0.105541 0 -0.00175463
717 2 3 31.1018 -256.500101365170849 7.97699e-20 2.59757461709108206 0.104262 0 -0.00171212
718 2 3 31.1018 -253.500101365170877 7.88203e-20 2.59757461694011393 0.102983 0 -0.00166961
719 2 3 31.1018 -250.500101365170934 7.78706e-20 2.59757461678914536 0.101703 0 -0.0016271
720 2 3 31.1018 -247.500101365170963 7.6921e-20 2.59757461663817724 0.100424 0 -0.00158459
721 2 3 31.1018 -244.50010136517102 7.59714e-20 2.59757461648720911 0.0991445 0 -0.00154208
722 2 3 31.1018 -241.500101365171048 7.50217e-20 2.59757461633624098 0.0978651 0 -0.00149957
723 2 3 31.1018 -238.500101365171105 7.40721e-20 2.59757461618527241 0.0965858 0 -0.00145706
724 2 3 31.1018 -235.500101365171133 7.31224e-20 2.59757461603430428 0.0953064 0 -0.00141455
725 2 3 31.1018 -232.50010136517119 7.21728e-20 2.59757461588333616 0.094027 0 -0.00137204
726 2 3 31.1018 -229.500101365171219 7.12231e-20 2.59757461573236803 0.0927477 0 -0.00132954
727 2 3 31.1018 -226.500101365171275 7.02735e-20 2.59757461558139946 0.0914683 0 -0.00128703
728 2 3 31.1018 -223.500101365171304 6.93239e-20 2.59757461543043133 0.0901889 0 -0.00124452
729 2 3 31.1018 -220.500101365171361 6.83742e-20 2.59757461527946321 0.0889095 0 -0.00120201
730 2 3 31.1018 -217.500101365171389 6.74246e-20 2.59757461512849508 0.0876301 0 -0.0011595
731 2 3 31.1018 -214.500101365171446 6.64749e-20 2.59757461497752651 0.0863508 0 -0.00111699
732 2 3 31.1018 -211.500101365171474 6.55253e-20 2.59757461482655838 0.0850714 0 -0.00107448
733 2 3 31.1018 -208.500101365171531 6.45757e-20 2.59757461467559025 0.083792 0 -0.00103197
734 2 3 31.1018 -205.50010136517156 6.3626e-20 2.59757461452462213 0.0825126 0 -0.000989467
735 2 3 31.1018 -202.500101365171616 6.26764e-20 2.59757461437365356 0.0812333 0 -0.000946957
736 2 3 31.1018 -199.500101365171645 6.17267e-20 2.59757461422268543 0.0799539 0 -0.00090445
737 2 3 31.1018 -196.500101365171702 6.07771e-20 2.5975746140717173 0.0786745 0 -0.000861941
738 2 3 31.1018 -193.50010136517173 5.98274e-20 2.59757461392074918 0.0773951 0 -0.000819435
739 2 3 31.1018 -190.500101365171787 5.88778e-20 2.5975746137697806 0.0761157 0 -0.000776925
740 2 3 31.1018 -187.500101365171815 5.79282e-20 2.59757461361881248 0.0748364 0 -0.000734418
741 2 3 31.1018 -184.500101365171872 5.69785e-20 2.59757461346784435 0.073557 0 -0.00069191
742 2 3 31.1018 -181.500101365171901 5.60289e-20 2.59757461331687622 0.0722776 0 -0.000649404
743 2 3 31.1018 -178.500101365171957 5.50792e-20 2.59757461316590765 0.0709982 0 -0.000606894
744 2 3 31.1018 -175.500101365171986 5.41296e-20 2.59757461301493953 0.0697188 0 -0.000564389
745 2 3 31.1018 -172.500101365172043 5.31799e-20 2.5975746128639714 0.0684395 0 -0.00052188
746 2 3 31.1018 -169.500101365172071 5.22303e-20 2.59757461271300327 0.0671601 0 -0.000479373
747 2 3 31.1018 -166.500101365172128 5.12807e-20 2.5975746125620347 0.0658807 0 -0.000436863
748 2 3 31.1018 -163.500101365172156 5.0331e-20 2.59757461241106657 0.0646013 0 -0.00039436
749 2 3 31.1018 -160.500101365172213 4.93814e-20 2.59757461226009845 0.0633219 0 -0.00035185
750 2 3 31.1018 -157.500101365172242 4.84317e-20 2.59757461210913032 0.0620425 0 -0.000309345
751 2 3 31.1018 -154.500101365172299 4.74821e-20 2.59757461195816175 0.0607631 0 -0.000266835
752 2 3 31.1018 -151.500101365172327 4.65325e-20 2.59757461180719362 0.0594837 0 -0.000224331
753 2 3 31.1018 -148.500101365172384 4.55828e-20 2.5975746116562255 0.0582044 0 -0.000181823
754 2 3 31.1018 -145.500101365172412 4.46332e-20 2.59757461150525737 0.056925 0 -0.000139318
755 2 3 31.1018 -142.500101365172469 4.36835e-20 2.5975746113542888 0.0556456 0 -9.68092e-05
756 2 3 31.1018 -139.500101365172497 4.27339e-20 2.59757461120332067 0.0543662 0 -5.43047e-05
757 2 3 31.1018 -136.500101365172554 4.17842e-20 2.59757461105235254 0.0530868 0 -1.17967e-05
758 2 3 31.1018 -133.500101365172583 4.08346e-20 2.59757461090138442 0.0518074 0 3.07077e-05
759 2 3 31.1018 -130.500101365172611 3.9885e-20 2.59757461075041585 0.050528 0 7.32132e-05
760 2 3 31.1018 -127.500101365172668 3.89353e-20 2.59757461059944772 0.0492486 0 0.000115721
761 2 3 31.1018 -124.500101365172711 3.79857e-20 2.59757461044847959 0.0479693 0 0.000158227
762 2 3 31.1018 -121.500101365172753 3.7036e-20 2.59757461029751147 0.0466899 0 0.000200733
763 2 3 31.1018 -118.500101365172796 3.60864e-20 2.59757461014654289 0.0454105 0 0.00024324
764 2 3 31.1018 -115.500101365172839 3.51368e-20 2.59757460999557477 0.0441311 0 0.000285744
765 2 3 31.1018 -112.500101365172881 3.41871e-20 2.59757460984460664 0.0428517 0 0.00032825
766 2 3 31.1018 -109.500101365172924 3.32375e-20 2.59757460969363851 0.0415723 0 0.000370756
767 2 3 31.1018 -106.500101365172966 3.22878e-20 2.59757460954266994 0.0402929 0 0.000413263
768 2 3 31.1018 -103.500101365173009 3.13382e-20 2.59757460939170182 0.0390135 0 0.000455768
769 2 3 31.1018 -100.500101365173052 3.03885e-20 2.59757460924073369 0.0377341 0 0.000498272
770 2 3 31.1018 -97.5001013651730943 2.94389e-20 2.59757460908976556 0.0364547 0 0.000540778
771 2 3 31.1018 -94.500101365173137 2.84893e-20 2.59757460893879699 0.0351753 0 0.000583284
772 2 3 31.1018 -91.5001013651731796 2.75396e-20 2.59757460878782886 0.0338959 0 0.000625789
773 2 3 31.1018 -88.5001013651732222 2.659e-20 2.59757460863686074 0.0326165 0 0.000668294
774 2 3 31.1018 -85.5001013651732649 2.56403e-20 2.59757460848589261 0.0313371 0 0.000710798
775 2 3 31.1018 -82.5001013651733075 2.46907e-20 2.59757460833492404 0.0300577 0 0.000753305
776 2 3 31.1018 -79.5001013651733501 2.3741e-20 2.59757460818395591 0.0287784 0 0.000795808
777 2 3 31.1018 -76.5001013651733928 2.27914e-20 2.59757460803298779 0.027499 0 0.000838314
778 2 3 31.1018 -73.5001013651734354 2.18418e-20 2.59757460788201966 0.0262196 0 0.000880818
779 2 3 31.1018 -70.500101365173478 2.08921e-20 2.59757460773105109 0.0249402 0 0.000923324
780 2 3 31.1018 -67.5001013651735065 1.99425e-20 2.59757460758008296 0.0236608 0 0.000965826
781 2 3 31.1018 -64.5001013651735491 1.89928e-20 2.59757460742911483 0.0223814 0 0.00100833
782 2 3 31.1018 -61.5001013651735917 1.80432e-20 2.59757460727814671 0.021102 0 0.00105083
783 2 3 31.1018 -58.5001013651736343 1.70936e-20 2.59757460712717814 0.0198226 0 0.00109334
784 2 3 31.1018 -55.500101365173677 1.61439e-20 2.59757460697621001 0.0185432 0 0.00113584
785 2 3 31.1018 -52.5001013651737196 1.51943e-20 2.59757460682524188 0.0172638 0 0.00117835
786 2 3 31.1018 -49.5001013651737622 1.42446e-20 2.59757460667427376 0.0159844 0 0.00122085
787 2 3 31.1018 -46.5001013651738049 1.3295e-20 2.59757460652330519 0.014705 0 0.00126336
788 2 3 31.1018 -43.5001013651738475 1.23453e-20 2.59757460637233706 0.0134256 0 0.00130586
789 2 3 31.1018 -40.5001013651738901 1.13957e-20 2.59757460622136893 0.0121461 0 0.00134836
790 2 3 31.1018 -37.5001013651739328 1.04461e-20 2.5975746060704008 0.0108667 0 0.00139092
791 2 3 31.1018 -34.5001013651739683 9.49642e-21 2.59757460591943223 0.00958668 0 0.00143375
792 2 3 31.1018 -31.5001013651740145 8.54678e-21 2.59757460576846411 0.00830672 0 0.00147658
793 2 3 31.1018 -28.5001013651740571 7.59714e-21 2.59757460561749598 0.00702676 0 0.0015194
794 2 3 31.1018 -25.5001013651740998 6.64749e-21 2.59757460546652785 0.00574679 0 0.00156223
795 2 3 31.1018 -22.5001013651741424 5.69785e-21 2.59757460531555928 0.00446682 0 0.00160506
796 2 3 31.1018 -19.5001013651741815 4.74821e-21 2.59757460516459115 0.00318685 0 0.00164789
797 2 3 31.1018 -16.5001013651742241 3.79857e-21 2.59757460501362303 0.00190688 0 0.00169072
798 2 3 31.1018 -13.5001013651742667 2.84893e-21 2.5975746048626549 0.000626915 0 0.00173354
799 2 3 31.1018 -10.5001013651743094 1.89928e-21 2.59757460471168633 -0.000653053 0 0.00177637
800 2 3 31.1018 -7.500101365174352 9.49642e-22 2.5975746045607182 -0.00193302 0 0.0018192
801 2 3 31.1018 -4.50010136517439463 8.08367e-36 2.59757460440975008 -0.00321299 0 0.00186203
802 2 3 31.1018 -1.50010136517443682 -9.49642e-22 2.59757460425878195 -0.00449296 0 0.00190485
301 1 3 31.1018 0 0 0 0 0 0
302 1 3 31.1018 3 0 0 0 0 0
303 1 3 31.1018 6 0 0 0 0 0
304 1 3 31.1018 9 0 0 0 0 0
305 1 3 31.1018 12 0 0 0 0 0
306 1 3 31.1018 15 0 0 0 0 0
307 1 3 31.1018 18 0 0 0 0 0
308 1 3 31.1018 21 0 0 0 0 0
309 1 3 31.1018 24 0 0 0 0 0
310 1 3 31.1018 27 0 0 0 0 0
311 1 3 31.1018 30 0 0 0 0 0
312 1 3 31.1018 33 0 0 0 0 0
313 1 3 31.1018 36 0 0 0 0 0
314 1 3 31.1018 39 0 0 0 0 0
315 1 3 31.1018 42 0 0 0 0 0
316 1 3 31.1018 45 0 0 0 0 0
317 1 3 31.1018 48 0 0 0 0 0
318 1 3 31.1018 51 0 0 0 0 0
319 1 3 31.1018 54 0 0 0 0 0
320 1 3 31.1018 57 0 0 0 0 0
321 1 3 31.1018 60 0 0 0 0 0
322 1 3 31.1018 63 0 0 0 0 0
323 1 3 31.1018 66 0 0 0 0 0
324 1 3 31.1018 69 0 0 0 0 0
325 1 3 31.1018 72 0 0 0 0 0
326 1 3 31.1018 75 0 0 0 0 0
327 1 3 31.1018 78 0 0 0 0 0
328 1 3 31.1018 81 0 0 0 0 0
329 1 3 31.1018 84 0 0 0 0 0
330 1 3 31.1018 87 0 0 0 0 0
331 1 3 31.1018 90 0 0 0 0 0
332 1 3 31.1018 93 0 0 0 0 0
333 1 3 31.1018 96 0 0 0 0 0
334 1 3 31.1018 99 0 0 0 0 0
335 1 3 31.1018 102 0 0 0 0 0
336 1 3 31.1018 105 0 0 0 0 0
337 1 3 31.1018 108 0 0 0 0 0
338 1 3 31.1018 111 0 0 0 0 0
339 1 3 31.1018 114 0 0 0 0 0
340 1 3 31.1018 117 0 0 0 0 0
341 1 3 31.1018 120 0 0 0 0 0
342 1 3 31.1018 123 0 0 0 0 0
343 1 3 31.1018 126 0 0 0 0 0
344 1 3 31.1018 129 0 0 0 0 0
345 1 3 31.1018 132 0 0 0 0 0
346 1 3 31.1018 135 0 0 0 0 0
347 1 3 31.1018 138 0 0 0 0 0
348 1 3 31.1018 141 0 0 0 0 0
349 1 3 31.1018 144 0 0 0 0 0
350 1 3 31.1018 147 0 0 0 0 0
351 1 3 31.1018 150 0 0 0 0 0
352 1 3 31.1018 153 0 0 0 0 0
353 1 3 31.1018 156 0 0 0 0 0
354 1 3 31.1018 159 0 0 0 0 0
355 1 3 31.1018 162 0 0 0 0 0
356 1 3 31.1018 165 0 0 0 0 0
357 1 3 31.1018 168 0 0 0 0 0
358 1 3 31.1018 171 0 0 0 0 0
359 1 3 31.1018 174 0 0 0 0 0
360 1 3 31.1018 177 0 0 0 0 0
361 1 3 31.1018 180 0 0 0 0 0
362 1 3 31.1018 183 0 0 0 0 0
363 1 3 31.1018 186 0 0 0 0 0
364 1 3 31.1018 189 0 0 0 0 0
365 1 3 31.1018 192 0 0 0 0 0
366 1 3 31.1018 195 0 0 0 0 0
367 1 3 31.1018 198 0 0 0 0 0
368 1 3 31.1018 201 0 0 0 0 0