ITEM: TIMESTEP
3300000
ITEM: NUMBER OF ATOMS
1001
ITEM: BOX BOUNDS pp pp pp
-9.0000000000000000e+02 9.0000000000000000e+02
-1.0000000000000000e+02 1.0000000000000000e+02
-1.0000000000000000e+02 1.0000000000000000e+02
ITEM: ATOMS id type diameter mass xu yu zu fx fy fz
1 1 3 31.1018 -900 0 0 0 0 0
2 1 3 31.1018 -897 0 0 0 0 0
3 1 3 31.1018 -894 0 0 0 0 0
4 1 3 31.1018 -891 0 0 0 0 0
5 1 3 31.1018 -888 0 0 0 0 0
6 1 3 31.1018 -885 0 0 0 0 0
7 1 3 31.1018 -882 0 0 0 0 0
8 1 3 31.1018 -879 0 0 0 0 0
9 1 3 31.1018 -876 0 0 0 0 0
10 1 3 31.1018 -873 0 0 0 0 0
11 1 3 31.1018 -870 0 0 0 0 0
12 1 3 31.1018 -867 0 0 0 0 0
13 1 3 31.1018 -864 0 0 0 0 0
14 1 3 31.1018 -861 0 0 0 0 0
15 1 3 31.1018 -858 0 0 0 0 0
16 1 3 31.1018 -855 0 0 0 0 0
17 1 3 31.1018 -852 0 0 0 0 0
18 1 3 31.1018 -849 0 0 0 0 0
19 1 3 31.1018 -846 0 0 0 0 0
20 1 3 31.1018 -843 0 0 0 0 0
21 1 3 31.1018 -840 0 0 0 0 0
22 1 3 31.1018 -837 0 0 0 0 0
23 1 3 31.1018 -834 0 0 0 0 0
24 1 3 31.1018 -831 0 0 0 0 0
25 1 3 31.1018 -828 0 0 0 0 0
26 1 3 31.1018 -825 0 0 0 0 0
27 1 3 31.1018 -822 0 0 0 0 0
28 1 3 31.1018 -819 0 0 0 0 0
29 1 3 31.1018 -816 0 0 0 0 0
30 1 3 31.1018 -813 0 0 0 0 0
31 1 3 31.1018 -810 0 0 0 0 0
32 1 3 31.1018 -807 0 0 0 0 0
33 1 3 31.1018 -804 0 0 0 0 0
34 1 3 31.1018 -801 0 0 0 0 0
35 1 3 31.1018 -798 0 0 0 0 0
36 1 3 31.1018 -795 0 0 0 0 0
37 1 3 31.1018 -792 0 0 0 0 0
38 1 3 31.1018 -789 0 0 0 0 0
39 1 3 31.1018 -786 0 0 0 0 0
40 1 3 31.1018 -783 0 0 0 0 0
41 1 3 31.1018 -780 0 0 0 0 0
42 1 3 31.1018 -777 0 0 0 0 0
43 1 3 31.1018 -774 0 0 0 0 0
44 1 3 31.1018 -771 0 0 0 0 0
45 1 3 31.1018 -768 0 0 0 0 0
46 1 3 31.1018 -765 0 0 0 0 0
47 1 3 31.1018 -762 0 0 0 0 0
48 1 3 31.1018 -759 0 0 0 0 0
49 1 3 31.1018 -756 0 0 0 0 0
50 1 3 31.1018 -753 0 0 0 0 0
51 1 3 31.1018 -750 0 0 0 0 0
52 1 3 31.1018 -747 0 0 0 0 0
53 1 3 31.1018 -744 0 0 0 0 0
54 1 3 31.1018 -741 0 0 0 0 0
55 1 3 31.1018 -738 0 0 0 0 0
56 1 3 31.1018 -735 0 0 0 0 0
57 1 3 31.1018 -732 0 0 0 0 0
58 1 3 31.1018 -729 0 0 0 0 0
59 1 3 31.1018 -726 0 0 0 0 0
60 1 3 31.1018 -723 0 0 0 0 0
61 1 3 31.1018 -720 0 0 0 0 0
62 1 3 31.1018 -717 0 0 0 0 0
63 1 3 31.1018 -714 0 0 0 0 0
64 1 3 31.1018 -711 0 0 0 0 0
65 1 3 31.1018 -708 0 0 0 0 0
66 1 3 31.1018 -705 0 0 0 0 0
67 1 3 31.1018 -702 0 0 0 0 0
68 1 3 31.1018 -699 0 0 0 0 0
69 1 3 31.1018 -696 0 0 0 0 0
70 1 3 31.1018 -693 0 0 0 0 0
71 1 3 31.1018 -690 0 0 0 0 0
72 1 3 31.1018 -687 0 0 0 0 0
73 1 3 31.1018 -684 0 0 0 0 0
74 1 3 31.1018 -681 0 0 0 0 0
75 1 3 31.1018 -678 0 0 0 0 0
76 1 3 31.1018 -675 0 0 0 0 0
77 1 3 31.1018 -672 0 0 0 0 0
78 1 3 31.1018 -669 0 0 0 0 0
79 1 3 31.1018 -666 0 0 0 0 0
80 1 3 31.1018 -663 0 0 0 0 0
81 1 3 31.1018 -660 0 0 0 0 0
82 1 3 31.1018 -657 0 0 0 0 0
83 1 3 31.1018 -654 0 0 0 0 0
84 1 3 31.1018 -651 0 0 0 0 0
85 1 3 31.1018 -648 0 0 0 0 0
86 1 3 31.1018 -645 0 0 0 0 0
87 1 3 31.1018 -642 0 0 0 0 0
88 1 3 31.1018 -639 0 0 0 0 0
89 1 3 31.1018 -636 0 0 0 0 0
90 1 3 31.1018 -633 0 0 0 0 0
91 1 3 31.1018 -630 0 0 0 0 0
92 1 3 31.1018 -627 0 0 0 0 0
93 1 3 31.1018 -624 0 0 0 0 0
94 1 3 31.1018 -621 0 0 0 0 0
95 1 3 31.1018 -618 0 0 0 0 0
96 1 3 31.1018 -615 0 0 0 0 0
97 1 3 31.1018 -612 0 0 0 0 0
98 1 3 31.1018 -609 0 0 0 0 0
99 1 3 31.1018 -606 0 0 0 0 0
100 1 3 31.1018 -603 0 0 0 0 0
101 1 3 31.1018 -600 0 0 0 0 0
102 1 3 31.1018 -597 0 0 0 0 0
103 1 3 31.1018 -594 0 0 0 0 0
104 1 3 31.1018 -591 0 0 0 0 0
105 1 3 31.1018 -588 0 0 0 0 0
106 1 3 31.1018 -585 0 0 0 0 0
107 1 3 31.1018 -582 0 0 0 0 0
108 1 3 31.1018 -579 0 0 0 0 0
109 1 3 31.1018 -576 0 0 0 0 0
110 1 3 31.1018 -573 0 0 0 0 0
111 1 3 31.1018 -570 0 0 0 0 0
112 1 3 31.1018 -567 0 0 0 0 0
113 1 3 31.1018 -564 0 0 0 0 0
114 1 3 31.1018 -561 0 0 0 0 0
115 1 3 31.1018 -558 0 0 0 0 0
116 1 3 31.1018 -555 0 0 0 0 0
117 1 3 31.1018 -552 0 0 0 0 0
118 1 3 31.1018 -549 0 0 0 0 0
119 1 3 31.1018 -546 0 0 0 0 0
120 1 3 31.1018 -543 0 0 0 0 0
121 1 3 31.1018 -540 0 0 0 0 0
122 1 3 31.1018 -537 0 0 0 0 0
123 1 3 31.1018 -534 0 0 0 0 0
124 1 3 31.1018 -531 0 0 0 0 0
125 1 3 31.1018 -528 0 0 0 0 0
126 1 3 31.1018 -525 0 0 0 0 0
127 1 3 31.1018 -522 0 0 0 0 0
128 1 3 31.1018 -519 0 0 0 0 0
129 1 3 31.1018 -516 0 0 0 0 0
130 1 3 31.1018 -513 0 0 0 0 0
131 1 3 31.1018 -510 0 0 0 0 0
132 1 3 31.1018 -507 0 0 0 0 0
133 1 3 31.1018 -504 0 0 0 0 0
134 1 3 31.1018 -501 0 0 0 0 0
135 1 3 31.1018 -498 0 0 0 0 0
136 1 3 31.1018 -495 0 0 0 0 0
137 1 3 31.1018 -492 0 0 0 0 0
138 1 3 31.1018 -489 0 0 0 0 0
139 1 3 31.1018 -486 0 0 0 0 0
140 1 3 31.1018 -483 0 0 0 0 0
141 1 3 31.1018 -480 0 0 0 0 0
142 1 3 31.1018 -477 0 0 0 0 0
143 1 3 31.1018 -474 0 0 0 0 0
144 1 3 31.1018 -471 0 0 0 0 0
145 1 3 31.1018 -468 0 0 0 0 0
146 1 3 31.1018 -465 0 0 0 0 0
147 1 3 31.1018 -462 0 0 0 0 0
148 1 3 31.1018 -459 0 0 0 0 0
149 1 3 31.1018 -456 0 0 0 0 0
150 1 3 31.1018 -453 0 0 0 0 0
601 2 3 31.1018 -604.500101324697425 -3.33064e-14 2.59757472758197805 0.097731 0 -0.367523
602 2 3 31.1018 -601.500101324697312 -3.31398e-14 2.59757472738924911 0.0984108 0 -0.366192
603 2 3 31.1018 -598.500101324697198 -3.29733e-14 2.59757472719652016 0.0990906 0 -0.364861
604 2 3 31.1018 -595.500101324697198 -3.28068e-14 2.59757472700379166 0.0997706 0 -0.36353
605 2 3 31.1018 -592.500101324697084 -3.26403e-14 2.59757472681106272 0.10045 0 -0.362199
606 2 3 31.1018 -589.500101324697084 -3.24737e-14 2.59757472661833377 0.10113 0 -0.360868
607 2 3 31.1018 -586.500101324696971 -3.23072e-14 2.59757472642560483 0.10181 0 -0.359537
608 2 3 31.1018 -583.500101324696857 -3.21407e-14 2.59757472623287633 0.10249 0 -0.358206
609 2 3 31.1018 -580.500101324696857 -3.19741e-14 2.59757472604014739 0.101743 0 -0.357699
610 2 3 31.1018 -577.500101324696743 -3.18076e-14 2.59757472584741844 0.100465 0 -0.357499
611 2 3 31.1018 -574.500101324696629 -3.16411e-14 2.5975747256546895 0.0991869 0 -0.357299
612 2 3 31.1018 -571.500101324696629 -3.14745e-14 2.597574725461961 0.0979089 0 -0.357098
613 2 3 31.1018 -568.500101324696516 -3.1308e-14 2.59757472526923205 0.0966308 0 -0.356898
614 2 3 31.1018 -565.500101324696402 -3.11415e-14 2.59757472507650311 0.0953527 0 -0.356698
615 2 3 31.1018 -562.500101324696402 -3.09749e-14 2.59757472488377417 0.0940747 0 -0.356498
616 2 3 31.1018 -559.500101324696288 -3.08084e-14 2.59757472469104567 0.0927966 0 -0.356297
617 2 3 31.1018 -556.500101324696288 -3.06419e-14 2.59757472449831672 0.0915186 0 -0.356097
618 2 3 31.1018 -553.500101324696175 -3.04753e-14 2.59757472430558778 0.0902405 0 -0.355897
619 2 3 31.1018 -550.500101324696061 -3.03088e-14 2.59757472411285883 0.0889624 0 -0.355696
620 2 3 31.1018 -547.500101324696061 -3.01423e-14 2.59757472392013034 0.0876844 0 -0.355496
621 2 3 31.1018 -544.500101324695947 -2.99757e-14 2.59757472372740139 0.0864062 0 -0.355296
622 2 3 31.1018 -541.500101324695834 -2.98092e-14 2.59757472353467245 0.0851281 0 -0.355095
623 2 3 31.1018 -538.500101324695834 -2.96427e-14 2.5975747233419435 0.0838501 0 -0.354895
624 2 3 31.1018 -535.50010132469572 -2.94761e-14 2.597574723149215 0.082572 0 -0.354695
625 2 3 31.1018 -532.500101324695606 -2.93096e-14 2.59757472295648606 0.0812939 0 -0.354495
626 2 3 31.1018 -529.500101324695606 -2.91431e-14 2.59757472276375712 0.0800159 0 -0.354294
627 2 3 31.1018 -526.500101324695493 -2.89766e-14 2.59757472257102817 0.0787378 0 -0.354094
628 2 3 31.1018 -523.500101324695379 -2.881e-14 2.59757472237829967 0.0774596 0 -0.353894
629 2 3 31.1018 -520.500101324695379 -2.86435e-14 2.59757472218557073 0.0761816 0 -0.353693
630 2 3 31.1018 -517.500101324695265 -2.8477e-14 2.59757472199284178 0.0749035 0 -0.353493
631 2 3 31.1018 -514.500101324695265 -2.83104e-14 2.59757472180011284 0.0736255 0 -0.353293
632 2 3 31.1018 -511.500101324695152 -2.81439e-14 2.59757472160738434 0.0723474 0 -0.353092
633 2 3 31.1018 -508.500101324695095 -2.79774e-14 2.5975747214146554 0.0710693 0 -0.352892
634 2 3 31.1018 -505.500101324694981 -2.78108e-14 2.59757472122192645 0.0697912 0 -0.352692
635 2 3 31.1018 -502.500101324694924 -2.76443e-14 2.59757472102919751 0.0685131 0 -0.352492
636 2 3 31.1018 -499.500101324694867 -2.74778e-14 2.59757472083646901 0.0672351 0 -0.352291
637 2 3 31.1018 -496.500101324694754 -2.73112e-14 2.59757472064374006 0.0659569 0 -0.352091
638 2 3 31.1018 -493.500101324694697 -2.71447e-14 2.59757472045101112 0.0646789 0 -0.351891
639 2 3 31.1018 -490.50010132469464 -2.69782e-14 2.59757472025828218 0.0634008 0 -0.35169
640 2 3 31.1018 -487.500101324694583 -2.68116e-14 2.59757472006555368 0.0621227 0 -0.35149
641 2 3 31.1018 -484.500101324694469 -2.66451e-14 2.59757471987282473 0.0608446 0 -0.35129
642 2 3 31.1018 -481.500101324694413 -2.64786e-14 2.59757471968009579 0.0595665 0 -0.351089
643 2 3 31.1018 -478.500101324694356 -2.6312e-14 2.59757471948736685 0.0582885 0 -0.350889
644 2 3 31.1018 -475.500101324694299 -2.61455e-14 2.59757471929463835 0.0570104 0 -0.350689
645 2 3 31.1018 -472.500101324694185 -2.5979e-14 2.5975747191019094 0.0557323 0 -0.350489
646 2 3 31.1018 -469.500101324694128 -2.58124e-14 2.59757471890918046 0.0544542 0 -0.350288
647 2 3 31.1018 -466.500101324694072 -2.56459e-14 2.59757471871645151 0.0531761 0 -0.350088
648 2 3 31.1018 -463.500101324693958 -2.54794e-14 2.59757471852372301 0.051898 0 -0.349888
649 2 3 31.1018 -460.500101324693901 -2.53128e-14 2.59757471833099407 0.0506199 0 -0.349687
650 2 3 31.1018 -457.500101324693844 -2.51463e-14 2.59757471813826513 0.0493419 0 -0.349487
651 2 3 31.1018 -454.500101324693787 -2.49798e-14 2.59757471794553618 0.0480638 0 -0.349287
652 2 3 31.1018 -451.500101324693674 -2.48133e-14 2.59757471775280768 0.0467856 0 -0.349086
151 1 3 31.1018 -450 0 0 0 0 0
152 1 3 31.1018 -447 0 0 0 0 0
153 1 3 31.1018 -444 0 0 0 0 0
154 1 3 31.1018 -441 0 0 0 0 0
155 1 3 31.1018 -438 0 0 0 0 0
156 1 3 31.1018 -435 0 0 0 0 0
157 1 3 31.1018 -432 0 0 0 0 0
158 1 3 31.1018 -429 0 0 0 0 0
159 1 3 31.1018 -426 0 0 0 0 0
160 1 3 31.1018 -423 0 0 0 0 0
161 1 3 31.1018 -420 0 0 0 0 0
162 1 3 31.1018 -417 0 0 0 0 0
163 1 3 31.1018 -414 0 0 0 0 0
164 1 3 31.1018 -411 0 0 0 0 0
165 1 3 31.1018 -408 0 0 0 0 0
166 1 3 31.1018 -405 0 0 0 0 0
167 1 3 31.1018 -402 0 0 0 0 0
168 1 3 31.1018 -399 0 0 0 0 0
169 1 3 31.1018 -396 0 0 0 0 0
170 1 3 31.1018 -393 0 0 0 0 0
171 1 3 31.1018 -390 0 0 0 0 0
172 1 3 31.1018 -387 0 0 0 0 0
173 1 3 31.1018 -384 0 0 0 0 0
174 1 3 31.1018 -381 0 0 0 0 0
175 1 3 31.1018 -378 0 0 0 0 0
176 1 3 31.1018 -375 0 0 0 0 0
177 1 3 31.1018 -372 0 0 0 0 0
178 1 3 31.1018 -369 0 0 0 0 0
179 1 3 31.1018 -366 0 0 0 0 0
180 1 3 31.1018 -363 0 0 0 0 0
181 1 3 31.1018 -360 0 0 0 0 0
182 1 3 31.1018 -357 0 0 0 0 0
183 1 3 31.1018 -354 0 0 0 0 0
184 1 3 31.1018 -351 0 0 0 0 0
185 1 3 31.1018 -348 0 0 0 0 0
186 1 3 31.1018 -345 0 0 0 0 0
187 1 3 31.1018 -342 0 0 0 0 0
188 1 3 31.1018 -339 0 0 0 0 0
189 1 3 31.1018 -336 0 0 0 0 0
190 1 3 31.1018 -333 0 0 0 0 0
191 1 3 31.1018 -330 0 0 0 0 0
192 1 3 31.1018 -327 0 0 0 0 0
193 1 3 31.1018 -324 0 0 0 0 0
194 1 3 31.1018 -321 0 0 0 0 0
195 1 3 31.1018 -318 0 0 0 0 0
196 1 3 31.1018 -315 0 0 0 0 0
197 1 3 31.1018 -312 0 0 0 0 0
198 1 3 31.1018 -309 0 0 0 0 0
199 1 3 31.1018 -306 0 0 0 0 0
200 1 3 31.1018 -303 0 0 0 0 0
201 1 3 31.1018 -300 0 0 0 0 0
202 1 3 31.1018 -297 0 0 0 0 0
203 1 3 31.1018 -294 0 0 0 0 0
204 1 3 31.1018 -291 0 0 0 0 0
205 1 3 31.1018 -288 0 0 0 0 0
206 1 3 31.1018 -285 0 0 0 0 0
207 1 3 31.1018 -282 0 0 0 0 0
208 1 3 31.1018 -279 0 0 0 0 0
209 1 3 31.1018 -276 0 0 0 0 0
210 1 3 31.1018 -273 0 0 0 0 0
211 1 3 31.1018 -270 0 0 0 0 0
212 1 3 31.1018 -267 0 0 0 0 0
213 1 3 31.1018 -264 0 0 0 0 0
214 1 3 31.1018 -261 0 0 0 0 0
215 1 3 31.1018 -258 0 0 0 0 0
216 1 3 31.1018 -255 0 0 0 0 0
217 1 3 31.1018 -252 0 0 0 0 0
218 1 3 31.1018 -249 0 0 0 0 0
219 1 3 31.1018 -246 0 0 0 0 0
220 1 3 31.1018 -243 0 0 0 0 0
221 1 3 31.1018 -240 0 0 0 0 0
222 1 3 31.1018 -237 0 0 0 0 0
223 1 3 31.1018 -234 0 0 0 0 0
224 1 3 31.1018 -231 0 0 0 0 0
225 1 3 31.1018 -228 0 0 0 0 0
226 1 3 31.1018 -225 0 0 0 0 0
227 1 3 31.1018 -222 0 0 0 0 0
228 1 3 31.1018 -219 0 0 0 0 0
229 1 3 31.1018 -216 0 0 0 0 0
230 1 3 31.1018 -213 0 0 0 0 0
231 1 3 31.1018 -210 0 0 0 0 0
232 1 3 31.1018 -207 0 0 0 0 0
233 1 3 31.1018 -204 0 0 0 0 0
234 1 3 31.1018 -201 0 0 0 0 0
235 1 3 31.1018 -198 0 0 0 0 0
236 1 3 31.1018 -195 0 0 0 0 0
237 1 3 31.1018 -192 0 0 0 0 0
238 1 3 31.1018 -189 0 0 0 0 0
239 1 3 31.1018 -186 0 0 0 0 0
240 1 3 31.1018 -183 0 0 0 0 0
241 1 3 31.1018 -180 0 0 0 0 0
242 1 3 31.1018 -177 0 0 0 0 0
243 1 3 31.1018 -174 0 0 0 0 0
244 1 3 31.1018 -171 0 0 0 0 0
245 1 3 31.1018 -168 0 0 0 0 0
246 1 3 31.1018 -165 0 0 0 0 0
247 1 3 31.1018 -162 0 0 0 0 0
248 1 3 31.1018 -159 0 0 0 0 0
249 1 3 31.1018 -156 0 0 0 0 0
250 1 3 31.1018 -153 0 0 0 0 0
251 1 3 31.1018 -150 0 0 0 0 0
252 1 3 31.1018 -147 0 0 0 0 0
253 1 3 31.1018 -144 0 0 0 0 0
254 1 3 31.1018 -141 0 0 0 0 0
255 1 3 31.1018 -138 0 0 0 0 0
256 1 3 31.1018 -135 0 0 0 0 0
257 1 3 31.1018 -132 0 0 0 0 0
258 1 3 31.1018 -129 0 0 0 0 0
259 1 3 31.1018 -126 0 0 0 0 0
260 1 3 31.1018 -123 0 0 0 0 0
261 1 3 31.1018 -120 0 0 0 0 0
262 1 3 31.1018 -117 0 0 0 0 0
263 1 3 31.1018 -114 0 0 0 0 0
264 1 3 31.1018 -111 0 0 0 0 0
265 1 3 31.1018 -108 0 0 0 0 0
266 1 3 31.1018 -105 0 0 0 0 0
267 1 3 31.1018 -102 0 0 0 0 0
268 1 3 31.1018 -99 0 0 0 0 0
269 1 3 31.1018 -96 0 0 0 0 0
270 1 3 31.1018 -93 0 0 0 0 0
271 1 3 31.1018 -90 0 0 0 0 0
272 1 3 31.1018 -87 0 0 0 0 0
273 1 3 31.1018 -84 0 0 0 0 0
274 1 3 31.1018 -81 0 0 0 0 0
275 1 3 31.1018 -78 0 0 0 0 0
276 1 3 31.1018 -75 0 0 0 0 0
277 1 3 31.1018 -72 0 0 0 0 0
278 1 3 31.1018 -69 0 0 0 0 0
279 1 3 31.1018 -66 0 0 0 0 0
280 1 3 31.1018 -63 0 0 0 0 0
281 1 3 31.1018 -60 0 0 0 0 0
282 1 3 31.1018 -57 0 0 0 0 0
283 1 3 31.1018 -54 0 0 0 0 0
284 1 3 31.1018 -51 0 0 0 0 0
285 1 3 31.1018 -48 0 0 0 0 0
286 1 3 31.1018 -45 0 0 0 0 0
287 1 3 31.1018 -42 0 0 0 0 0
288 1 3 31.1018 -39 0 0 0 0 0
289 1 3 31.1018 -36 0 0 0 0 0
290 1 3 31.1018 -33 0 0 0 0 0
291 1 3 31.1018 -30 0 0 0 0 0
292 1 3 31.1018 -27 0 0 0 0 0
293 1 3 31.1018 -24 0 0 0 0 0
294 1 3 31.1018 -21 0 0 0 0 0
295 1 3 31.1018 -18 0 0 0 0 0
296 1 3 31.1018 -15 0 0 0 0 0
297 1 3 31.1018 -12 0 0 0 0 0
298 1 3 31.1018 -9 0 0 0 0 0
299 1 3 31.1018 -6 0 0 0 0 0
300 1 3 31.1018 -3 0 0 0 0 0
653 2 3 31.1018 -448.500101324693617 -2.46467e-14 2.59757471756007874 0.0455076 0 -0.348886
654 2 3 31.1018 -445.50010132469356 -2.44802e-14 2.59757471736734979 0.0442295 0 -0.348686
655 2 3 31.1018 -442.500101324693446 -2.43137e-14 2.59757471717462085 0.0429514 0 -0.348486
656 2 3 31.1018 -439.500101324693389 -2.41471e-14 2.59757471698189235 0.0416733 0 -0.348285
657 2 3 31.1018 -436.500101324693333 -2.39806e-14 2.59757471678916341 0.0403952 0 -0.348085
658 2 3 31.1018 -433.500101324693276 -2.38141e-14 2.59757471659643446 0.0391171 0 -0.347885
659 2 3 31.1018 -430.500101324693162 -2.36475e-14 2.59757471640370552 0.037839 0 -0.347684
660 2 3 31.1018 -427.500101324693105 -2.3481e-14 2.59757471621097702 0.0365609 0 -0.347484
661 2 3 31.1018 -424.500101324693048 -2.33145e-14 2.59757471601824808 0.0352828 0 -0.347284
662 2 3 31.1018 -421.500101324692992 -2.31479e-14 2.59757471582551913 0.0340048 0 -0.347084
663 2 3 31.1018 -418.500101324692878 -2.29814e-14 2.59757471563279019 0.0327266 0 -0.346883
664 2 3 31.1018 -415.500101324692821 -2.28149e-14 2.59757471544006169 0.0314485 0 -0.346683
665 2 3 31.1018 -412.500101324692764 -2.26483e-14 2.59757471524733274 0.0301705 0 -0.346483
666 2 3 31.1018 -409.50010132469265 -2.24818e-14 2.5975747150546038 0.0288923 0 -0.346282
667 2 3 31.1018 -406.500101324692594 -2.23153e-14 2.59757471486187486 0.0276142 0 -0.346082
668 2 3 31.1018 -403.500101324692537 -2.21487e-14 2.59757471466914636 0.0263361 0 -0.345882
669 2 3 31.1018 -400.50010132469248 -2.19822e-14 2.59757471447641741 0.0250581 0 -0.345681
670 2 3 31.1018 -397.500101324692366 -2.18157e-14 2.59757471428368847 0.0237799 0 -0.345481
671 2 3 31.1018 -394.500101324692309 -2.16491e-14 2.59757471409095952 0.0225018 0 -0.345281
672 2 3 31.1018 -391.500101324692253 -2.14826e-14 2.59757471389823102 0.0212237 0 -0.345081
673 2 3 31.1018 -388.500101324692196 -2.13161e-14 2.59757471370550208 0.019945 0 -0.34488
674 2 3 31.1018 -385.500101324692082 -2.11496e-14 2.59757471351277314 0.0186663 0 -0.344679
675 2 3 31.1018 -382.500101324692025 -2.0983e-14 2.59757471332004419 0.0173877 0 -0.344479
676 2 3 31.1018 -379.500101324691968 -2.08165e-14 2.59757471312731569 0.016109 0 -0.344278
677 2 3 31.1018 -376.500101324691855 -2.065e-14 2.59757471293458675 0.0148303 0 -0.344077
678 2 3 31.1018 -373.500101324691798 -2.04834e-14 2.59757471274185781 0.0135517 0 -0.343877
679 2 3 31.1018 -370.500101324691741 -2.03169e-14 2.59757471254912886 0.012273 0 -0.343676
680 2 3 31.1018 -367.500101324691684 -2.01504e-14 2.59757471235640036 0.0109944 0 -0.343476
681 2 3 31.1018 -364.50010132469157 -1.99838e-14 2.59757471216367142 0.00971566 0 -0.343275
682 2 3 31.1018 -361.500101324691514 -1.98173e-14 2.59757471197094247 0.008437 0 -0.343074
683 2 3 31.1018 -358.500101324691457 -1.96508e-14 2.59757471177821353 0.00715834 0 -0.342874
684 2 3 31.1018 -355.500101324691343 -1.94842e-14 2.59757471158548503 0.00587963 0 -0.342673
685 2 3 31.1018 -352.500101324691286 -1.93177e-14 2.59757471139275609 0.00460098 0 -0.342472
686 2 3 31.1018 -349.500101324691229 -1.91512e-14 2.59757471120002714 0.00332232 0 -0.342272
687 2 3 31.1018 -346.500101324691173 -1.89846e-14 2.5975747110072982 0.00204366 0 -0.342071
688 2 3 31.1018 -343.500101324691059 -1.88181e-14 2.5975747108145697 0.000764946 0 -0.341871
689 2 3 31.1018 -340.500101324691002 -1.86516e-14 2.59757471062184075 -0.000513713 0 -0.34167
690 2 3 31.1018 -337.500101324690945 -1.8485e-14 2.59757471042911181 -0.00179237 0 -0.341469
691 2 3 31.1018 -334.500101324690888 -1.83185e-14 2.59757471023638287 -0.00307103 0 -0.341269
692 2 3 31.1018 -331.500101324690775 -1.8152e-14 2.59757471004365437 -0.00434975 0 -0.341068
693 2 3 31.1018 -328.500101324690718 -1.79854e-14 2.59757470985092542 -0.00562841 0 -0.340868
694 2 3 31.1018 -325.500101324690661 -1.78189e-14 2.59757470965819648 -0.00690707 0 -0.340667
695 2 3 31.1018 -322.500101324690547 -1.76524e-14 2.59757470946546754 -0.00818579 0 -0.340466
696 2 3 31.1018 -319.50010132469049 -1.74859e-14 2.59757470927273904 -0.00946445 0 -0.340266
697 2 3 31.1018 -316.500101324690434 -1.73193e-14 2.59757470908001009 -0.0107431 0 -0.340065
698 2 3 31.1018 -313.500101324690377 -1.71528e-14 2.59757470888728115 -0.0120218 0 -0.339864
699 2 3 31.1018 -310.500101324690263 -1.69863e-14 2.5975747086945522 -0.0133005 0 -0.339664
700 2 3 31.1018 -307.500101324690206 -1.68197e-14 2.5975747085018237 -0.0145792 0 -0.339463
701 2 3 31.1018 -304.500101324690149 -1.66532e-14 2.59757470830909476 -0.0158578 0 -0.339263
702 2 3 31.1018 -301.500101324690036 -1.64867e-14 2.59757470811636582 -0.0171366 0 -0.339062
703 2 3 31.1018 -298.500101324689979 -1.63201e-14 2.59757470792363687 -0.0184152 0 -0.338861
704 2 3 31.1018 -295.500101324689922 -1.61536e-14 2.59757470773090837 -0.0196939 0 -0.338661
705 2 3 31.1018 -292.500101324689865 -1.59871e-14 2.59757470753817943 -0.0209726 0 -0.33846
706 2 3 31.1018 -289.500101324689751 -1.58205e-14 2.59757470734545048 -0.0222513 0 -0.338259
707 2 3 31.1018 -286.500101324689695 -1.5654e-14 2.59757470715272154 -0.0235299 0 -0.338059
708 2 3 31.1018 -283.500101324689638 -1.54875e-14 2.59757470695999304 -0.0248086 0 -0.337858
709 2 3 31.1018 -280.500101324689581 -1.53209e-14 2.5975747067672641 -0.0260873 0 -0.337658
710 2 3 31.1018 -277.500101324689467 -1.51544e-14 2.59757470657453515 -0.027366 0 -0.337457
711 2 3 31.1018 -274.50010132468941 -1.49879e-14 2.59757470638180621 -0.0286447 0 -0.337256
712 2 3 31.1018 -271.500101324689354 -1.48213e-14 2.59757470618907771 -0.0299234 0 -0.337056
713 2 3 31.1018 -268.50010132468924 -1.46548e-14 2.59757470599634877 -0.0312021 0 -0.336855
714 2 3 31.1018 -265.500101324689183 -1.44883e-14 2.59757470580361982 -0.0324808 0 -0.336655
715 2 3 31.1018 -262.500101324689126 -1.43217e-14 2.59757470561089088 -0.0337594 0 -0.336454
716 2 3 31.1018 -259.500101324689069 -1.41552e-14 2.59757470541816238 -0.0350381 0 -0.336253
717 2 3 31.1018 -256.500101324689012 -1.39887e-14 2.59757470522543343 -0.0363168 0 -0.336053
718 2 3 31.1018 -253.500101324688927 -1.38221e-14 2.59757470503270449 -0.0375955 0 -0.335852
719 2 3 31.1018 -250.500101324688842 -1.36556e-14 2.59757470483997555 -0.0388742 0 -0.335651
720 2 3 31.1018 -247.500101324688785 -1.34891e-14 2.59757470464724705 -0.0401529 0 -0.335451
721 2 3 31.1018 -244.5001013246887 -1.33226e-14 2.5975747044545181 -0.0414316 0 -0.33525
722 2 3 31.1018 -241.500101324688643 -1.3156e-14 2.59757470426178916 -0.0427102 0 -0.33505
723 2 3 31.1018 -238.500101324688558 -1.29895e-14 2.59757470406906021 -0.0439889 0 -0.334849
724 2 3 31.1018 -235.500101324688501 -1.2823e-14 2.59757470387633171 -0.0452676 0 -0.334648
725 2 3 31.1018 -232.500101324688416 -1.26564e-14 2.59757470368360277 -0.0465463 0 -0.334448
726 2 3 31.1018 -229.500101324688359 -1.24899e-14 2.59757470349087383 -0.047825 0 -0.334247
727 2 3 31.1018 -226.500101324688274 -1.23234e-14 2.59757470329814488 -0.0491037 0 -0.334046
728 2 3 31.1018 -223.500101324688188 -1.21568e-14 2.59757470310541638 -0.0503824 0 -0.333846
729 2 3 31.1018 -220.500101324688131 -1.19903e-14 2.59757470291268744 -0.0516611 0 -0.333645
730 2 3 31.1018 -217.500101324688046 -1.18238e-14 2.59757470271995849 -0.0529398 0 -0.333445
731 2 3 31.1018 -214.500101324687989 -1.16572e-14 2.59757470252722955 -0.0542185 0 -0.333244
732 2 3 31.1018 -211.500101324687904 -1.14907e-14 2.59757470233450105 -0.0554972 0 -0.333043
733 2 3 31.1018 -208.500101324687847 -1.13242e-14 2.59757470214177211 -0.0567759 0 -0.332843
734 2 3 31.1018 -205.500101324687762 -1.11576e-14 2.59757470194904316 -0.0580546 0 -0.332642
735 2 3 31.1018 -202.500101324687705 -1.09911e-14 2.59757470175631422 -0.0593333 0 -0.332442
736 2 3 31.1018 -199.50010132468762 -1.08246e-14 2.59757470156358572 -0.060612 0 -0.332241
737 2 3 31.1018 -196.500101324687563 -1.0658e-14 2.59757470137085678 -0.0618907 0 -0.33204
738 2 3 31.1018 -193.500101324687478 -1.04915e-14 2.59757470117812783 -0.0631694 0 -0.33184
739 2 3 31.1018 -190.500101324687392 -1.0325e-14 2.59757470098539889 -0.0644481 0 -0.331639
740 2 3 31.1018 -187.500101324687336 -1.01584e-14 2.59757470079267039 -0.0657268 0 -0.331438
741 2 3 31.1018 -184.50010132468725 -9.99191e-15 2.59757470059994144 -0.0670055 0 -0.331238
742 2 3 31.1018 -181.500101324687193 -9.82538e-15 2.5975747004072125 -0.0682842 0 -0.331037
743 2 3 31.1018 -178.500101324687108 -9.65885e-15 2.59757470021448356 -0.0695629 0 -0.330837
744 2 3 31.1018 -175.500101324687051 -9.49232e-15 2.59757470002175506 -0.0708416 0 -0.330636
745 2 3 31.1018 -172.500101324686966 -9.32579e-15 2.59757469982902611 -0.0721203 0 -0.330435
746 2 3 31.1018 -169.500101324686909 -9.15925e-15 2.59757469963629717 -0.073399 0 -0.330235
747 2 3 31.1018 -166.500101324686824 -8.99272e-15 2.59757469944356822 -0.0746777 0 -0.330034
748 2 3 31.1018 -163.500101324686739 -8.82619e-15 2.59757469925083972 -0.0759564 0 -0.329834
749 2 3 31.1018 -160.500101324686682 -8.65966e-15 2.59757469905811078 -0.0772351 0 -0.329633
750 2 3 31.1018 -157.500101324686597 -8.49313e-15 2.59757469886538184 -0.0785139 0 -0.329432
751 2 3 31.1018 -154.50010132468654 -8.3266e-15 2.59757469867265289 -0.0797925 0 -0.329232
752 2 3 31.1018 -151.500101324686455 -8.16006e-15 2.59757469847992439 -0.0810713 0 -0.329031
753 2 3 31.1018 -148.500101324686398 -7.99353e-15 2.59757469828719545 -0.08235 0 -0.32883
754 2 3 31.1018 -145.500101324686312 -7.827e-15 2.59757469809446651 -0.0836287 0 -0.32863
755 2 3 31.1018 -142.500101324686256 -7.66047e-15 2.59757469790173756 -0.0849074 0 -0.328429
756 2 3 31.1018 -139.50010132468617 -7.49394e-15 2.59757469770900906 -0.0861861 0 -0.328229
757 2 3 31.1018 -136.500101324686085 -7.3274e-15 2.59757469751628012 -0.0874648 0 -0.328028
758 2 3 31.1018 -133.500101324686028 -7.16087e-15 2.59757469732355117 -0.0887435 0 -0.327827
759 2 3 31.1018 -130.500101324685971 -6.99434e-15 2.59757469713082223 -0.0900222 0 -0.327627
760 2 3 31.1018 -127.500101324685872 -6.82781e-15 2.59757469693809373 -0.091301 0 -0.327426
761 2 3 31.1018 -124.500101324685801 -6.66128e-15 2.59757469674536479 -0.0925797 0 -0.327226
762 2 3 31.1018 -121.50010132468573 -6.49474e-15 2.59757469655263584 -0.0938584 0 -0.327025
763 2 3 31.1018 -118.500101324685659 -6.32821e-15 2.5975746963599069 -0.0951371 0 -0.326824
764 2 3 31.1018 -115.500101324685588 -6.16168e-15 2.5975746961671784 -0.0964158 0 -0.326624
765 2 3 31.1018 -112.500101324685517 -5.99515e-15 2.59757469597444945 -0.0976945 0 -0.326423
766 2 3 31.1018 -109.500101324685446 -5.82862e-15 2.59757469578172051 -0.0989732 0 -0.326222
767 2 3 31.1018 -106.500101324685374 -5.66208e-15 2.59757469558899157 -0.100252 0 -0.326022
768 2 3 31.1018 -103.500101324685303 -5.49555e-15 2.59757469539626307 -0.101531 0 -0.325821
769 2 3 31.1018 -100.500101324685232 -5.32902e-15 2.59757469520353412 -0.102809 0 -0.325621
770 2 3 31.1018 -97.5001013246851471 -5.16249e-15 2.59757469501080518 -0.104088 0 -0.32542
771 2 3 31.1018 -94.5001013246850761 -4.99596e-15 2.59757469481807624 -0.105367 0 -0.325219
772 2 3 31.1018 -91.500101324685005 -4.82943e-15 2.59757469462534774 -0.106646 0 -0.325019
773 2 3 31.1018 -88.500101324684934 -4.66289e-15 2.59757469443261879 -0.107924 0 -0.324818
774 2 3 31.1018 -85.5001013246848629 -4.49636e-15 2.59757469423988985 -0.109203 0 -0.324618
775 2 3 31.1018 -82.5001013246847918 -4.32983e-15 2.5975746940471609 -0.110482 0 -0.324417
776 2 3 31.1018 -79.5001013246847208 -4.1633e-15 2.5975746938544324 -0.11176 0 -0.324216
777 2 3 31.1018 -76.5001013246846497 -3.99677e-15 2.59757469366170346 -0.113039 0 -0.324016
778 2 3 31.1018 -73.5001013246845787 -3.83023e-15 2.59757469346897452 -0.114318 0 -0.323815
779 2 3 31.1018 -70.5001013246844934 -3.6637e-15 2.59757469327624557 -0.115597 0 -0.323614
780 2 3 31.1018 -67.5001013246844224 -3.49717e-15 2.59757469308351707 -0.116875 0 -0.323414
781 2 3 31.1018 -64.5001013246843513 -3.33064e-15 2.59757469289078813 -0.118154 0 -0.323213
782 2 3 31.1018 -61.5001013246842732 -3.16411e-15 2.59757469269805918 -0.119433 0 -0.323013
783 2 3 31.1018 -58.5001013246842021 -2.99757e-15 2.59757469250533024 -0.120711 0 -0.322812
784 2 3 31.1018 -55.500101324684131 -2.83104e-15 2.59757469231260174 -0.12199 0 -0.322611
785 2 3 31.1018 -52.50010132468406 -2.66451e-15 2.5975746921198728 -0.123269 0 -0.322411
786 2 3 31.1018 -49.5001013246839818 -2.49798e-15 2.59757469192714385 -0.124548 0 -0.32221
787 2 3 31.1018 -46.5001013246839108 -2.33145e-15 2.59757469173441491 -0.125826 0 -0.32201
788 2 3 31.1018 -43.5001013246838397 -2.16491e-15 2.59757469154168641 -0.127105 0 -0.321809
789 2 3 31.1018 -40.5001013246837687 -1.99838e-15 2.59757469134895747 -0.128384 0 -0.321608
790 2 3 31.1018 -37.5001013246836905 -1.83185e-15 2.59757469115622852 -0.129663 0 -0.321408
791 2 3 31.1018 -34.5001013246836195 -1.66532e-15 2.59757469096349958 -0.130942 0 -0.321207
792 2 3 31.1018 -31.500101324683552 -1.49879e-15 2.59757469077077108 -0.132221 0 -0.321006
793 2 3 31.1018 -28.5001013246834809 -1.33226e-15 2.59757469057804213 -0.133501 0 -0.320805
794 2 3 31.1018 -25.5001013246834063 -1.16572e-15 2.59757469038531319 -0.13478 0 -0.320604
795 2 3 31.1018 -22.5001013246833352 -9.99191e-16 2.59757469019258425 -0.136059 0 -0.320403
796 2 3 31.1018 -19.5001013246832606 -8.3266e-16 2.59757468999985575 -0.137338 0 -0.320202
797 2 3 31.1018 -16.5001013246831896 -6.66128e-16 2.5975746898071268 -0.138618 0 -0.320001
798 2 3 31.1018 -13.500101324683115 -4.99596e-16 2.59757468961439786 -0.139897 0 -0.3198
799 2 3 31.1018 -10.5001013246830439 -3.33064e-16 2.59757468942166891 -0.141176 0 -0.319599
800 2 3 31.1018 -7.50010132468297108 -1.66532e-16 2.59757468922894041 -0.142456 0 -0.319398
801 2 3 31.1018 -4.50010132468289825 -1.23258e-30 2.59757468903621147 -0.143735 0 -0.319197
802 2 3 31.1018 -1.50010132468282587 1.66532e-16 2.59757468884348253 -0.145014 0 -0.318996
301 1 3 31.1018 0 0 0 0 0 0
302 1 3 31.1018 3 0 0 0 0 0
303 1 3 31.1018 6 0 0 0 0 0
304 1 3 31.1018 9 0 0 0 0 0
305 1 3 31.1018 12 0 0 0 0 0
306 1 3 31.1018 15 0 0 0 0 0
307 1 3 31.1018 18 0 0 0 0 0
308 1 3 31.1018 21 0 0 0 0 0
309 1 3 31.1018 24 0 0 0 0 0
310 1 3 31.1018 27 0 0 0 0 0
311 1 3 31.1018 30 0 0 0 0 0
312 1 3 31.1018 33 0 0 0 0 0
313 1 3 31.1018 36 0 0 0 0 0
314 1 3 31.1018 39 0 0 0 0 0
315 1 3 31.1018 42 0 0 0 0 0
316 1 3 31.1018 45 0 0 0 0 0
317 1 3 31.1018 48 0 0 0 0 0
318 1 3 31.1018 51 0 0 0 0 0
319 1 3 31.1018 54 0 0 0 0 0
320 1 3 31.1018 57 0 0 0 0 0
321 1 3 31.1018 60 0 0 0 0 0
322 1 3 31.1018 63 0 0 0 0 0
323 1 3 31.1018 66 0 0 0 0 0
324 1 3 31.1018 69 0 0 0 0 0
325 1 3 31.1018 72 0 0 0 0 0
326 1 3 31.1018 75 0 0 0 0 0
327 1 3 31.1018 78 0 0 0 0 0
328 1 3 31.1018 81 0 0 0 0 0
329 1 3 31.1018 84 0 0 0 0 0
330 1 3 31.1018 87 0 0 0 0 0
331 1 3 31.1018 90 0 0 0 0 0
332 1 3 31.1018 93 0 0 0 0 0
333 1 3 31.1018 96 0 0 0 0 0
334 1 3 31.1018 99 0 0 0 0 0
335 1 3 31.1018 102 0 0 0 0 0
336 1 3 31.1018 105 0 0 0 0 0
337 1 3 31.1018 108 0 0 0 0 0
338 1 3 31.1018 111 0 0 0 0 0
339 1 3 31.1018 114 0 0 0 0 0
340 1 3 31.1018 117 0 0 0 0 0
341 1 3 31.1018 120 0 0 0 0 0
342 1 3 31.1018 123 0 0 0 0 0
343 1 3 31.1018 126 0 0 0 0 0
344 1 3 31.1018 129 0 0 0 0 0
345 1 3 31.1018 132 0 0 0 0 0
346 1 3 31.1018 135 0 0 0 0 0
347 1 3 31.1018 138 0 0 0 0 0
348 1 3 31.1018 141 0 0 0 0 0
349 1 3 31.1018 144 0 0 0 0 0
350 1 3 31.1018 147 0 0 0 0 0
351 1 3 31.1018 150 0 0 0 0 0
352 1 3 31.1018 153 0 0 0 0 0
353 1 3 31.1018 156 0 0 0 0 0
354 1 3 31.1018 159 0 0 0 0 0
355 1 3 31.1018 162 0 0 0 0 0
356 1 3 31.1018 165 0 0 0 0 0
357 1 3 31.1018 168 0 0 0 0 0
358 1 3 31.1018 171 0 0 0 0 0
359 1 3 31.1018 174 0 0 0 0 0
360 1 3 31.1018 177 0 0 0 0 0
361 1 3 31.1018 180 0 0 0 0 0
362 1 3 31.1018 183 0 0 0 0 0
363 1 3 31.1018 186 0 0 0 0 0
364 1 3 31.1018 189 0 0 0 0 0
365 1 3 31.1018 192 0 0 0 0 0
366 1 3 31.1018 195 0 0 0 0 0
367 1 3 31.1018 198 0 0 0 0 0
368 1 3 31.1018 201 0 0 0 0 0