ITEM: TIMESTEP
3700000
ITEM: NUMBER OF ATOMS
1001
ITEM: BOX BOUNDS pp pp pp
-9.0000000000000000e+02 9.0000000000000000e+02
-1.0000000000000000e+02 1.0000000000000000e+02
-1.0000000000000000e+02 1.0000000000000000e+02
ITEM: ATOMS id type diameter mass xu yu zu fx fy fz
1 1 3 31.1018 -900 0 0 0 0 0
2 1 3 31.1018 -897 0 0 0 0 0
3 1 3 31.1018 -894 0 0 0 0 0
4 1 3 31.1018 -891 0 0 0 0 0
5 1 3 31.1018 -888 0 0 0 0 0
6 1 3 31.1018 -885 0 0 0 0 0
7 1 3 31.1018 -882 0 0 0 0 0
8 1 3 31.1018 -879 0 0 0 0 0
9 1 3 31.1018 -876 0 0 0 0 0
10 1 3 31.1018 -873 0 0 0 0 0
11 1 3 31.1018 -870 0 0 0 0 0
12 1 3 31.1018 -867 0 0 0 0 0
13 1 3 31.1018 -864 0 0 0 0 0
14 1 3 31.1018 -861 0 0 0 0 0
15 1 3 31.1018 -858 0 0 0 0 0
16 1 3 31.1018 -855 0 0 0 0 0
17 1 3 31.1018 -852 0 0 0 0 0
18 1 3 31.1018 -849 0 0 0 0 0
19 1 3 31.1018 -846 0 0 0 0 0
20 1 3 31.1018 -843 0 0 0 0 0
21 1 3 31.1018 -840 0 0 0 0 0
22 1 3 31.1018 -837 0 0 0 0 0
23 1 3 31.1018 -834 0 0 0 0 0
24 1 3 31.1018 -831 0 0 0 0 0
25 1 3 31.1018 -828 0 0 0 0 0
26 1 3 31.1018 -825 0 0 0 0 0
27 1 3 31.1018 -822 0 0 0 0 0
28 1 3 31.1018 -819 0 0 0 0 0
29 1 3 31.1018 -816 0 0 0 0 0
30 1 3 31.1018 -813 0 0 0 0 0
31 1 3 31.1018 -810 0 0 0 0 0
32 1 3 31.1018 -807 0 0 0 0 0
33 1 3 31.1018 -804 0 0 0 0 0
34 1 3 31.1018 -801 0 0 0 0 0
35 1 3 31.1018 -798 0 0 0 0 0
36 1 3 31.1018 -795 0 0 0 0 0
37 1 3 31.1018 -792 0 0 0 0 0
38 1 3 31.1018 -789 0 0 0 0 0
39 1 3 31.1018 -786 0 0 0 0 0
40 1 3 31.1018 -783 0 0 0 0 0
41 1 3 31.1018 -780 0 0 0 0 0
42 1 3 31.1018 -777 0 0 0 0 0
43 1 3 31.1018 -774 0 0 0 0 0
44 1 3 31.1018 -771 0 0 0 0 0
45 1 3 31.1018 -768 0 0 0 0 0
46 1 3 31.1018 -765 0 0 0 0 0
47 1 3 31.1018 -762 0 0 0 0 0
48 1 3 31.1018 -759 0 0 0 0 0
49 1 3 31.1018 -756 0 0 0 0 0
50 1 3 31.1018 -753 0 0 0 0 0
51 1 3 31.1018 -750 0 0 0 0 0
52 1 3 31.1018 -747 0 0 0 0 0
53 1 3 31.1018 -744 0 0 0 0 0
54 1 3 31.1018 -741 0 0 0 0 0
55 1 3 31.1018 -738 0 0 0 0 0
56 1 3 31.1018 -735 0 0 0 0 0
57 1 3 31.1018 -732 0 0 0 0 0
58 1 3 31.1018 -729 0 0 0 0 0
59 1 3 31.1018 -726 0 0 0 0 0
60 1 3 31.1018 -723 0 0 0 0 0
61 1 3 31.1018 -720 0 0 0 0 0
62 1 3 31.1018 -717 0 0 0 0 0
63 1 3 31.1018 -714 0 0 0 0 0
64 1 3 31.1018 -711 0 0 0 0 0
65 1 3 31.1018 -708 0 0 0 0 0
66 1 3 31.1018 -705 0 0 0 0 0
67 1 3 31.1018 -702 0 0 0 0 0
68 1 3 31.1018 -699 0 0 0 0 0
69 1 3 31.1018 -696 0 0 0 0 0
70 1 3 31.1018 -693 0 0 0 0 0
71 1 3 31.1018 -690 0 0 0 0 0
72 1 3 31.1018 -687 0 0 0 0 0
73 1 3 31.1018 -684 0 0 0 0 0
74 1 3 31.1018 -681 0 0 0 0 0
75 1 3 31.1018 -678 0 0 0 0 0
76 1 3 31.1018 -675 0 0 0 0 0
77 1 3 31.1018 -672 0 0 0 0 0
78 1 3 31.1018 -669 0 0 0 0 0
79 1 3 31.1018 -666 0 0 0 0 0
80 1 3 31.1018 -663 0 0 0 0 0
81 1 3 31.1018 -660 0 0 0 0 0
82 1 3 31.1018 -657 0 0 0 0 0
83 1 3 31.1018 -654 0 0 0 0 0
84 1 3 31.1018 -651 0 0 0 0 0
85 1 3 31.1018 -648 0 0 0 0 0
86 1 3 31.1018 -645 0 0 0 0 0
87 1 3 31.1018 -642 0 0 0 0 0
88 1 3 31.1018 -639 0 0 0 0 0
89 1 3 31.1018 -636 0 0 0 0 0
90 1 3 31.1018 -633 0 0 0 0 0
91 1 3 31.1018 -630 0 0 0 0 0
92 1 3 31.1018 -627 0 0 0 0 0
93 1 3 31.1018 -624 0 0 0 0 0
94 1 3 31.1018 -621 0 0 0 0 0
95 1 3 31.1018 -618 0 0 0 0 0
96 1 3 31.1018 -615 0 0 0 0 0
97 1 3 31.1018 -612 0 0 0 0 0
98 1 3 31.1018 -609 0 0 0 0 0
99 1 3 31.1018 -606 0 0 0 0 0
100 1 3 31.1018 -603 0 0 0 0 0
101 1 3 31.1018 -600 0 0 0 0 0
102 1 3 31.1018 -597 0 0 0 0 0
103 1 3 31.1018 -594 0 0 0 0 0
104 1 3 31.1018 -591 0 0 0 0 0
105 1 3 31.1018 -588 0 0 0 0 0
106 1 3 31.1018 -585 0 0 0 0 0
107 1 3 31.1018 -582 0 0 0 0 0
108 1 3 31.1018 -579 0 0 0 0 0
109 1 3 31.1018 -576 0 0 0 0 0
110 1 3 31.1018 -573 0 0 0 0 0
111 1 3 31.1018 -570 0 0 0 0 0
112 1 3 31.1018 -567 0 0 0 0 0
113 1 3 31.1018 -564 0 0 0 0 0
114 1 3 31.1018 -561 0 0 0 0 0
115 1 3 31.1018 -558 0 0 0 0 0
116 1 3 31.1018 -555 0 0 0 0 0
117 1 3 31.1018 -552 0 0 0 0 0
118 1 3 31.1018 -549 0 0 0 0 0
119 1 3 31.1018 -546 0 0 0 0 0
120 1 3 31.1018 -543 0 0 0 0 0
121 1 3 31.1018 -540 0 0 0 0 0
122 1 3 31.1018 -537 0 0 0 0 0
123 1 3 31.1018 -534 0 0 0 0 0
124 1 3 31.1018 -531 0 0 0 0 0
125 1 3 31.1018 -528 0 0 0 0 0
126 1 3 31.1018 -525 0 0 0 0 0
127 1 3 31.1018 -522 0 0 0 0 0
128 1 3 31.1018 -519 0 0 0 0 0
129 1 3 31.1018 -516 0 0 0 0 0
130 1 3 31.1018 -513 0 0 0 0 0
131 1 3 31.1018 -510 0 0 0 0 0
132 1 3 31.1018 -507 0 0 0 0 0
133 1 3 31.1018 -504 0 0 0 0 0
134 1 3 31.1018 -501 0 0 0 0 0
135 1 3 31.1018 -498 0 0 0 0 0
136 1 3 31.1018 -495 0 0 0 0 0
137 1 3 31.1018 -492 0 0 0 0 0
138 1 3 31.1018 -489 0 0 0 0 0
139 1 3 31.1018 -486 0 0 0 0 0
140 1 3 31.1018 -483 0 0 0 0 0
141 1 3 31.1018 -480 0 0 0 0 0
142 1 3 31.1018 -477 0 0 0 0 0
143 1 3 31.1018 -474 0 0 0 0 0
144 1 3 31.1018 -471 0 0 0 0 0
145 1 3 31.1018 -468 0 0 0 0 0
146 1 3 31.1018 -465 0 0 0 0 0
147 1 3 31.1018 -462 0 0 0 0 0
148 1 3 31.1018 -459 0 0 0 0 0
149 1 3 31.1018 -456 0 0 0 0 0
150 1 3 31.1018 -453 0 0 0 0 0
601 2 3 31.1018 -604.500101366730178 1.90891e-19 2.59757463656029053 0.243707 0 -0.0222426
602 2 3 31.1018 -601.500101366730178 1.89936e-19 2.59757463640894004 0.244387 0 -0.021068
603 2 3 31.1018 -598.500101366730178 1.88982e-19 2.59757463625759 0.245066 0 -0.0198935
604 2 3 31.1018 -595.500101366730178 1.88027e-19 2.59757463610623951 0.245745 0 -0.0187189
605 2 3 31.1018 -592.500101366730178 1.87073e-19 2.59757463595488947 0.246424 0 -0.0175444
606 2 3 31.1018 -589.500101366730178 1.86119e-19 2.59757463580353898 0.247104 0 -0.0163699
607 2 3 31.1018 -586.500101366730178 1.85164e-19 2.59757463565218893 0.247783 0 -0.0151953
608 2 3 31.1018 -583.500101366730064 1.8421e-19 2.59757463550083845 0.248462 0 -0.0140208
609 2 3 31.1018 -580.500101366730064 1.83255e-19 2.5975746353494884 0.247714 0 -0.0136703
610 2 3 31.1018 -577.500101366730064 1.82301e-19 2.59757463519813792 0.246436 0 -0.0136266
611 2 3 31.1018 -574.500101366730064 1.81346e-19 2.59757463504678787 0.245157 0 -0.0135829
612 2 3 31.1018 -571.500101366730064 1.80392e-19 2.59757463489543738 0.243878 0 -0.0135391
613 2 3 31.1018 -568.500101366730064 1.79437e-19 2.59757463474408734 0.242599 0 -0.0134954
614 2 3 31.1018 -565.500101366730064 1.78483e-19 2.59757463459273685 0.24132 0 -0.0134516
615 2 3 31.1018 -562.500101366730064 1.77528e-19 2.59757463444138681 0.240042 0 -0.0134079
616 2 3 31.1018 -559.500101366730064 1.76574e-19 2.59757463429003632 0.238763 0 -0.0133642
617 2 3 31.1018 -556.500101366730064 1.7562e-19 2.59757463413868628 0.237484 0 -0.0133204
618 2 3 31.1018 -553.500101366730064 1.74665e-19 2.59757463398733579 0.236205 0 -0.0132767
619 2 3 31.1018 -550.500101366730064 1.73711e-19 2.59757463383598575 0.234926 0 -0.0132329
620 2 3 31.1018 -547.500101366730064 1.72756e-19 2.59757463368463526 0.233648 0 -0.0131892
621 2 3 31.1018 -544.500101366730064 1.71802e-19 2.59757463353328522 0.232369 0 -0.0131455
622 2 3 31.1018 -541.500101366730064 1.70847e-19 2.59757463338193473 0.23109 0 -0.0131017
623 2 3 31.1018 -538.50010136672995 1.69893e-19 2.59757463323058468 0.229811 0 -0.013058
624 2 3 31.1018 -535.50010136672995 1.68938e-19 2.5975746330792342 0.228532 0 -0.0130143
625 2 3 31.1018 -532.50010136672995 1.67984e-19 2.59757463292788415 0.227253 0 -0.0129705
626 2 3 31.1018 -529.50010136672995 1.6703e-19 2.59757463277653367 0.225975 0 -0.0129268
627 2 3 31.1018 -526.50010136672995 1.66075e-19 2.59757463262518362 0.224696 0 -0.0128831
628 2 3 31.1018 -523.50010136672995 1.65121e-19 2.59757463247383313 0.223417 0 -0.0128393
629 2 3 31.1018 -520.50010136672995 1.64166e-19 2.59757463232248309 0.222138 0 -0.0127956
630 2 3 31.1018 -517.50010136672995 1.63212e-19 2.5975746321711326 0.220859 0 -0.0127518
631 2 3 31.1018 -514.50010136672995 1.62257e-19 2.59757463201978256 0.219581 0 -0.0127081
632 2 3 31.1018 -511.50010136672995 1.61303e-19 2.59757463186843207 0.218302 0 -0.0126644
633 2 3 31.1018 -508.50010136672995 1.60348e-19 2.59757463171708203 0.217023 0 -0.0126206
634 2 3 31.1018 -505.50010136672995 1.59394e-19 2.59757463156573154 0.215744 0 -0.0125769
635 2 3 31.1018 -502.500101366729893 1.58439e-19 2.5975746314143815 0.214465 0 -0.0125332
636 2 3 31.1018 -499.500101366729893 1.57485e-19 2.59757463126303101 0.213186 0 -0.0124894
637 2 3 31.1018 -496.500101366729893 1.56531e-19 2.59757463111168097 0.211908 0 -0.0124457
638 2 3 31.1018 -493.500101366729893 1.55576e-19 2.59757463096033048 0.210629 0 -0.012402
639 2 3 31.1018 -490.500101366729893 1.54622e-19 2.59757463080898043 0.20935 0 -0.0123582
640 2 3 31.1018 -487.500101366729893 1.53667e-19 2.59757463065762995 0.208071 0 -0.0123145
641 2 3 31.1018 -484.500101366729893 1.52713e-19 2.5975746305062799 0.206792 0 -0.0122707
642 2 3 31.1018 -481.500101366729837 1.51758e-19 2.59757463035492941 0.205513 0 -0.012227
643 2 3 31.1018 -478.500101366729837 1.50804e-19 2.59757463020357937 0.204235 0 -0.0121833
644 2 3 31.1018 -475.500101366729837 1.49849e-19 2.59757463005222888 0.202956 0 -0.0121395
645 2 3 31.1018 -472.500101366729837 1.48895e-19 2.59757462990087884 0.201677 0 -0.0120958
646 2 3 31.1018 -469.500101366729837 1.4794e-19 2.59757462974952835 0.200398 0 -0.0120521
647 2 3 31.1018 -466.500101366729837 1.46986e-19 2.59757462959817831 0.199119 0 -0.0120083
648 2 3 31.1018 -463.500101366729837 1.46032e-19 2.59757462944682782 0.197841 0 -0.0119646
649 2 3 31.1018 -460.500101366729837 1.45077e-19 2.59757462929547778 0.196562 0 -0.0119209
650 2 3 31.1018 -457.50010136672978 1.44123e-19 2.59757462914412729 0.195283 0 -0.0118771
651 2 3 31.1018 -454.50010136672978 1.43168e-19 2.59757462899277725 0.194004 0 -0.0118334
652 2 3 31.1018 -451.50010136672978 1.42214e-19 2.59757462884142676 0.192725 0 -0.0117897
151 1 3 31.1018 -450 0 0 0 0 0
152 1 3 31.1018 -447 0 0 0 0 0
153 1 3 31.1018 -444 0 0 0 0 0
154 1 3 31.1018 -441 0 0 0 0 0
155 1 3 31.1018 -438 0 0 0 0 0
156 1 3 31.1018 -435 0 0 0 0 0
157 1 3 31.1018 -432 0 0 0 0 0
158 1 3 31.1018 -429 0 0 0 0 0
159 1 3 31.1018 -426 0 0 0 0 0
160 1 3 31.1018 -423 0 0 0 0 0
161 1 3 31.1018 -420 0 0 0 0 0
162 1 3 31.1018 -417 0 0 0 0 0
163 1 3 31.1018 -414 0 0 0 0 0
164 1 3 31.1018 -411 0 0 0 0 0
165 1 3 31.1018 -408 0 0 0 0 0
166 1 3 31.1018 -405 0 0 0 0 0
167 1 3 31.1018 -402 0 0 0 0 0
168 1 3 31.1018 -399 0 0 0 0 0
169 1 3 31.1018 -396 0 0 0 0 0
170 1 3 31.1018 -393 0 0 0 0 0
171 1 3 31.1018 -390 0 0 0 0 0
172 1 3 31.1018 -387 0 0 0 0 0
173 1 3 31.1018 -384 0 0 0 0 0
174 1 3 31.1018 -381 0 0 0 0 0
175 1 3 31.1018 -378 0 0 0 0 0
176 1 3 31.1018 -375 0 0 0 0 0
177 1 3 31.1018 -372 0 0 0 0 0
178 1 3 31.1018 -369 0 0 0 0 0
179 1 3 31.1018 -366 0 0 0 0 0
180 1 3 31.1018 -363 0 0 0 0 0
181 1 3 31.1018 -360 0 0 0 0 0
182 1 3 31.1018 -357 0 0 0 0 0
183 1 3 31.1018 -354 0 0 0 0 0
184 1 3 31.1018 -351 0 0 0 0 0
185 1 3 31.1018 -348 0 0 0 0 0
186 1 3 31.1018 -345 0 0 0 0 0
187 1 3 31.1018 -342 0 0 0 0 0
188 1 3 31.1018 -339 0 0 0 0 0
189 1 3 31.1018 -336 0 0 0 0 0
190 1 3 31.1018 -333 0 0 0 0 0
191 1 3 31.1018 -330 0 0 0 0 0
192 1 3 31.1018 -327 0 0 0 0 0
193 1 3 31.1018 -324 0 0 0 0 0
194 1 3 31.1018 -321 0 0 0 0 0
195 1 3 31.1018 -318 0 0 0 0 0
196 1 3 31.1018 -315 0 0 0 0 0
197 1 3 31.1018 -312 0 0 0 0 0
198 1 3 31.1018 -309 0 0 0 0 0
199 1 3 31.1018 -306 0 0 0 0 0
200 1 3 31.1018 -303 0 0 0 0 0
201 1 3 31.1018 -300 0 0 0 0 0
202 1 3 31.1018 -297 0 0 0 0 0
203 1 3 31.1018 -294 0 0 0 0 0
204 1 3 31.1018 -291 0 0 0 0 0
205 1 3 31.1018 -288 0 0 0 0 0
206 1 3 31.1018 -285 0 0 0 0 0
207 1 3 31.1018 -282 0 0 0 0 0
208 1 3 31.1018 -279 0 0 0 0 0
209 1 3 31.1018 -276 0 0 0 0 0
210 1 3 31.1018 -273 0 0 0 0 0
211 1 3 31.1018 -270 0 0 0 0 0
212 1 3 31.1018 -267 0 0 0 0 0
213 1 3 31.1018 -264 0 0 0 0 0
214 1 3 31.1018 -261 0 0 0 0 0
215 1 3 31.1018 -258 0 0 0 0 0
216 1 3 31.1018 -255 0 0 0 0 0
217 1 3 31.1018 -252 0 0 0 0 0
218 1 3 31.1018 -249 0 0 0 0 0
219 1 3 31.1018 -246 0 0 0 0 0
220 1 3 31.1018 -243 0 0 0 0 0
221 1 3 31.1018 -240 0 0 0 0 0
222 1 3 31.1018 -237 0 0 0 0 0
223 1 3 31.1018 -234 0 0 0 0 0
224 1 3 31.1018 -231 0 0 0 0 0
225 1 3 31.1018 -228 0 0 0 0 0
226 1 3 31.1018 -225 0 0 0 0 0
227 1 3 31.1018 -222 0 0 0 0 0
228 1 3 31.1018 -219 0 0 0 0 0
229 1 3 31.1018 -216 0 0 0 0 0
230 1 3 31.1018 -213 0 0 0 0 0
231 1 3 31.1018 -210 0 0 0 0 0
232 1 3 31.1018 -207 0 0 0 0 0
233 1 3 31.1018 -204 0 0 0 0 0
234 1 3 31.1018 -201 0 0 0 0 0
235 1 3 31.1018 -198 0 0 0 0 0
236 1 3 31.1018 -195 0 0 0 0 0
237 1 3 31.1018 -192 0 0 0 0 0
238 1 3 31.1018 -189 0 0 0 0 0
239 1 3 31.1018 -186 0 0 0 0 0
240 1 3 31.1018 -183 0 0 0 0 0
241 1 3 31.1018 -180 0 0 0 0 0
242 1 3 31.1018 -177 0 0 0 0 0
243 1 3 31.1018 -174 0 0 0 0 0
244 1 3 31.1018 -171 0 0 0 0 0
245 1 3 31.1018 -168 0 0 0 0 0
246 1 3 31.1018 -165 0 0 0 0 0
247 1 3 31.1018 -162 0 0 0 0 0
248 1 3 31.1018 -159 0 0 0 0 0
249 1 3 31.1018 -156 0 0 0 0 0
250 1 3 31.1018 -153 0 0 0 0 0
251 1 3 31.1018 -150 0 0 0 0 0
252 1 3 31.1018 -147 0 0 0 0 0
253 1 3 31.1018 -144 0 0 0 0 0
254 1 3 31.1018 -141 0 0 0 0 0
255 1 3 31.1018 -138 0 0 0 0 0
256 1 3 31.1018 -135 0 0 0 0 0
257 1 3 31.1018 -132 0 0 0 0 0
258 1 3 31.1018 -129 0 0 0 0 0
259 1 3 31.1018 -126 0 0 0 0 0
260 1 3 31.1018 -123 0 0 0 0 0
261 1 3 31.1018 -120 0 0 0 0 0
262 1 3 31.1018 -117 0 0 0 0 0
263 1 3 31.1018 -114 0 0 0 0 0
264 1 3 31.1018 -111 0 0 0 0 0
265 1 3 31.1018 -108 0 0 0 0 0
266 1 3 31.1018 -105 0 0 0 0 0
267 1 3 31.1018 -102 0 0 0 0 0
268 1 3 31.1018 -99 0 0 0 0 0
269 1 3 31.1018 -96 0 0 0 0 0
270 1 3 31.1018 -93 0 0 0 0 0
271 1 3 31.1018 -90 0 0 0 0 0
272 1 3 31.1018 -87 0 0 0 0 0
273 1 3 31.1018 -84 0 0 0 0 0
274 1 3 31.1018 -81 0 0 0 0 0
275 1 3 31.1018 -78 0 0 0 0 0
276 1 3 31.1018 -75 0 0 0 0 0
277 1 3 31.1018 -72 0 0 0 0 0
278 1 3 31.1018 -69 0 0 0 0 0
279 1 3 31.1018 -66 0 0 0 0 0
280 1 3 31.1018 -63 0 0 0 0 0
281 1 3 31.1018 -60 0 0 0 0 0
282 1 3 31.1018 -57 0 0 0 0 0
283 1 3 31.1018 -54 0 0 0 0 0
284 1 3 31.1018 -51 0 0 0 0 0
285 1 3 31.1018 -48 0 0 0 0 0
286 1 3 31.1018 -45 0 0 0 0 0
287 1 3 31.1018 -42 0 0 0 0 0
288 1 3 31.1018 -39 0 0 0 0 0
289 1 3 31.1018 -36 0 0 0 0 0
290 1 3 31.1018 -33 0 0 0 0 0
291 1 3 31.1018 -30 0 0 0 0 0
292 1 3 31.1018 -27 0 0 0 0 0
293 1 3 31.1018 -24 0 0 0 0 0
294 1 3 31.1018 -21 0 0 0 0 0
295 1 3 31.1018 -18 0 0 0 0 0
296 1 3 31.1018 -15 0 0 0 0 0
297 1 3 31.1018 -12 0 0 0 0 0
298 1 3 31.1018 -9 0 0 0 0 0
299 1 3 31.1018 -6 0 0 0 0 0
300 1 3 31.1018 -3 0 0 0 0 0
653 2 3 31.1018 -448.50010136672978 1.41259e-19 2.59757462869007671 0.191446 0 -0.0117459
654 2 3 31.1018 -445.50010136672978 1.40305e-19 2.59757462853872623 0.190168 0 -0.0117022
655 2 3 31.1018 -442.50010136672978 1.3935e-19 2.59757462838737618 0.188889 0 -0.0116585
656 2 3 31.1018 -439.50010136672978 1.38396e-19 2.5975746282360257 0.18761 0 -0.0116147
657 2 3 31.1018 -436.50010136672978 1.37441e-19 2.59757462808467565 0.186331 0 -0.011571
658 2 3 31.1018 -433.500101366729723 1.36487e-19 2.59757462793332516 0.185052 0 -0.0115273
659 2 3 31.1018 -430.500101366729723 1.35533e-19 2.59757462778197512 0.183773 0 -0.0114835
660 2 3 31.1018 -427.500101366729723 1.34578e-19 2.59757462763062463 0.182495 0 -0.0114398
661 2 3 31.1018 -424.500101366729723 1.33624e-19 2.59757462747927459 0.181216 0 -0.0113961
662 2 3 31.1018 -421.500101366729723 1.32669e-19 2.5975746273279241 0.179937 0 -0.0113523
663 2 3 31.1018 -418.500101366729723 1.31715e-19 2.59757462717657406 0.178658 0 -0.0113086
664 2 3 31.1018 -415.500101366729723 1.3076e-19 2.59757462702522357 0.177379 0 -0.0112648
665 2 3 31.1018 -412.500101366729723 1.29806e-19 2.59757462687387353 0.1761 0 -0.0112211
666 2 3 31.1018 -409.500101366729666 1.28851e-19 2.59757462672252304 0.174822 0 -0.0111774
667 2 3 31.1018 -406.500101366729666 1.27897e-19 2.597574626571173 0.173543 0 -0.0111337
668 2 3 31.1018 -403.500101366729666 1.26942e-19 2.59757462641982251 0.172264 0 -0.0110899
669 2 3 31.1018 -400.500101366729666 1.25988e-19 2.59757462626847246 0.170985 0 -0.0110462
670 2 3 31.1018 -397.500101366729666 1.25034e-19 2.59757462611712198 0.169706 0 -0.0110024
671 2 3 31.1018 -394.500101366729666 1.24079e-19 2.59757462596577193 0.168427 0 -0.0109587
672 2 3 31.1018 -391.500101366729666 1.23125e-19 2.59757462581442145 0.167149 0 -0.010915
673 2 3 31.1018 -388.500101366729666 1.2217e-19 2.5975746256630714 0.165869 0 -0.0108709
674 2 3 31.1018 -385.500101366729609 1.21216e-19 2.59757462551172091 0.16459 0 -0.0108268
675 2 3 31.1018 -382.500101366729609 1.20261e-19 2.59757462536037087 0.16331 0 -0.0107828
676 2 3 31.1018 -379.500101366729609 1.19307e-19 2.59757462520902038 0.162031 0 -0.0107387
677 2 3 31.1018 -376.500101366729609 1.18352e-19 2.59757462505767034 0.160751 0 -0.0106947
678 2 3 31.1018 -373.500101366729609 1.17398e-19 2.59757462490631985 0.159472 0 -0.0106506
679 2 3 31.1018 -370.500101366729609 1.16443e-19 2.59757462475496981 0.158193 0 -0.0106065
680 2 3 31.1018 -367.500101366729609 1.15489e-19 2.59757462460361932 0.156913 0 -0.0105625
681 2 3 31.1018 -364.500101366729552 1.14535e-19 2.59757462445226928 0.155634 0 -0.0105184
682 2 3 31.1018 -361.500101366729552 1.1358e-19 2.59757462430091879 0.154354 0 -0.0104744
683 2 3 31.1018 -358.500101366729552 1.12626e-19 2.59757462414956874 0.153075 0 -0.0104303
684 2 3 31.1018 -355.500101366729552 1.11671e-19 2.59757462399821826 0.151796 0 -0.0103863
685 2 3 31.1018 -352.500101366729552 1.10717e-19 2.59757462384686821 0.150516 0 -0.0103422
686 2 3 31.1018 -349.500101366729552 1.09762e-19 2.59757462369551773 0.149237 0 -0.0102981
687 2 3 31.1018 -346.500101366729552 1.08808e-19 2.59757462354416768 0.147957 0 -0.0102541
688 2 3 31.1018 -343.500101366729552 1.07853e-19 2.59757462339281719 0.146678 0 -0.01021
689 2 3 31.1018 -340.500101366729496 1.06899e-19 2.59757462324146715 0.145399 0 -0.010166
690 2 3 31.1018 -337.500101366729496 1.05944e-19 2.59757462309011666 0.144119 0 -0.0101219
691 2 3 31.1018 -334.500101366729496 1.0499e-19 2.59757462293876662 0.14284 0 -0.0100779
692 2 3 31.1018 -331.500101366729496 1.04036e-19 2.59757462278741613 0.14156 0 -0.0100338
693 2 3 31.1018 -328.500101366729496 1.03081e-19 2.59757462263606609 0.140281 0 -0.00998974
694 2 3 31.1018 -325.500101366729496 1.02127e-19 2.5975746224847156 0.139002 0 -0.00994568
695 2 3 31.1018 -322.500101366729496 1.01172e-19 2.59757462233336556 0.137722 0 -0.00990163
696 2 3 31.1018 -319.500101366729496 1.00218e-19 2.59757462218201507 0.136443 0 -0.00985757
697 2 3 31.1018 -316.500101366729439 9.92632e-20 2.59757462203066503 0.135163 0 -0.00981352
698 2 3 31.1018 -313.500101366729439 9.83088e-20 2.59757462187931454 0.133884 0 -0.00976946
699 2 3 31.1018 -310.500101366729439 9.73543e-20 2.59757462172796449 0.132605 0 -0.0097254
700 2 3 31.1018 -307.500101366729439 9.63999e-20 2.59757462157661401 0.131325 0 -0.00968135
701 2 3 31.1018 -304.500101366729439 9.54454e-20 2.59757462142526396 0.130046 0 -0.00963729
702 2 3 31.1018 -301.500101366729439 9.4491e-20 2.59757462127391348 0.128766 0 -0.00959323
703 2 3 31.1018 -298.500101366729439 9.35365e-20 2.59757462112256343 0.127487 0 -0.00954918
704 2 3 31.1018 -295.500101366729439 9.25821e-20 2.59757462097121294 0.126207 0 -0.00950512
705 2 3 31.1018 -292.500101366729382 9.16276e-20 2.5975746208198629 0.124928 0 -0.00946107
706 2 3 31.1018 -289.500101366729382 9.06732e-20 2.59757462066851241 0.123649 0 -0.00941701
707 2 3 31.1018 -286.500101366729382 8.97187e-20 2.59757462051716237 0.122369 0 -0.00937296
708 2 3 31.1018 -283.500101366729382 8.87642e-20 2.59757462036581188 0.12109 0 -0.0093289
709 2 3 31.1018 -280.500101366729382 8.78098e-20 2.59757462021446184 0.11981 0 -0.00928485
710 2 3 31.1018 -277.500101366729382 8.68553e-20 2.59757462006311135 0.118531 0 -0.00924079
711 2 3 31.1018 -274.500101366729382 8.59009e-20 2.59757461991176131 0.117252 0 -0.00919673
712 2 3 31.1018 -271.500101366729325 8.49464e-20 2.59757461976041082 0.115972 0 -0.00915268
713 2 3 31.1018 -268.500101366729325 8.3992e-20 2.59757461960906078 0.114693 0 -0.00910863
714 2 3 31.1018 -265.500101366729325 8.30375e-20 2.59757461945771029 0.113413 0 -0.00906457
715 2 3 31.1018 -262.500101366729325 8.20831e-20 2.59757461930636024 0.112134 0 -0.00902051
716 2 3 31.1018 -259.500101366729325 8.11286e-20 2.59757461915500976 0.110854 0 -0.00897646
717 2 3 31.1018 -256.500101366729325 8.01742e-20 2.59757461900365971 0.109575 0 -0.0089324
718 2 3 31.1018 -253.500101366729325 7.92197e-20 2.59757461885230923 0.108296 0 -0.00888835
719 2 3 31.1018 -250.500101366729325 7.82653e-20 2.59757461870095918 0.107016 0 -0.00884429
720 2 3 31.1018 -247.500101366729325 7.73108e-20 2.59757461854960869 0.105737 0 -0.00880024
721 2 3 31.1018 -244.500101366729325 7.63563e-20 2.59757461839825865 0.104457 0 -0.00875618
722 2 3 31.1018 -241.500101366729297 7.54019e-20 2.59757461824690816 0.103178 0 -0.00871213
723 2 3 31.1018 -238.500101366729297 7.44474e-20 2.59757461809555812 0.101899 0 -0.00866808
724 2 3 31.1018 -235.500101366729297 7.3493e-20 2.59757461794420763 0.100619 0 -0.00862402
725 2 3 31.1018 -232.500101366729297 7.25385e-20 2.59757461779285759 0.0993397 0 -0.00857996
726 2 3 31.1018 -229.500101366729268 7.15841e-20 2.5975746176415071 0.0980602 0 -0.00853591
727 2 3 31.1018 -226.500101366729268 7.06296e-20 2.59757461749015706 0.0967808 0 -0.00849186
728 2 3 31.1018 -223.500101366729268 6.96752e-20 2.59757461733880657 0.0955014 0 -0.0084478
729 2 3 31.1018 -220.500101366729268 6.87207e-20 2.59757461718745652 0.094222 0 -0.00840375
730 2 3 31.1018 -217.50010136672924 6.77663e-20 2.59757461703610604 0.0929425 0 -0.0083597
731 2 3 31.1018 -214.50010136672924 6.68118e-20 2.59757461688475599 0.0916631 0 -0.00831564
732 2 3 31.1018 -211.50010136672924 6.58573e-20 2.59757461673340551 0.0903837 0 -0.00827159
733 2 3 31.1018 -208.50010136672924 6.49029e-20 2.59757461658205546 0.0891043 0 -0.00822754
734 2 3 31.1018 -205.500101366729211 6.39484e-20 2.59757461643070497 0.0878248 0 -0.00818348
735 2 3 31.1018 -202.500101366729211 6.2994e-20 2.59757461627935493 0.0865454 0 -0.00813943
736 2 3 31.1018 -199.500101366729211 6.20395e-20 2.59757461612800444 0.085266 0 -0.00809537
737 2 3 31.1018 -196.500101366729211 6.10851e-20 2.5975746159766544 0.0839866 0 -0.00805132
738 2 3 31.1018 -193.500101366729183 6.01306e-20 2.59757461582530391 0.0827071 0 -0.00800727
739 2 3 31.1018 -190.500101366729183 5.91762e-20 2.59757461567395387 0.0814277 0 -0.00796322
740 2 3 31.1018 -187.500101366729183 5.82217e-20 2.59757461552260338 0.0801483 0 -0.00791916
741 2 3 31.1018 -184.500101366729155 5.72673e-20 2.59757461537125334 0.0788688 0 -0.00787511
742 2 3 31.1018 -181.500101366729155 5.63128e-20 2.59757461521990285 0.0775894 0 -0.00783106
743 2 3 31.1018 -178.500101366729155 5.53583e-20 2.59757461506855281 0.07631 0 -0.007787
744 2 3 31.1018 -175.500101366729155 5.44039e-20 2.59757461491720232 0.0750305 0 -0.00774295
745 2 3 31.1018 -172.500101366729126 5.34494e-20 2.59757461476585227 0.0737511 0 -0.0076989
746 2 3 31.1018 -169.500101366729126 5.2495e-20 2.59757461461450179 0.0724717 0 -0.00765485
747 2 3 31.1018 -166.500101366729126 5.15405e-20 2.59757461446315174 0.0711922 0 -0.0076108
748 2 3 31.1018 -163.500101366729126 5.05861e-20 2.59757461431180126 0.0699128 0 -0.00756674
749 2 3 31.1018 -160.500101366729098 4.96316e-20 2.59757461416045121 0.0686334 0 -0.00752269
750 2 3 31.1018 -157.500101366729098 4.86772e-20 2.59757461400910072 0.0673539 0 -0.00747864
751 2 3 31.1018 -154.500101366729098 4.77227e-20 2.59757461385775068 0.0660745 0 -0.00743459
752 2 3 31.1018 -151.500101366729098 4.67683e-20 2.59757461370640019 0.0647951 0 -0.00739053
753 2 3 31.1018 -148.500101366729069 4.58138e-20 2.59757461355505015 0.0635156 0 -0.00734648
754 2 3 31.1018 -145.500101366729069 4.48594e-20 2.59757461340369966 0.0622362 0 -0.00730243
755 2 3 31.1018 -142.500101366729069 4.39049e-20 2.59757461325234962 0.0609568 0 -0.00725838
756 2 3 31.1018 -139.500101366729069 4.29504e-20 2.59757461310099913 0.0596773 0 -0.00721433
757 2 3 31.1018 -136.500101366729041 4.1996e-20 2.59757461294964909 0.0583979 0 -0.00717028
758 2 3 31.1018 -133.500101366729041 4.10415e-20 2.5975746127982986 0.0571184 0 -0.00712622
759 2 3 31.1018 -130.500101366729041 4.00871e-20 2.59757461264694856 0.055839 0 -0.00708217
760 2 3 31.1018 -127.500101366729027 3.91326e-20 2.59757461249559807 0.0545596 0 -0.00703812
761 2 3 31.1018 -124.500101366729027 3.81782e-20 2.59757461234424802 0.0532801 0 -0.00699407
762 2 3 31.1018 -121.500101366729012 3.72237e-20 2.59757461219289754 0.0520007 0 -0.00695002
763 2 3 31.1018 -118.500101366729012 3.62693e-20 2.59757461204154749 0.0507212 0 -0.00690597
764 2 3 31.1018 -115.500101366728998 3.53148e-20 2.597574611890197 0.0494418 0 -0.00686192
765 2 3 31.1018 -112.500101366728998 3.43604e-20 2.59757461173884696 0.0481624 0 -0.00681787
766 2 3 31.1018 -109.500101366728984 3.34059e-20 2.59757461158749647 0.0468829 0 -0.00677382
767 2 3 31.1018 -106.500101366728984 3.24514e-20 2.59757461143614643 0.0456035 0 -0.00672977
768 2 3 31.1018 -103.50010136672897 3.1497e-20 2.59757461128479594 0.044324 0 -0.00668571
769 2 3 31.1018 -100.50010136672897 3.05425e-20 2.5975746111334459 0.0430446 0 -0.00664166
770 2 3 31.1018 -97.5001013667289556 2.95881e-20 2.59757461098209541 0.0417652 0 -0.00659761
771 2 3 31.1018 -94.5001013667289413 2.86336e-20 2.59757461083074537 0.0404857 0 -0.00655357
772 2 3 31.1018 -91.5001013667289413 2.76792e-20 2.59757461067939488 0.0392063 0 -0.00650951
773 2 3 31.1018 -88.5001013667289271 2.67247e-20 2.59757461052804484 0.0379268 0 -0.00646546
774 2 3 31.1018 -85.5001013667289271 2.57703e-20 2.59757461037669435 0.0366474 0 -0.00642141
775 2 3 31.1018 -82.5001013667289129 2.48158e-20 2.5975746102253443 0.0353679 0 -0.00637736
776 2 3 31.1018 -79.5001013667289129 2.38614e-20 2.59757461007399382 0.0340885 0 -0.00633331
777 2 3 31.1018 -76.5001013667288987 2.29069e-20 2.59757460992264377 0.032809 0 -0.00628926
778 2 3 31.1018 -73.5001013667288987 2.19524e-20 2.59757460977129329 0.0315296 0 -0.00624521
779 2 3 31.1018 -70.5001013667288845 2.0998e-20 2.59757460961994324 0.0302501 0 -0.00620116
780 2 3 31.1018 -67.5001013667288703 2.00435e-20 2.59757460946859275 0.0289707 0 -0.00615712
781 2 3 31.1018 -64.5001013667288703 1.90891e-20 2.59757460931724271 0.0276912 0 -0.00611307
782 2 3 31.1018 -61.5001013667288632 1.81346e-20 2.59757460916589222 0.0264118 0 -0.00606902
783 2 3 31.1018 -58.5001013667288561 1.71802e-20 2.59757460901454218 0.0251324 0 -0.00602497
784 2 3 31.1018 -55.500101366728849 1.62257e-20 2.59757460886319169 0.0238529 0 -0.00598092
785 2 3 31.1018 -52.5001013667288419 1.52713e-20 2.59757460871184165 0.0225735 0 -0.00593687
786 2 3 31.1018 -49.5001013667288277 1.43168e-20 2.59757460856049116 0.021294 0 -0.00589282
787 2 3 31.1018 -46.5001013667288206 1.33624e-20 2.59757460840914112 0.0200145 0 -0.00584877
788 2 3 31.1018 -43.5001013667288134 1.24079e-20 2.59757460825779063 0.0187351 0 -0.00580472
789 2 3 31.1018 -40.5001013667288063 1.14535e-20 2.59757460810644059 0.0174556 0 -0.00576067
790 2 3 31.1018 -37.5001013667287992 1.0499e-20 2.5975746079550901 0.0161761 0 -0.00571657
791 2 3 31.1018 -34.5001013667287921 9.54454e-21 2.59757460780374005 0.0148961 0 -0.0056722
792 2 3 31.1018 -31.5001013667287886 8.59009e-21 2.59757460765238957 0.0136161 0 -0.00562782
793 2 3 31.1018 -28.5001013667287815 7.63563e-21 2.59757460750103952 0.0123361 0 -0.00558345
794 2 3 31.1018 -25.5001013667287708 6.68118e-21 2.59757460734968904 0.011056 0 -0.00553908
795 2 3 31.1018 -22.5001013667287637 5.72673e-21 2.59757460719833899 0.00977603 0 -0.0054947
796 2 3 31.1018 -19.5001013667287566 4.77227e-21 2.5975746070469885 0.00849601 0 -0.00545033
797 2 3 31.1018 -16.5001013667287495 3.81782e-21 2.59757460689563846 0.007216 0 -0.00540596
798 2 3 31.1018 -13.5001013667287424 2.86336e-21 2.59757460674428797 0.00593598 0 -0.00536158
799 2 3 31.1018 -10.5001013667287353 1.90891e-21 2.59757460659293793 0.00465596 0 -0.00531721
800 2 3 31.1018 -7.50010136672872818 9.54454e-22 2.59757460644158744 0.00337594 0 -0.00527284
801 2 3 31.1018 -4.50010136672872108 8.12394e-36 2.5975746062902374 0.00209593 0 -0.00522847
802 2 3 31.1018 -1.50010136672871397 -9.54454e-22 2.59757460613888735 0.000815907 0 -0.00518409
301 1 3 31.1018 0 0 0 0 0 0
302 1 3 31.1018 3 0 0 0 0 0
303 1 3 31.1018 6 0 0 0 0 0
304 1 3 31.1018 9 0 0 0 0 0
305 1 3 31.1018 12 0 0 0 0 0
306 1 3 31.1018 15 0 0 0 0 0
307 1 3 31.1018 18 0 0 0 0 0
308 1 3 31.1018 21 0 0 0 0 0
309 1 3 31.1018 24 0 0 0 0 0
310 1 3 31.1018 27 0 0 0 0 0
311 1 3 31.1018 30 0 0 0 0 0
312 1 3 31.1018 33 0 0 0 0 0
313 1 3 31.1018 36 0 0 0 0 0
314 1 3 31.1018 39 0 0 0 0 0
315 1 3 31.1018 42 0 0 0 0 0
316 1 3 31.1018 45 0 0 0 0 0
317 1 3 31.1018 48 0 0 0 0 0
318 1 3 31.1018 51 0 0 0 0 0
319 1 3 31.1018 54 0 0 0 0 0
320 1 3 31.1018 57 0 0 0 0 0
321 1 3 31.1018 60 0 0 0 0 0
322 1 3 31.1018 63 0 0 0 0 0
323 1 3 31.1018 66 0 0 0 0 0
324 1 3 31.1018 69 0 0 0 0 0
325 1 3 31.1018 72 0 0 0 0 0
326 1 3 31.1018 75 0 0 0 0 0
327 1 3 31.1018 78 0 0 0 0 0
328 1 3 31.1018 81 0 0 0 0 0
329 1 3 31.1018 84 0 0 0 0 0
330 1 3 31.1018 87 0 0 0 0 0
331 1 3 31.1018 90 0 0 0 0 0
332 1 3 31.1018 93 0 0 0 0 0
333 1 3 31.1018 96 0 0 0 0 0
334 1 3 31.1018 99 0 0 0 0 0
335 1 3 31.1018 102 0 0 0 0 0
336 1 3 31.1018 105 0 0 0 0 0
337 1 3 31.1018 108 0 0 0 0 0
338 1 3 31.1018 111 0 0 0 0 0
339 1 3 31.1018 114 0 0 0 0 0
340 1 3 31.1018 117 0 0 0 0 0
341 1 3 31.1018 120 0 0 0 0 0
342 1 3 31.1018 123 0 0 0 0 0
343 1 3 31.1018 126 0 0 0 0 0
344 1 3 31.1018 129 0 0 0 0 0
345 1 3 31.1018 132 0 0 0 0 0
346 1 3 31.1018 135 0 0 0 0 0
347 1 3 31.1018 138 0 0 0 0 0
348 1 3 31.1018 141 0 0 0 0 0
349 1 3 31.1018 144 0 0 0 0 0
350 1 3 31.1018 147 0 0 0 0 0
351 1 3 31.1018 150 0 0 0 0 0
352 1 3 31.1018 153 0 0 0 0 0
353 1 3 31.1018 156 0 0 0 0 0
354 1 3 31.1018 159 0 0 0 0 0
355 1 3 31.1018 162 0 0 0 0 0
356 1 3 31.1018 165 0 0 0 0 0
357 1 3 31.1018 168 0 0 0 0 0
358 1 3 31.1018 171 0 0 0 0 0
359 1 3 31.1018 174 0 0 0 0 0
360 1 3 31.1018 177 0 0 0 0 0
361 1 3 31.1018 180 0 0 0 0 0
362 1 3 31.1018 183 0 0 0 0 0
363 1 3 31.1018 186 0 0 0 0 0
364 1 3 31.1018 189 0 0 0 0 0
365 1 3 31.1018 192 0 0 0 0 0
366 1 3 31.1018 195 0 0 0 0 0
367 1 3 31.1018 198 0 0 0 0 0
368 1 3 31.1018 201 0 0 0 0 0
369 1 3 31.1018 204 0 0 0 0 0
370 1 3 31.1018 207 0 0 0 0 0
371 1 3 31.1018 210 0 0 0 0 0