ITEM: TIMESTEP
3900000
ITEM: NUMBER OF ATOMS
501
ITEM: BOX BOUNDS pp pp pp
-4.5000000000000000e+02 4.5000000000000000e+02
-1.0000000000000000e+02 1.0000000000000000e+02
-1.0000000000000000e+02 1.0000000000000000e+02
ITEM: ATOMS id type diameter mass xu yu zu fx fy fz
1 1 3 31.1018 -450 0 0 0 0 0
2 1 3 31.1018 -447 0 0 0 0 0
3 1 3 31.1018 -444 0 0 0 0 0
4 1 3 31.1018 -441 0 0 0 0 0
5 1 3 31.1018 -438 0 0 0 0 0
6 1 3 31.1018 -435 0 0 0 0 0
7 1 3 31.1018 -432 0 0 0 0 0
8 1 3 31.1018 -429 0 0 0 0 0
9 1 3 31.1018 -426 0 0 0 0 0
10 1 3 31.1018 -423 0 0 0 0 0
11 1 3 31.1018 -420 0 0 0 0 0
12 1 3 31.1018 -417 0 0 0 0 0
13 1 3 31.1018 -414 0 0 0 0 0
14 1 3 31.1018 -411 0 0 0 0 0
15 1 3 31.1018 -408 0 0 0 0 0
16 1 3 31.1018 -405 0 0 0 0 0
17 1 3 31.1018 -402 0 0 0 0 0
18 1 3 31.1018 -399 0 0 0 0 0
19 1 3 31.1018 -396 0 0 0 0 0
20 1 3 31.1018 -393 0 0 0 0 0
21 1 3 31.1018 -390 0 0 0 0 0
22 1 3 31.1018 -387 0 0 0 0 0
23 1 3 31.1018 -384 0 0 0 0 0
24 1 3 31.1018 -381 0 0 0 0 0
25 1 3 31.1018 -378 0 0 0 0 0
26 1 3 31.1018 -375 0 0 0 0 0
27 1 3 31.1018 -372 0 0 0 0 0
28 1 3 31.1018 -369 0 0 0 0 0
29 1 3 31.1018 -366 0 0 0 0 0
30 1 3 31.1018 -363 0 0 0 0 0
31 1 3 31.1018 -360 0 0 0 0 0
32 1 3 31.1018 -357 0 0 0 0 0
33 1 3 31.1018 -354 0 0 0 0 0
34 1 3 31.1018 -351 0 0 0 0 0
35 1 3 31.1018 -348 0 0 0 0 0
36 1 3 31.1018 -345 0 0 0 0 0
37 1 3 31.1018 -342 0 0 0 0 0
38 1 3 31.1018 -339 0 0 0 0 0
39 1 3 31.1018 -336 0 0 0 0 0
40 1 3 31.1018 -333 0 0 0 0 0
41 1 3 31.1018 -330 0 0 0 0 0
42 1 3 31.1018 -327 0 0 0 0 0
43 1 3 31.1018 -324 0 0 0 0 0
44 1 3 31.1018 -321 0 0 0 0 0
45 1 3 31.1018 -318 0 0 0 0 0
46 1 3 31.1018 -315 0 0 0 0 0
47 1 3 31.1018 -312 0 0 0 0 0
48 1 3 31.1018 -309 0 0 0 0 0
49 1 3 31.1018 -306 0 0 0 0 0
50 1 3 31.1018 -303 0 0 0 0 0
51 1 3 31.1018 -300 0 0 0 0 0
52 1 3 31.1018 -297 0 0 0 0 0
53 1 3 31.1018 -294 0 0 0 0 0
54 1 3 31.1018 -291 0 0 0 0 0
55 1 3 31.1018 -288 0 0 0 0 0
56 1 3 31.1018 -285 0 0 0 0 0
57 1 3 31.1018 -282 0 0 0 0 0
58 1 3 31.1018 -279 0 0 0 0 0
59 1 3 31.1018 -276 0 0 0 0 0
60 1 3 31.1018 -273 0 0 0 0 0
61 1 3 31.1018 -270 0 0 0 0 0
62 1 3 31.1018 -267 0 0 0 0 0
63 1 3 31.1018 -264 0 0 0 0 0
64 1 3 31.1018 -261 0 0 0 0 0
65 1 3 31.1018 -258 0 0 0 0 0
66 1 3 31.1018 -255 0 0 0 0 0
67 1 3 31.1018 -252 0 0 0 0 0
68 1 3 31.1018 -249 0 0 0 0 0
69 1 3 31.1018 -246 0 0 0 0 0
70 1 3 31.1018 -243 0 0 0 0 0
71 1 3 31.1018 -240 0 0 0 0 0
72 1 3 31.1018 -237 0 0 0 0 0
73 1 3 31.1018 -234 0 0 0 0 0
74 1 3 31.1018 -231 0 0 0 0 0
75 1 3 31.1018 -228 0 0 0 0 0
301 2 3 31.1018 -304.500101383282015 -1.66522e-14 2.59757464422931061 0.29896 0 -0.0940276
302 2 3 31.1018 -301.50010138328156 -1.64856e-14 2.59757464369545055 0.301226 0 -0.08987
303 2 3 31.1018 -298.500101383281049 -1.63191e-14 2.59757464316159048 0.303492 0 -0.0857124
304 2 3 31.1018 -295.500101383280537 -1.61526e-14 2.59757464262773086 0.305756 0 -0.0815537
305 2 3 31.1018 -292.500101383280025 -1.59861e-14 2.59757464209387079 0.30802 0 -0.0773949
306 2 3 31.1018 -289.500101383279514 -1.58195e-14 2.59757464156001072 0.310283 0 -0.073236
307 2 3 31.1018 -286.500101383279002 -1.5653e-14 2.59757464102615065 0.312547 0 -0.0690771
308 2 3 31.1018 -283.500101383278491 -1.54865e-14 2.59757464049229103 0.314811 0 -0.0649182
309 2 3 31.1018 -280.500101383277979 -1.532e-14 2.59757463995843096 0.317074 0 -0.0607593
310 2 3 31.1018 -277.500101383277467 -1.51535e-14 2.5975746394245709 0.319338 0 -0.0566004
311 2 3 31.1018 -274.500101383276956 -1.49869e-14 2.59757463889071083 0.321602 0 -0.0524415
312 2 3 31.1018 -271.500101383276444 -1.48204e-14 2.59757463835685121 0.323865 0 -0.0482826
313 2 3 31.1018 -268.500101383275933 -1.46539e-14 2.59757463782299114 0.326129 0 -0.0441237
314 2 3 31.1018 -265.500101383275421 -1.44874e-14 2.59757463728913107 0.328393 0 -0.0399648
315 2 3 31.1018 -262.500101383274909 -1.43209e-14 2.597574636755271 0.330656 0 -0.0358059
316 2 3 31.1018 -259.500101383274398 -1.41543e-14 2.59757463622141138 0.33292 0 -0.031647
317 2 3 31.1018 -256.500101383273886 -1.39878e-14 2.59757463568755131 0.335184 0 -0.0274881
318 2 3 31.1018 -253.500101383273403 -1.38213e-14 2.59757463515369125 0.337447 0 -0.0233291
319 2 3 31.1018 -250.500101383272892 -1.36548e-14 2.59757463461983118 0.333111 0 -0.0229815
320 2 3 31.1018 -247.50010138327238 -1.34882e-14 2.59757463408597156 0.328507 0 -0.022789
321 2 3 31.1018 -244.500101383271868 -1.33217e-14 2.59757463355211149 0.323902 0 -0.0225964
322 2 3 31.1018 -241.500101383271357 -1.31552e-14 2.59757463301825142 0.319298 0 -0.0224039
323 2 3 31.1018 -238.500101383270874 -1.29887e-14 2.59757463248439135 0.314693 0 -0.0222114
324 2 3 31.1018 -235.500101383270362 -1.28222e-14 2.59757463195053173 0.310089 0 -0.0220188
325 2 3 31.1018 -232.50010138326985 -1.26556e-14 2.59757463141667166 0.305484 0 -0.0218263
326 2 3 31.1018 -229.500101383269339 -1.24891e-14 2.5975746308828116 0.30088 0 -0.0216338
327 2 3 31.1018 -226.500101383268827 -1.23226e-14 2.59757463034895153 0.296275 0 -0.0214413
76 1 3 31.1018 -225 0 0 0 0 0
77 1 3 31.1018 -222 0 0 0 0 0
78 1 3 31.1018 -219 0 0 0 0 0
79 1 3 31.1018 -216 0 0 0 0 0
80 1 3 31.1018 -213 0 0 0 0 0
81 1 3 31.1018 -210 0 0 0 0 0
82 1 3 31.1018 -207 0 0 0 0 0
83 1 3 31.1018 -204 0 0 0 0 0
84 1 3 31.1018 -201 0 0 0 0 0
85 1 3 31.1018 -198 0 0 0 0 0
86 1 3 31.1018 -195 0 0 0 0 0
87 1 3 31.1018 -192 0 0 0 0 0
88 1 3 31.1018 -189 0 0 0 0 0
89 1 3 31.1018 -186 0 0 0 0 0
90 1 3 31.1018 -183 0 0 0 0 0
91 1 3 31.1018 -180 0 0 0 0 0
92 1 3 31.1018 -177 0 0 0 0 0
93 1 3 31.1018 -174 0 0 0 0 0
94 1 3 31.1018 -171 0 0 0 0 0
95 1 3 31.1018 -168 0 0 0 0 0
96 1 3 31.1018 -165 0 0 0 0 0
97 1 3 31.1018 -162 0 0 0 0 0
98 1 3 31.1018 -159 0 0 0 0 0
99 1 3 31.1018 -156 0 0 0 0 0
100 1 3 31.1018 -153 0 0 0 0 0
101 1 3 31.1018 -150 0 0 0 0 0
102 1 3 31.1018 -147 0 0 0 0 0
103 1 3 31.1018 -144 0 0 0 0 0
104 1 3 31.1018 -141 0 0 0 0 0
105 1 3 31.1018 -138 0 0 0 0 0
106 1 3 31.1018 -135 0 0 0 0 0
107 1 3 31.1018 -132 0 0 0 0 0
108 1 3 31.1018 -129 0 0 0 0 0
109 1 3 31.1018 -126 0 0 0 0 0
110 1 3 31.1018 -123 0 0 0 0 0
111 1 3 31.1018 -120 0 0 0 0 0
112 1 3 31.1018 -117 0 0 0 0 0
113 1 3 31.1018 -114 0 0 0 0 0
114 1 3 31.1018 -111 0 0 0 0 0
115 1 3 31.1018 -108 0 0 0 0 0
116 1 3 31.1018 -105 0 0 0 0 0
117 1 3 31.1018 -102 0 0 0 0 0
118 1 3 31.1018 -99 0 0 0 0 0
119 1 3 31.1018 -96 0 0 0 0 0
120 1 3 31.1018 -93 0 0 0 0 0
121 1 3 31.1018 -90 0 0 0 0 0
122 1 3 31.1018 -87 0 0 0 0 0
123 1 3 31.1018 -84 0 0 0 0 0
124 1 3 31.1018 -81 0 0 0 0 0
125 1 3 31.1018 -78 0 0 0 0 0
126 1 3 31.1018 -75 0 0 0 0 0
127 1 3 31.1018 -72 0 0 0 0 0
128 1 3 31.1018 -69 0 0 0 0 0
129 1 3 31.1018 -66 0 0 0 0 0
130 1 3 31.1018 -63 0 0 0 0 0
131 1 3 31.1018 -60 0 0 0 0 0
132 1 3 31.1018 -57 0 0 0 0 0
133 1 3 31.1018 -54 0 0 0 0 0
134 1 3 31.1018 -51 0 0 0 0 0
135 1 3 31.1018 -48 0 0 0 0 0
136 1 3 31.1018 -45 0 0 0 0 0
137 1 3 31.1018 -42 0 0 0 0 0
138 1 3 31.1018 -39 0 0 0 0 0
139 1 3 31.1018 -36 0 0 0 0 0
140 1 3 31.1018 -33 0 0 0 0 0
141 1 3 31.1018 -30 0 0 0 0 0
142 1 3 31.1018 -27 0 0 0 0 0
143 1 3 31.1018 -24 0 0 0 0 0
144 1 3 31.1018 -21 0 0 0 0 0
145 1 3 31.1018 -18 0 0 0 0 0
146 1 3 31.1018 -15 0 0 0 0 0
147 1 3 31.1018 -12 0 0 0 0 0
148 1 3 31.1018 -9 0 0 0 0 0
149 1 3 31.1018 -6 0 0 0 0 0
150 1 3 31.1018 -3 0 0 0 0 0
328 2 3 31.1018 -223.500101383268316 -1.21561e-14 2.59757462981509191 0.29167 0 -0.0212487
329 2 3 31.1018 -220.500101383267804 -1.19896e-14 2.59757462928123184 0.287066 0 -0.0210562
330 2 3 31.1018 -217.500101383267292 -1.1823e-14 2.59757462874737177 0.282461 0 -0.0208637
331 2 3 31.1018 -214.500101383266781 -1.16565e-14 2.5975746282135117 0.279779 0 -0.0195608
332 2 3 31.1018 -211.500101383266269 -1.149e-14 2.59757462767965208 0.282252 0 -0.0152814
333 2 3 31.1018 -208.500101383265758 -1.13235e-14 2.59757462714579201 0.284723 0 -0.0110015
334 2 3 31.1018 -205.500101383265246 -1.11569e-14 2.59757462661193195 0.287193 0 -0.00672088
335 2 3 31.1018 -202.500101383264735 -1.09904e-14 2.59757462607807188 0.289663 0 -0.00244022
336 2 3 31.1018 -199.500101383264223 -1.08239e-14 2.59757462554421226 0.292133 0 0.00184045
337 2 3 31.1018 -196.500101383263711 -1.06574e-14 2.59757462501035219 0.294602 0 0.00612112
338 2 3 31.1018 -193.500101383263228 -1.04909e-14 2.59757462447649212 0.297072 0 0.0104018
339 2 3 31.1018 -190.500101383262717 -1.03243e-14 2.59757462394263205 0.297977 0 0.0137787
340 2 3 31.1018 -187.500101383262205 -1.01578e-14 2.59757462340877243 0.293144 0 0.0138416
341 2 3 31.1018 -184.500101383261693 -9.99129e-15 2.59757462287491236 0.28831 0 0.0139045
342 2 3 31.1018 -181.500101383261182 -9.82477e-15 2.5975746223410523 0.283477 0 0.0139674
343 2 3 31.1018 -178.50010138326067 -9.65825e-15 2.59757462180719223 0.278643 0 0.0140303
344 2 3 31.1018 -175.500101383260159 -9.49173e-15 2.59757462127333261 0.273809 0 0.0140932
345 2 3 31.1018 -172.500101383259647 -9.32521e-15 2.59757462073947254 0.268976 0 0.0141561
346 2 3 31.1018 -169.500101383259135 -9.15869e-15 2.59757462020561247 0.264142 0 0.014219
347 2 3 31.1018 -166.500101383258624 -8.99217e-15 2.59757461967175241 0.259309 0 0.0142819
348 2 3 31.1018 -163.500101383258112 -8.82564e-15 2.59757461913789278 0.254475 0 0.0143448
349 2 3 31.1018 -160.500101383257601 -8.65912e-15 2.59757461860403271 0.249642 0 0.0144077
350 2 3 31.1018 -157.500101383257089 -8.4926e-15 2.59757461807017265 0.244808 0 0.0144706
351 2 3 31.1018 -154.500101383256577 -8.32608e-15 2.59757461753631258 0.239974 0 0.0145335
352 2 3 31.1018 -151.500101383256094 -8.15956e-15 2.59757461700245296 0.235141 0 0.0145964
353 2 3 31.1018 -148.500101383255583 -7.99304e-15 2.59757461646859289 0.230307 0 0.0146593
354 2 3 31.1018 -145.500101383255071 -7.82651e-15 2.59757461593473282 0.225473 0 0.0147222
355 2 3 31.1018 -142.50010138325456 -7.65999e-15 2.59757461540087276 0.22064 0 0.0147851
356 2 3 31.1018 -139.500101383254048 -7.49347e-15 2.59757461486701313 0.215806 0 0.014848
357 2 3 31.1018 -136.500101383253536 -7.32695e-15 2.59757461433315306 0.210972 0 0.0149109
358 2 3 31.1018 -133.500101383253025 -7.16043e-15 2.597574613799293 0.206139 0 0.0149738
359 2 3 31.1018 -130.500101383252513 -6.99391e-15 2.59757461326543293 0.201305 0 0.0150366
360 2 3 31.1018 -127.500101383252002 -6.82738e-15 2.59757461273157331 0.196471 0 0.0150995
361 2 3 31.1018 -124.50010138325149 -6.66086e-15 2.59757461219771324 0.191638 0 0.0151624
362 2 3 31.1018 -121.500101383250993 -6.49434e-15 2.59757461166385317 0.186804 0 0.0152253
363 2 3 31.1018 -118.500101383250481 -6.32782e-15 2.59757461112999311 0.181968 0 0.0152893
364 2 3 31.1018 -115.500101383249969 -6.1613e-15 2.59757461059613348 0.177133 0 0.0153535
365 2 3 31.1018 -112.500101383249458 -5.99478e-15 2.59757461006227341 0.172297 0 0.0154177
366 2 3 31.1018 -109.500101383248946 -5.82826e-15 2.59757460952841335 0.167461 0 0.0154819
367 2 3 31.1018 -106.500101383248435 -5.66173e-15 2.59757460899455328 0.162625 0 0.015546
368 2 3 31.1018 -103.500101383247923 -5.49521e-15 2.59757460846069366 0.157789 0 0.0156102
369 2 3 31.1018 -100.500101383247411 -5.32869e-15 2.59757460792683359 0.152953 0 0.0156744
370 2 3 31.1018 -97.5001013832469141 -5.16217e-15 2.59757460739297352 0.148117 0 0.0157385
371 2 3 31.1018 -94.5001013832464025 -4.99565e-15 2.59757460685911346 0.143281 0 0.0158027
372 2 3 31.1018 -91.5001013832458909 -4.82913e-15 2.59757460632525383 0.138445 0 0.0158669
373 2 3 31.1018 -88.5001013832453793 -4.6626e-15 2.59757460579139376 0.133609 0 0.015931
374 2 3 31.1018 -85.5001013832448677 -4.49608e-15 2.5975746052575337 0.128773 0 0.0159952
375 2 3 31.1018 -82.5001013832443562 -4.32956e-15 2.59757460472367363 0.123937 0 0.0160594
376 2 3 31.1018 -79.5001013832438446 -4.16304e-15 2.59757460418981401 0.119101 0 0.0161235
377 2 3 31.1018 -76.5001013832433472 -3.99652e-15 2.59757460365595394 0.114265 0 0.0161877
378 2 3 31.1018 -73.5001013832428356 -3.83e-15 2.59757460312209387 0.109429 0 0.0162519
379 2 3 31.1018 -70.500101383242324 -3.66347e-15 2.59757460258823381 0.104593 0 0.016316
380 2 3 31.1018 -67.5001013832418124 -3.49695e-15 2.59757460205437418 0.0997568 0 0.0163802
381 2 3 31.1018 -64.5001013832413008 -3.33043e-15 2.59757460152051411 0.0949208 0 0.0164443
382 2 3 31.1018 -61.5001013832407892 -3.16391e-15 2.59757460098665405 0.0900847 0 0.0165085
383 2 3 31.1018 -58.5001013832402776 -2.99739e-15 2.59757460045279398 0.0852487 0 0.0165726
384 2 3 31.1018 -55.5001013832397661 -2.83087e-15 2.59757459991893436 0.0804127 0 0.0166368
385 2 3 31.1018 -52.5001013832392545 -2.66435e-15 2.59757459938507429 0.0755766 0 0.0167009
386 2 3 31.1018 -49.50010138323875 -2.49782e-15 2.59757459885121422 0.0707406 0 0.0167651
387 2 3 31.1018 -46.5001013832382384 -2.3313e-15 2.59757459831735416 0.0659045 0 0.0168293
388 2 3 31.1018 -43.5001013832377268 -2.16478e-15 2.59757459778349453 0.0610684 0 0.0168934
389 2 3 31.1018 -40.5001013832372223 -1.99826e-15 2.59757459724963446 0.0562323 0 0.0169575
390 2 3 31.1018 -37.5001013832367107 -1.83174e-15 2.5975745967157744 0.0513963 0 0.0170217
391 2 3 31.1018 -34.5001013832362062 -1.66522e-15 2.59757459618191433 0.0465602 0 0.0170858
392 2 3 31.1018 -31.5001013832356982 -1.49869e-15 2.59757459564805471 0.0417235 0 0.0171503
393 2 3 31.1018 -28.5001013832351866 -1.33217e-15 2.59757459511419464 0.0368851 0 0.0172158
394 2 3 31.1018 -25.5001013832346786 -1.16565e-15 2.59757459458033457 0.0320468 0 0.0172812
395 2 3 31.1018 -22.5001013832341705 -9.99129e-16 2.59757459404647451 0.0272085 0 0.0173466
396 2 3 31.1018 -19.5001013832336589 -8.32608e-16 2.59757459351261488 0.0223701 0 0.0174121
397 2 3 31.1018 -16.5001013832331473 -6.66086e-16 2.59757459297875481 0.017532 0 0.0174777
398 2 3 31.1018 -13.5001013832326393 -4.99565e-16 2.59757459244489475 0.0126943 0 0.0175435
399 2 3 31.1018 -10.5001013832321277 -3.33043e-16 2.59757459191103468 0.0078566 0 0.0176093
400 2 3 31.1018 -7.50010138323161968 -1.66522e-16 2.59757459137717506 0.00301888 0 0.0176751
401 2 3 31.1018 -4.50010138323110986 -1.47903e-31 2.59757459084331499 -0.00181884 0 0.0177409
402 2 3 31.1018 -1.50010138323060005 1.66522e-16 2.59757459030945492 -0.00665658 0 0.0178067
151 1 3 31.1018 0 0 0 0 0 0
152 1 3 31.1018 3 0 0 0 0 0
153 1 3 31.1018 6 0 0 0 0 0
154 1 3 31.1018 9 0 0 0 0 0
155 1 3 31.1018 12 0 0 0 0 0
156 1 3 31.1018 15 0 0 0 0 0
157 1 3 31.1018 18 0 0 0 0 0
158 1 3 31.1018 21 0 0 0 0 0
159 1 3 31.1018 24 0 0 0 0 0
160 1 3 31.1018 27 0 0 0 0 0
161 1 3 31.1018 30 0 0 0 0 0
162 1 3 31.1018 33 0 0 0 0 0
163 1 3 31.1018 36 0 0 0 0 0
164 1 3 31.1018 39 0 0 0 0 0
165 1 3 31.1018 42 0 0 0 0 0
166 1 3 31.1018 45 0 0 0 0 0
167 1 3 31.1018 48 0 0 0 0 0
168 1 3 31.1018 51 0 0 0 0 0
169 1 3 31.1018 54 0 0 0 0 0
170 1 3 31.1018 57 0 0 0 0 0
171 1 3 31.1018 60 0 0 0 0 0
172 1 3 31.1018 63 0 0 0 0 0
173 1 3 31.1018 66 0 0 0 0 0
174 1 3 31.1018 69 0 0 0 0 0
175 1 3 31.1018 72 0 0 0 0 0
176 1 3 31.1018 75 0 0 0 0 0
177 1 3 31.1018 78 0 0 0 0 0
178 1 3 31.1018 81 0 0 0 0 0
179 1 3 31.1018 84 0 0 0 0 0
180 1 3 31.1018 87 0 0 0 0 0
181 1 3 31.1018 90 0 0 0 0 0
182 1 3 31.1018 93 0 0 0 0 0
183 1 3 31.1018 96 0 0 0 0 0
184 1 3 31.1018 99 0 0 0 0 0
185 1 3 31.1018 102 0 0 0 0 0
186 1 3 31.1018 105 0 0 0 0 0
187 1 3 31.1018 108 0 0 0 0 0
188 1 3 31.1018 111 0 0 0 0 0
189 1 3 31.1018 114 0 0 0 0 0
190 1 3 31.1018 117 0 0 0 0 0
191 1 3 31.1018 120 0 0 0 0 0
192 1 3 31.1018 123 0 0 0 0 0
193 1 3 31.1018 126 0 0 0 0 0
194 1 3 31.1018 129 0 0 0 0 0
195 1 3 31.1018 132 0 0 0 0 0
196 1 3 31.1018 135 0 0 0 0 0
197 1 3 31.1018 138 0 0 0 0 0
198 1 3 31.1018 141 0 0 0 0 0
199 1 3 31.1018 144 0 0 0 0 0
200 1 3 31.1018 147 0 0 0 0 0
201 1 3 31.1018 150 0 0 0 0 0
202 1 3 31.1018 153 0 0 0 0 0
203 1 3 31.1018 156 0 0 0 0 0
204 1 3 31.1018 159 0 0 0 0 0
205 1 3 31.1018 162 0 0 0 0 0
206 1 3 31.1018 165 0 0 0 0 0
207 1 3 31.1018 168 0 0 0 0 0
208 1 3 31.1018 171 0 0 0 0 0
209 1 3 31.1018 174 0 0 0 0 0
210 1 3 31.1018 177 0 0 0 0 0
211 1 3 31.1018 180 0 0 0 0 0
212 1 3 31.1018 183 0 0 0 0 0
213 1 3 31.1018 186 0 0 0 0 0
214 1 3 31.1018 189 0 0 0 0 0
215 1 3 31.1018 192 0 0 0 0 0
216 1 3 31.1018 195 0 0 0 0 0
217 1 3 31.1018 198 0 0 0 0 0
218 1 3 31.1018 201 0 0 0 0 0
219 1 3 31.1018 204 0 0 0 0 0
220 1 3 31.1018 207 0 0 0 0 0
221 1 3 31.1018 210 0 0 0 0 0
222 1 3 31.1018 213 0 0 0 0 0
223 1 3 31.1018 216 0 0 0 0 0
224 1 3 31.1018 219 0 0 0 0 0
225 1 3 31.1018 222 0 0 0 0 0
403 2 3 31.1018 1.49989861676990976 3.33043e-16 2.5975745897755953 -0.0114943 0 0.0178725
404 2 3 31.1018 4.49989861677041869 4.99565e-16 2.59757458924173523 -0.0163321 0 0.0179383
405 2 3 31.1018 7.49989861677092851 6.66086e-16 2.59757458870787517 -0.0211698 0 0.0180041
406 2 3 31.1018 10.4998986167714357 8.32608e-16 2.5975745881740151 -0.0260076 0 0.0180699
407 2 3 31.1018 13.4998986167719472 9.99129e-16 2.59757458764015547 -0.0308453 0 0.0181357
408 2 3 31.1018 16.4998986167724553 1.16565e-15 2.59757458710629541 -0.0356831 0 0.0182015
409 2 3 31.1018 19.4998986167729669 1.33217e-15 2.59757458657243534 -0.0405209 0 0.0182673
410 2 3 31.1018 22.4998986167734749 1.49869e-15 2.59757458603857527 -0.0453586 0 0.0183331
411 2 3 31.1018 25.499898616773983 1.66522e-15 2.59757458550471565 -0.0501964 0 0.0183989
412 2 3 31.1018 28.4998986167744981 1.83174e-15 2.59757458497085558 -0.0550342 0 0.0184647
413 2 3 31.1018 31.4998986167750097 1.99826e-15 2.59757458443699552 -0.059872 0 0.0185305
414 2 3 31.1018 34.4998986167755177 2.16478e-15 2.59757458390313545 -0.0647098 0 0.0185962
415 2 3 31.1018 37.4998986167760293 2.3313e-15 2.59757458336927582 -0.0695476 0 0.018662
416 2 3 31.1018 40.4998986167765409 2.49782e-15 2.59757458283541576 -0.0743854 0 0.0187278
417 2 3 31.1018 43.4998986167770525 2.66435e-15 2.59757458230155569 -0.0792232 0 0.0187936
418 2 3 31.1018 46.499898616777557 2.83087e-15 2.59757458176769562 -0.0840611 0 0.0188594
419 2 3 31.1018 49.4998986167780686 2.99739e-15 2.597574581233836 -0.0888989 0 0.0189252
420 2 3 31.1018 52.4998986167785802 3.16391e-15 2.59757458069997593 -0.0937367 0 0.018991
421 2 3 31.1018 55.4998986167790846 3.33043e-15 2.59757458016611587 -0.0985746 0 0.0190567
422 2 3 31.1018 58.4998986167795962 3.49695e-15 2.5975745796322558 -0.103414 0 0.0191232
423 2 3 31.1018 61.4998986167801078 3.66347e-15 2.59757457909839617 -0.108254 0 0.0191903
424 2 3 31.1018 64.4998986167806123 3.83e-15 2.59757457856453611 -0.113094 0 0.0192574
425 2 3 31.1018 67.4998986167811239 3.99652e-15 2.59757457803067604 -0.117934 0 0.0193244
426 2 3 31.1018 70.4998986167816213 4.16304e-15 2.59757457749681597 -0.122774 0 0.0193915
427 2 3 31.1018 73.4998986167821329 4.32956e-15 2.59757457696295635 -0.127614 0 0.0194586
428 2 3 31.1018 76.4998986167826445 4.49608e-15 2.59757457642909628 -0.132454 0 0.0195256
429 2 3 31.1018 79.4998986167831561 4.6626e-15 2.59757457589523622 -0.137294 0 0.0195927
430 2 3 31.1018 82.4998986167836676 4.82913e-15 2.59757457536137615 -0.14158 0 0.0193396
431 2 3 31.1018 85.4998986167841792 4.99565e-15 2.59757457482751652 -0.145158 0 0.018678
432 2 3 31.1018 88.4998986167846908 5.16217e-15 2.59757457429365646 -0.148736 0 0.0180163
433 2 3 31.1018 91.4998986167852024 5.32869e-15 2.59757457375979639 -0.152315 0 0.0173547
434 2 3 31.1018 94.4998986167856998 5.49521e-15 2.59757457322593632 -0.155889 0 0.0166911
435 2 3 31.1018 97.4998986167862114 5.66173e-15 2.5975745726920767 -0.159464 0 0.0160274
436 2 3 31.1018 100.499898616786723 5.82826e-15 2.59757457215821663 -0.163039 0 0.0153638
437 2 3 31.1018 103.499898616787235 5.99478e-15 2.59757457162435657 -0.166613 0 0.0147001
438 2 3 31.1018 106.499898616787746 6.1613e-15 2.5975745710904965 -0.170188 0 0.0140364
439 2 3 31.1018 109.499898616788258 6.32782e-15 2.59757457055663687 -0.173763 0 0.0133728
440 2 3 31.1018 112.499898616788769 6.49434e-15 2.59757457002277681 -0.177337 0 0.0127091
441 2 3 31.1018 115.499898616789267 6.66086e-15 2.59757456948891674 -0.180912 0 0.0120454
442 2 3 31.1018 118.499898616789778 6.82738e-15 2.59757456895505667 -0.184487 0 0.0113817
443 2 3 31.1018 121.49989861679029 6.99391e-15 2.59757456842119705 -0.188061 0 0.0107181
444 2 3 31.1018 124.499898616790801 7.16043e-15 2.59757456788733698 -0.191636 0 0.0100544
445 2 3 31.1018 127.499898616791313 7.32695e-15 2.59757456735347692 -0.195211 0 0.0093907
446 2 3 31.1018 130.499898616791825 7.49347e-15 2.59757456681961685 -0.198786 0 0.00872701
447 2 3 31.1018 133.499898616792336 7.65999e-15 2.59757456628575722 -0.20236 0 0.00806333
448 2 3 31.1018 136.499898616792848 7.82651e-15 2.59757456575189716 -0.205935 0 0.00739964
449 2 3 31.1018 139.499898616793359 7.99304e-15 2.59757456521803709 -0.20951 0 0.00673595
450 2 3 31.1018 142.499898616793871 8.15956e-15 2.59757456468417702 -0.213085 0 0.00607226
451 2 3 31.1018 145.499898616794354 8.32608e-15 2.5975745641503174 -0.216659 0 0.00540857
452 2 3 31.1018 148.499898616794866 8.4926e-15 2.59757456361645733 -0.220234 0 0.00474486
453 2 3 31.1018 151.499898616795377 8.65912e-15 2.59757456308259727 -0.223805 0 0.00407915
454 2 3 31.1018 154.499898616795889 8.82564e-15 2.5975745625487372 -0.227376 0 0.00341345
455 2 3 31.1018 157.499898616796401 8.99217e-15 2.59757456201487757 -0.230948 0 0.00274773
456 2 3 31.1018 160.499898616796912 9.15869e-15 2.59757456148101751 -0.234519 0 0.00208202
457 2 3 31.1018 163.499898616797424 9.32521e-15 2.59757456094715744 -0.23809 0 0.00141631
458 2 3 31.1018 166.499898616797935 9.49173e-15 2.59757456041329737 -0.241662 0 0.000750596
459 2 3 31.1018 169.499898616798447 9.65825e-15 2.59757455987943775 -0.245233 0 8.48778e-05
460 2 3 31.1018 172.499898616798959 9.82477e-15 2.59757455934557768 -0.248804 0 -0.000580841
461 2 3 31.1018 175.49989861679947 9.99129e-15 2.59757455881171762 -0.252375 0 -0.00124631
462 2 3 31.1018 178.499898616799982 1.01578e-14 2.59757455827785755 -0.255946 0 -0.00191163
463 2 3 31.1018 181.499898616800493 1.03243e-14 2.59757455774399793 -0.259516 0 -0.00257696
464 2 3 31.1018 184.499898616801005 1.04909e-14 2.59757455721013786 -0.263087 0 -0.00324228
465 2 3 31.1018 187.499898616801516 1.06574e-14 2.59757455667627779 -0.266658 0 -0.0039076
466 2 3 31.1018 190.499898616802 1.08239e-14 2.59757455614241772 -0.270228 0 -0.00457293
467 2 3 31.1018 193.499898616802511 1.09904e-14 2.5975745556085581 -0.273799 0 -0.00523826
468 2 3 31.1018 196.499898616803023 1.11569e-14 2.59757455507469803 -0.277369 0 -0.00590359
469 2 3 31.1018 199.499898616803534 1.13235e-14 2.59757455454083797 -0.28094 0 -0.00656892
470 2 3 31.1018 202.499898616804046 1.149e-14 2.5975745540069779 -0.284511 0 -0.00723425
471 2 3 31.1018 205.499898616804558 1.16565e-14 2.59757455347311828 -0.288081 0 -0.00789959
472 2 3 31.1018 208.499898616805069 1.1823e-14 2.59757455293925821 -0.291649 0 -0.00856693
473 2 3 31.1018 211.499898616805581 1.19896e-14 2.59757455240539814 -0.295216 0 -0.00923428
474 2 3 31.1018 214.499898616806092 1.21561e-14 2.59757455187153807 -0.298783 0 -0.00990163
475 2 3 31.1018 217.499898616806604 1.23226e-14 2.59757455133767845 -0.30235 0 -0.010569
476 2 3 31.1018 220.499898616807116 1.24891e-14 2.59757455080381838 -0.305917 0 -0.0112363
477 2 3 31.1018 223.499898616807627 1.26556e-14 2.59757455026995832 -0.309485 0 -0.0119037
226 1 3 31.1018 225 0 0 0 0 0
227 1 3 31.1018 228 0 0 0 0 0
228 1 3 31.1018 231 0 0 0 0 0
229 1 3 31.1018 234 0 0 0 0 0
230 1 3 31.1018 237 0 0 0 0 0
231 1 3 31.1018 240 0 0 0 0 0
232 1 3 31.1018 243 0 0 0 0 0
233 1 3 31.1018 246 0 0 0 0 0
234 1 3 31.1018 249 0 0 0 0 0
235 1 3 31.1018 252 0 0 0 0 0
236 1 3 31.1018 255 0 0 0 0 0
237 1 3 31.1018 258 0 0 0 0 0
238 1 3 31.1018 261 0 0 0 0 0
239 1 3 31.1018 264 0 0 0 0 0
240 1 3 31.1018 267 0 0 0 0 0
241 1 3 31.1018 270 0 0 0 0 0
242 1 3 31.1018 273 0 0 0 0 0
243 1 3 31.1018 276 0 0 0 0 0
244 1 3 31.1018 279 0 0 0 0 0
245 1 3 31.1018 282 0 0 0 0 0
246 1 3 31.1018 285 0 0 0 0 0
247 1 3 31.1018 288 0 0 0 0 0
248 1 3 31.1018 291 0 0 0 0 0
249 1 3 31.1018 294 0 0 0 0 0
250 1 3 31.1018 297 0 0 0 0 0
251 1 3 31.1018 300 0 0 0 0 0
252 1 3 31.1018 303 0 0 0 0 0
253 1 3 31.1018 306 0 0 0 0 0
254 1 3 31.1018 309 0 0 0 0 0
255 1 3 31.1018 312 0 0 0 0 0
256 1 3 31.1018 315 0 0 0 0 0
257 1 3 31.1018 318 0 0 0 0 0
258 1 3 31.1018 321 0 0 0 0 0
259 1 3 31.1018 324 0 0 0 0 0
260 1 3 31.1018 327 0 0 0 0 0
261 1 3 31.1018 330 0 0 0 0 0
262 1 3 31.1018 333 0 0 0 0 0
263 1 3 31.1018 336 0 0 0 0 0
264 1 3 31.1018 339 0 0 0 0 0
265 1 3 31.1018 342 0 0 0 0 0
266 1 3 31.1018 345 0 0 0 0 0
267 1 3 31.1018 348 0 0 0 0 0
268 1 3 31.1018 351 0 0 0 0 0
269 1 3 31.1018 354 0 0 0 0 0
270 1 3 31.1018 357 0 0 0 0 0
271 1 3 31.1018 360 0 0 0 0 0
272 1 3 31.1018 363 0 0 0 0 0
273 1 3 31.1018 366 0 0 0 0 0
274 1 3 31.1018 369 0 0 0 0 0
275 1 3 31.1018 372 0 0 0 0 0
276 1 3 31.1018 375 0 0 0 0 0
277 1 3 31.1018 378 0 0 0 0 0
278 1 3 31.1018 381 0 0 0 0 0
279 1 3 31.1018 384 0 0 0 0 0
280 1 3 31.1018 387 0 0 0 0 0
281 1 3 31.1018 390 0 0 0 0 0
282 1 3 31.1018 393 0 0 0 0 0
283 1 3 31.1018 396 0 0 0 0 0
284 1 3 31.1018 399 0 0 0 0 0
285 1 3 31.1018 402 0 0 0 0 0
286 1 3 31.1018 405 0 0 0 0 0
287 1 3 31.1018 408 0 0 0 0 0
288 1 3 31.1018 411 0 0 0 0 0
289 1 3 31.1018 414 0 0 0 0 0
290 1 3 31.1018 417 0 0 0 0 0
291 1 3 31.1018 420 0 0 0 0 0
292 1 3 31.1018 423 0 0 0 0 0
293 1 3 31.1018 426 0 0 0 0 0
294 1 3 31.1018 429 0 0 0 0 0
295 1 3 31.1018 432 0 0 0 0 0
296 1 3 31.1018 435 0 0 0 0 0
297 1 3 31.1018 438 0 0 0 0 0
298 1 3 31.1018 441 0 0 0 0 0
299 1 3 31.1018 444 0 0 0 0 0
300 1 3 31.1018 447 0 0 0 0 0
478 2 3 31.1018 226.499898616808139 1.28222e-14 2.59757454973609825 -0.313052 0 -0.012571
479 2 3 31.1018 229.49989861680865 1.29887e-14 2.59757454920223863 -0.316619 0 -0.0132384
480 2 3 31.1018 232.499898616809134 1.31552e-14 2.59757454866837856 -0.320186 0 -0.0139058
481 2 3 31.1018 235.499898616809645 1.33217e-14 2.59757454813451849 -0.323753 0 -0.0145731
482 2 3 31.1018 238.499898616810157 1.34882e-14 2.59757454760065842 -0.327321 0 -0.0152405
483 2 3 31.1018 241.499898616810668 1.36548e-14 2.5975745470667988 -0.330888 0 -0.0159078
484 2 3 31.1018 244.49989861681118 1.38213e-14 2.59757454653293873 -0.334455 0 -0.0165752
485 2 3 31.1018 247.499898616811691 1.39878e-14 2.59757454599907867 -0.338022 0 -0.0172426
486 2 3 31.1018 250.499898616812203 1.41543e-14 2.5975745454652186 -0.34159 0 -0.01791
487 2 3 31.1018 253.499898616812715 1.43209e-14 2.59757454493135898 -0.345157 0 -0.0185773
488 2 3 31.1018 256.499898616813255 1.44874e-14 2.59757454439749891 -0.348724 0 -0.0192447
489 2 3 31.1018 259.499898616813766 1.46539e-14 2.59757454386363884 -0.352291 0 -0.0199121
490 2 3 31.1018 262.499898616814278 1.48204e-14 2.59757454332977877 -0.355859 0 -0.0205795
491 2 3 31.1018 265.499898616814789 1.49869e-14 2.59757454279591915 -0.359423 0 -0.0212487
492 2 3 31.1018 268.499898616815301 1.51535e-14 2.59757454226205908 -0.362987 0 -0.0219181
493 2 3 31.1018 271.499898616815813 1.532e-14 2.59757454172819902 -0.36655 0 -0.0225875
494 2 3 31.1018 274.499898616816324 1.54865e-14 2.59757454119433895 -0.370114 0 -0.0232569
495 2 3 31.1018 277.499898616816836 1.5653e-14 2.59757454066047933 -0.373678 0 -0.0239263
496 2 3 31.1018 280.499898616817347 1.58195e-14 2.59757454012661926 -0.377242 0 -0.0245957
497 2 3 31.1018 283.499898616817859 1.59861e-14 2.59757453959275919 -0.380806 0 -0.0252651
498 2 3 31.1018 286.499898616818371 1.61526e-14 2.59757453905889912 -0.384369 0 -0.0259345
499 2 3 31.1018 289.499898616818882 1.63191e-14 2.5975745385250395 -0.387933 0 -0.0266039
500 2 3 31.1018 292.499898616819394 1.64856e-14 2.59757453799117943 -0.391497 0 -0.0272733
501 2 3 31.1018 295.499898616819848 1.66522e-14 2.59757453745731937 -0.395061 0 -0.0279427
