ITEM: TIMESTEP
4400000
ITEM: NUMBER OF ATOMS
1251
ITEM: BOX BOUNDS pp pp pp
-1.1250000000000000e+03 1.1250000000000000e+03
-1.0000000000000000e+02 1.0000000000000000e+02
-1.0000000000000000e+02 1.0000000000000000e+02
ITEM: ATOMS id type diameter mass xu yu zu fx fy fz
1 1 3 31.1018 -1125 0 0 0 0 0
2 1 3 31.1018 -1122 0 0 0 0 0
3 1 3 31.1018 -1119 0 0 0 0 0
4 1 3 31.1018 -1116 0 0 0 0 0
5 1 3 31.1018 -1113 0 0 0 0 0
6 1 3 31.1018 -1110 0 0 0 0 0
7 1 3 31.1018 -1107 0 0 0 0 0
8 1 3 31.1018 -1104 0 0 0 0 0
9 1 3 31.1018 -1101 0 0 0 0 0
10 1 3 31.1018 -1098 0 0 0 0 0
11 1 3 31.1018 -1095 0 0 0 0 0
12 1 3 31.1018 -1092 0 0 0 0 0
13 1 3 31.1018 -1089 0 0 0 0 0
14 1 3 31.1018 -1086 0 0 0 0 0
15 1 3 31.1018 -1083 0 0 0 0 0
16 1 3 31.1018 -1080 0 0 0 0 0
17 1 3 31.1018 -1077 0 0 0 0 0
18 1 3 31.1018 -1074 0 0 0 0 0
19 1 3 31.1018 -1071 0 0 0 0 0
20 1 3 31.1018 -1068 0 0 0 0 0
21 1 3 31.1018 -1065 0 0 0 0 0
22 1 3 31.1018 -1062 0 0 0 0 0
23 1 3 31.1018 -1059 0 0 0 0 0
24 1 3 31.1018 -1056 0 0 0 0 0
25 1 3 31.1018 -1053 0 0 0 0 0
26 1 3 31.1018 -1050 0 0 0 0 0
27 1 3 31.1018 -1047 0 0 0 0 0
28 1 3 31.1018 -1044 0 0 0 0 0
29 1 3 31.1018 -1041 0 0 0 0 0
30 1 3 31.1018 -1038 0 0 0 0 0
31 1 3 31.1018 -1035 0 0 0 0 0
32 1 3 31.1018 -1032 0 0 0 0 0
33 1 3 31.1018 -1029 0 0 0 0 0
34 1 3 31.1018 -1026 0 0 0 0 0
35 1 3 31.1018 -1023 0 0 0 0 0
36 1 3 31.1018 -1020 0 0 0 0 0
37 1 3 31.1018 -1017 0 0 0 0 0
38 1 3 31.1018 -1014 0 0 0 0 0
39 1 3 31.1018 -1011 0 0 0 0 0
40 1 3 31.1018 -1008 0 0 0 0 0
41 1 3 31.1018 -1005 0 0 0 0 0
42 1 3 31.1018 -1002 0 0 0 0 0
43 1 3 31.1018 -999 0 0 0 0 0
44 1 3 31.1018 -996 0 0 0 0 0
45 1 3 31.1018 -993 0 0 0 0 0
46 1 3 31.1018 -990 0 0 0 0 0
47 1 3 31.1018 -987 0 0 0 0 0
48 1 3 31.1018 -984 0 0 0 0 0
49 1 3 31.1018 -981 0 0 0 0 0
50 1 3 31.1018 -978 0 0 0 0 0
51 1 3 31.1018 -975 0 0 0 0 0
52 1 3 31.1018 -972 0 0 0 0 0
53 1 3 31.1018 -969 0 0 0 0 0
54 1 3 31.1018 -966 0 0 0 0 0
55 1 3 31.1018 -963 0 0 0 0 0
56 1 3 31.1018 -960 0 0 0 0 0
57 1 3 31.1018 -957 0 0 0 0 0
58 1 3 31.1018 -954 0 0 0 0 0
59 1 3 31.1018 -951 0 0 0 0 0
60 1 3 31.1018 -948 0 0 0 0 0
61 1 3 31.1018 -945 0 0 0 0 0
62 1 3 31.1018 -942 0 0 0 0 0
63 1 3 31.1018 -939 0 0 0 0 0
64 1 3 31.1018 -936 0 0 0 0 0
65 1 3 31.1018 -933 0 0 0 0 0
66 1 3 31.1018 -930 0 0 0 0 0
67 1 3 31.1018 -927 0 0 0 0 0
68 1 3 31.1018 -924 0 0 0 0 0
69 1 3 31.1018 -921 0 0 0 0 0
70 1 3 31.1018 -918 0 0 0 0 0
71 1 3 31.1018 -915 0 0 0 0 0
72 1 3 31.1018 -912 0 0 0 0 0
73 1 3 31.1018 -909 0 0 0 0 0
74 1 3 31.1018 -906 0 0 0 0 0
75 1 3 31.1018 -903 0 0 0 0 0
76 1 3 31.1018 -900 0 0 0 0 0
77 1 3 31.1018 -897 0 0 0 0 0
78 1 3 31.1018 -894 0 0 0 0 0
79 1 3 31.1018 -891 0 0 0 0 0
80 1 3 31.1018 -888 0 0 0 0 0
81 1 3 31.1018 -885 0 0 0 0 0
82 1 3 31.1018 -882 0 0 0 0 0
83 1 3 31.1018 -879 0 0 0 0 0
84 1 3 31.1018 -876 0 0 0 0 0
85 1 3 31.1018 -873 0 0 0 0 0
86 1 3 31.1018 -870 0 0 0 0 0
87 1 3 31.1018 -867 0 0 0 0 0
88 1 3 31.1018 -864 0 0 0 0 0
89 1 3 31.1018 -861 0 0 0 0 0
90 1 3 31.1018 -858 0 0 0 0 0
91 1 3 31.1018 -855 0 0 0 0 0
92 1 3 31.1018 -852 0 0 0 0 0
93 1 3 31.1018 -849 0 0 0 0 0
94 1 3 31.1018 -846 0 0 0 0 0
95 1 3 31.1018 -843 0 0 0 0 0
96 1 3 31.1018 -840 0 0 0 0 0
97 1 3 31.1018 -837 0 0 0 0 0
98 1 3 31.1018 -834 0 0 0 0 0
99 1 3 31.1018 -831 0 0 0 0 0
100 1 3 31.1018 -828 0 0 0 0 0
101 1 3 31.1018 -825 0 0 0 0 0
102 1 3 31.1018 -822 0 0 0 0 0
103 1 3 31.1018 -819 0 0 0 0 0
104 1 3 31.1018 -816 0 0 0 0 0
105 1 3 31.1018 -813 0 0 0 0 0
106 1 3 31.1018 -810 0 0 0 0 0
107 1 3 31.1018 -807 0 0 0 0 0
108 1 3 31.1018 -804 0 0 0 0 0
109 1 3 31.1018 -801 0 0 0 0 0
110 1 3 31.1018 -798 0 0 0 0 0
111 1 3 31.1018 -795 0 0 0 0 0
112 1 3 31.1018 -792 0 0 0 0 0
113 1 3 31.1018 -789 0 0 0 0 0
114 1 3 31.1018 -786 0 0 0 0 0
115 1 3 31.1018 -783 0 0 0 0 0
116 1 3 31.1018 -780 0 0 0 0 0
117 1 3 31.1018 -777 0 0 0 0 0
118 1 3 31.1018 -774 0 0 0 0 0
119 1 3 31.1018 -771 0 0 0 0 0
120 1 3 31.1018 -768 0 0 0 0 0
121 1 3 31.1018 -765 0 0 0 0 0
122 1 3 31.1018 -762 0 0 0 0 0
123 1 3 31.1018 -759 0 0 0 0 0
124 1 3 31.1018 -756 0 0 0 0 0
125 1 3 31.1018 -753 0 0 0 0 0
126 1 3 31.1018 -750 0 0 0 0 0
127 1 3 31.1018 -747 0 0 0 0 0
128 1 3 31.1018 -744 0 0 0 0 0
129 1 3 31.1018 -741 0 0 0 0 0
130 1 3 31.1018 -738 0 0 0 0 0
131 1 3 31.1018 -735 0 0 0 0 0
132 1 3 31.1018 -732 0 0 0 0 0
133 1 3 31.1018 -729 0 0 0 0 0
134 1 3 31.1018 -726 0 0 0 0 0
135 1 3 31.1018 -723 0 0 0 0 0
136 1 3 31.1018 -720 0 0 0 0 0
137 1 3 31.1018 -717 0 0 0 0 0
138 1 3 31.1018 -714 0 0 0 0 0
139 1 3 31.1018 -711 0 0 0 0 0
140 1 3 31.1018 -708 0 0 0 0 0
141 1 3 31.1018 -705 0 0 0 0 0
142 1 3 31.1018 -702 0 0 0 0 0
143 1 3 31.1018 -699 0 0 0 0 0
144 1 3 31.1018 -696 0 0 0 0 0
145 1 3 31.1018 -693 0 0 0 0 0
146 1 3 31.1018 -690 0 0 0 0 0
147 1 3 31.1018 -687 0 0 0 0 0
148 1 3 31.1018 -684 0 0 0 0 0
149 1 3 31.1018 -681 0 0 0 0 0
150 1 3 31.1018 -678 0 0 0 0 0
151 1 3 31.1018 -675 0 0 0 0 0
152 1 3 31.1018 -672 0 0 0 0 0
153 1 3 31.1018 -669 0 0 0 0 0
154 1 3 31.1018 -666 0 0 0 0 0
155 1 3 31.1018 -663 0 0 0 0 0
156 1 3 31.1018 -660 0 0 0 0 0
157 1 3 31.1018 -657 0 0 0 0 0
158 1 3 31.1018 -654 0 0 0 0 0
159 1 3 31.1018 -651 0 0 0 0 0
160 1 3 31.1018 -648 0 0 0 0 0
161 1 3 31.1018 -645 0 0 0 0 0
162 1 3 31.1018 -642 0 0 0 0 0
163 1 3 31.1018 -639 0 0 0 0 0
164 1 3 31.1018 -636 0 0 0 0 0
165 1 3 31.1018 -633 0 0 0 0 0
166 1 3 31.1018 -630 0 0 0 0 0
167 1 3 31.1018 -627 0 0 0 0 0
168 1 3 31.1018 -624 0 0 0 0 0
169 1 3 31.1018 -621 0 0 0 0 0
170 1 3 31.1018 -618 0 0 0 0 0
171 1 3 31.1018 -615 0 0 0 0 0
172 1 3 31.1018 -612 0 0 0 0 0
173 1 3 31.1018 -609 0 0 0 0 0
174 1 3 31.1018 -606 0 0 0 0 0
175 1 3 31.1018 -603 0 0 0 0 0
176 1 3 31.1018 -600 0 0 0 0 0
177 1 3 31.1018 -597 0 0 0 0 0
178 1 3 31.1018 -594 0 0 0 0 0
179 1 3 31.1018 -591 0 0 0 0 0
180 1 3 31.1018 -588 0 0 0 0 0
181 1 3 31.1018 -585 0 0 0 0 0
182 1 3 31.1018 -582 0 0 0 0 0
183 1 3 31.1018 -579 0 0 0 0 0
184 1 3 31.1018 -576 0 0 0 0 0
185 1 3 31.1018 -573 0 0 0 0 0
186 1 3 31.1018 -570 0 0 0 0 0
187 1 3 31.1018 -567 0 0 0 0 0
188 1 3 31.1018 -564 0 0 0 0 0
751 2 3 31.1018 -754.500101365330465 -4.16333e-14 2.59757462865293354 0.203243 0 -0.00445251
752 2 3 31.1018 -751.500101365330352 -4.14667e-14 2.59757462855817867 0.202426 0 -0.00443203
753 2 3 31.1018 -748.500101365330238 -4.13002e-14 2.59757462846342335 0.201608 0 -0.00441155
754 2 3 31.1018 -745.500101365330011 -4.11337e-14 2.59757462836866804 0.20079 0 -0.00439108
755 2 3 31.1018 -742.500101365329897 -4.09671e-14 2.59757462827391272 0.199972 0 -0.0043706
756 2 3 31.1018 -739.500101365329783 -4.08006e-14 2.59757462817915785 0.199155 0 -0.00435012
757 2 3 31.1018 -736.50010136532967 -4.06341e-14 2.59757462808440254 0.198337 0 -0.00432964
758 2 3 31.1018 -733.500101365329442 -4.04675e-14 2.59757462798964722 0.197519 0 -0.00430917
759 2 3 31.1018 -730.500101365329328 -4.0301e-14 2.59757462789489191 0.196702 0 -0.00428869
760 2 3 31.1018 -727.500101365329215 -4.01345e-14 2.59757462780013704 0.195884 0 -0.00426821
761 2 3 31.1018 -724.500101365329101 -3.99679e-14 2.59757462770538172 0.195066 0 -0.00424772
762 2 3 31.1018 -721.500101365328874 -3.98014e-14 2.59757462761062641 0.194248 0 -0.00422725
763 2 3 31.1018 -718.50010136532876 -3.96349e-14 2.59757462751587109 0.193431 0 -0.00420677
764 2 3 31.1018 -715.500101365328646 -3.94683e-14 2.59757462742111622 0.192613 0 -0.00418629
765 2 3 31.1018 -712.500101365328533 -3.93018e-14 2.59757462732636091 0.191795 0 -0.00416581
766 2 3 31.1018 -709.500101365328305 -3.91353e-14 2.59757462723160559 0.190977 0 -0.00414534
767 2 3 31.1018 -706.500101365328192 -3.89687e-14 2.59757462713685028 0.19016 0 -0.00412486
768 2 3 31.1018 -703.500101365328078 -3.88022e-14 2.59757462704209541 0.189342 0 -0.00410438
769 2 3 31.1018 -700.500101365327964 -3.86357e-14 2.59757462694734009 0.188524 0 -0.0040839
770 2 3 31.1018 -697.500101365327737 -3.84691e-14 2.59757462685258478 0.187706 0 -0.00406343
771 2 3 31.1018 -694.500101365327623 -3.83026e-14 2.59757462675782946 0.186889 0 -0.00404295
772 2 3 31.1018 -691.500101365327509 -3.81361e-14 2.59757462666307459 0.186071 0 -0.00402247
773 2 3 31.1018 -688.500101365327396 -3.79695e-14 2.59757462656831928 0.185253 0 -0.00400199
774 2 3 31.1018 -685.500101365327168 -3.7803e-14 2.59757462647356396 0.184435 0 -0.00398152
775 2 3 31.1018 -682.500101365327055 -3.76365e-14 2.59757462637880865 0.183618 0 -0.00396104
776 2 3 31.1018 -679.500101365326941 -3.74699e-14 2.59757462628405378 0.1828 0 -0.00394056
777 2 3 31.1018 -676.500101365326827 -3.73034e-14 2.59757462618929846 0.181982 0 -0.00392008
778 2 3 31.1018 -673.5001013653266 -3.71369e-14 2.59757462609454315 0.181164 0 -0.00389961
779 2 3 31.1018 -670.500101365326486 -3.69703e-14 2.59757462599978783 0.180347 0 -0.00387913
780 2 3 31.1018 -667.500101365326373 -3.68038e-14 2.59757462590503296 0.179529 0 -0.00385865
781 2 3 31.1018 -664.500101365326259 -3.66373e-14 2.59757462581027765 0.178711 0 -0.00383817
782 2 3 31.1018 -661.500101365326032 -3.64707e-14 2.59757462571552233 0.177893 0 -0.0038177
783 2 3 31.1018 -658.500101365325918 -3.63042e-14 2.59757462562076702 0.177076 0 -0.00379722
784 2 3 31.1018 -655.500101365325804 -3.61377e-14 2.59757462552601215 0.176258 0 -0.00377674
785 2 3 31.1018 -652.50010136532569 -3.59711e-14 2.59757462543125683 0.17544 0 -0.00375626
786 2 3 31.1018 -649.500101365325463 -3.58046e-14 2.59757462533650152 0.174622 0 -0.00373579
787 2 3 31.1018 -646.500101365325349 -3.56381e-14 2.5975746252417462 0.173805 0 -0.00371531
788 2 3 31.1018 -643.500101365325236 -3.54715e-14 2.59757462514699133 0.172987 0 -0.00369483
789 2 3 31.1018 -640.500101365325122 -3.5305e-14 2.59757462505223602 0.172169 0 -0.00367435
790 2 3 31.1018 -637.500101365324895 -3.51385e-14 2.5975746249574807 0.171351 0 -0.00365388
791 2 3 31.1018 -634.500101365324781 -3.49719e-14 2.59757462486272539 0.170534 0 -0.0036334
792 2 3 31.1018 -631.500101365324667 -3.48054e-14 2.59757462476797052 0.169716 0 -0.00361292
793 2 3 31.1018 -628.500101365324554 -3.46389e-14 2.5975746246732152 0.168898 0 -0.00359244
794 2 3 31.1018 -625.500101365324326 -3.44723e-14 2.59757462457845989 0.16808 0 -0.00357197
795 2 3 31.1018 -622.500101365324213 -3.43058e-14 2.59757462448370458 0.167263 0 -0.00355149
796 2 3 31.1018 -619.500101365324099 -3.41393e-14 2.5975746243889497 0.166445 0 -0.00353101
797 2 3 31.1018 -616.500101365323985 -3.39727e-14 2.59757462429419439 0.165627 0 -0.00351053
798 2 3 31.1018 -613.500101365323758 -3.38062e-14 2.59757462419943908 0.164809 0 -0.00349006
799 2 3 31.1018 -610.500101365323644 -3.36397e-14 2.59757462410468376 0.163991 0 -0.00346958
800 2 3 31.1018 -607.50010136532353 -3.34731e-14 2.59757462400992889 0.163174 0 -0.0034491
801 2 3 31.1018 -604.500101365323417 -3.33066e-14 2.59757462391517358 0.162356 0 -0.00342862
802 2 3 31.1018 -601.500101365323189 -3.31401e-14 2.59757462382041826 0.161538 0 -0.00340815
803 2 3 31.1018 -598.500101365323076 -3.29735e-14 2.59757462372566295 0.16072 0 -0.00338767
804 2 3 31.1018 -595.500101365322962 -3.2807e-14 2.59757462363090808 0.159903 0 -0.0033672
805 2 3 31.1018 -592.500101365322848 -3.26405e-14 2.59757462353615276 0.159085 0 -0.00334671
806 2 3 31.1018 -589.500101365322621 -3.2474e-14 2.59757462344139745 0.158267 0 -0.00332625
807 2 3 31.1018 -586.500101365322507 -3.23074e-14 2.59757462334664213 0.157449 0 -0.00330577
808 2 3 31.1018 -583.500101365322394 -3.21409e-14 2.59757462325188726 0.156632 0 -0.00328529
809 2 3 31.1018 -580.50010136532228 -3.19744e-14 2.59757462315713195 0.155814 0 -0.00326481
810 2 3 31.1018 -577.500101365322053 -3.18078e-14 2.59757462306237663 0.154996 0 -0.00324434
811 2 3 31.1018 -574.500101365321939 -3.16413e-14 2.59757462296762132 0.154178 0 -0.00322386
812 2 3 31.1018 -571.500101365321825 -3.14748e-14 2.59757462287286645 0.153361 0 -0.00320338
813 2 3 31.1018 -568.500101365321711 -3.13082e-14 2.59757462277811113 0.152543 0 -0.0031829
814 2 3 31.1018 -565.500101365321484 -3.11417e-14 2.59757462268335582 0.151725 0 -0.00316243
189 1 3 31.1018 -561 0 0 0 0 0
190 1 3 31.1018 -558 0 0 0 0 0
191 1 3 31.1018 -555 0 0 0 0 0
192 1 3 31.1018 -552 0 0 0 0 0
193 1 3 31.1018 -549 0 0 0 0 0
194 1 3 31.1018 -546 0 0 0 0 0
195 1 3 31.1018 -543 0 0 0 0 0
196 1 3 31.1018 -540 0 0 0 0 0
197 1 3 31.1018 -537 0 0 0 0 0
198 1 3 31.1018 -534 0 0 0 0 0
199 1 3 31.1018 -531 0 0 0 0 0
200 1 3 31.1018 -528 0 0 0 0 0
201 1 3 31.1018 -525 0 0 0 0 0
202 1 3 31.1018 -522 0 0 0 0 0
203 1 3 31.1018 -519 0 0 0 0 0
204 1 3 31.1018 -516 0 0 0 0 0
205 1 3 31.1018 -513 0 0 0 0 0
206 1 3 31.1018 -510 0 0 0 0 0
207 1 3 31.1018 -507 0 0 0 0 0
208 1 3 31.1018 -504 0 0 0 0 0
209 1 3 31.1018 -501 0 0 0 0 0
210 1 3 31.1018 -498 0 0 0 0 0
211 1 3 31.1018 -495 0 0 0 0 0
212 1 3 31.1018 -492 0 0 0 0 0
213 1 3 31.1018 -489 0 0 0 0 0
214 1 3 31.1018 -486 0 0 0 0 0
215 1 3 31.1018 -483 0 0 0 0 0
216 1 3 31.1018 -480 0 0 0 0 0
217 1 3 31.1018 -477 0 0 0 0 0
218 1 3 31.1018 -474 0 0 0 0 0
219 1 3 31.1018 -471 0 0 0 0 0
220 1 3 31.1018 -468 0 0 0 0 0
221 1 3 31.1018 -465 0 0 0 0 0
222 1 3 31.1018 -462 0 0 0 0 0
223 1 3 31.1018 -459 0 0 0 0 0
224 1 3 31.1018 -456 0 0 0 0 0
225 1 3 31.1018 -453 0 0 0 0 0
226 1 3 31.1018 -450 0 0 0 0 0
227 1 3 31.1018 -447 0 0 0 0 0
228 1 3 31.1018 -444 0 0 0 0 0
229 1 3 31.1018 -441 0 0 0 0 0
230 1 3 31.1018 -438 0 0 0 0 0
231 1 3 31.1018 -435 0 0 0 0 0
232 1 3 31.1018 -432 0 0 0 0 0
233 1 3 31.1018 -429 0 0 0 0 0
234 1 3 31.1018 -426 0 0 0 0 0
235 1 3 31.1018 -423 0 0 0 0 0
236 1 3 31.1018 -420 0 0 0 0 0
237 1 3 31.1018 -417 0 0 0 0 0
238 1 3 31.1018 -414 0 0 0 0 0
239 1 3 31.1018 -411 0 0 0 0 0
240 1 3 31.1018 -408 0 0 0 0 0
241 1 3 31.1018 -405 0 0 0 0 0
242 1 3 31.1018 -402 0 0 0 0 0
243 1 3 31.1018 -399 0 0 0 0 0
244 1 3 31.1018 -396 0 0 0 0 0
245 1 3 31.1018 -393 0 0 0 0 0
246 1 3 31.1018 -390 0 0 0 0 0
247 1 3 31.1018 -387 0 0 0 0 0
248 1 3 31.1018 -384 0 0 0 0 0
249 1 3 31.1018 -381 0 0 0 0 0
250 1 3 31.1018 -378 0 0 0 0 0
251 1 3 31.1018 -375 0 0 0 0 0
252 1 3 31.1018 -372 0 0 0 0 0
253 1 3 31.1018 -369 0 0 0 0 0
254 1 3 31.1018 -366 0 0 0 0 0
255 1 3 31.1018 -363 0 0 0 0 0
256 1 3 31.1018 -360 0 0 0 0 0
257 1 3 31.1018 -357 0 0 0 0 0
258 1 3 31.1018 -354 0 0 0 0 0
259 1 3 31.1018 -351 0 0 0 0 0
260 1 3 31.1018 -348 0 0 0 0 0
261 1 3 31.1018 -345 0 0 0 0 0
262 1 3 31.1018 -342 0 0 0 0 0
263 1 3 31.1018 -339 0 0 0 0 0
264 1 3 31.1018 -336 0 0 0 0 0
265 1 3 31.1018 -333 0 0 0 0 0
266 1 3 31.1018 -330 0 0 0 0 0
267 1 3 31.1018 -327 0 0 0 0 0
268 1 3 31.1018 -324 0 0 0 0 0
269 1 3 31.1018 -321 0 0 0 0 0
270 1 3 31.1018 -318 0 0 0 0 0
271 1 3 31.1018 -315 0 0 0 0 0
272 1 3 31.1018 -312 0 0 0 0 0
273 1 3 31.1018 -309 0 0 0 0 0
274 1 3 31.1018 -306 0 0 0 0 0
275 1 3 31.1018 -303 0 0 0 0 0
276 1 3 31.1018 -300 0 0 0 0 0
277 1 3 31.1018 -297 0 0 0 0 0
278 1 3 31.1018 -294 0 0 0 0 0
279 1 3 31.1018 -291 0 0 0 0 0
280 1 3 31.1018 -288 0 0 0 0 0
281 1 3 31.1018 -285 0 0 0 0 0
282 1 3 31.1018 -282 0 0 0 0 0
283 1 3 31.1018 -279 0 0 0 0 0
284 1 3 31.1018 -276 0 0 0 0 0
285 1 3 31.1018 -273 0 0 0 0 0
286 1 3 31.1018 -270 0 0 0 0 0
287 1 3 31.1018 -267 0 0 0 0 0
288 1 3 31.1018 -264 0 0 0 0 0
289 1 3 31.1018 -261 0 0 0 0 0
290 1 3 31.1018 -258 0 0 0 0 0
291 1 3 31.1018 -255 0 0 0 0 0
292 1 3 31.1018 -252 0 0 0 0 0
293 1 3 31.1018 -249 0 0 0 0 0
294 1 3 31.1018 -246 0 0 0 0 0
295 1 3 31.1018 -243 0 0 0 0 0
296 1 3 31.1018 -240 0 0 0 0 0
297 1 3 31.1018 -237 0 0 0 0 0
298 1 3 31.1018 -234 0 0 0 0 0
299 1 3 31.1018 -231 0 0 0 0 0
300 1 3 31.1018 -228 0 0 0 0 0
301 1 3 31.1018 -225 0 0 0 0 0
302 1 3 31.1018 -222 0 0 0 0 0
303 1 3 31.1018 -219 0 0 0 0 0
304 1 3 31.1018 -216 0 0 0 0 0
305 1 3 31.1018 -213 0 0 0 0 0
306 1 3 31.1018 -210 0 0 0 0 0
307 1 3 31.1018 -207 0 0 0 0 0
308 1 3 31.1018 -204 0 0 0 0 0
309 1 3 31.1018 -201 0 0 0 0 0
310 1 3 31.1018 -198 0 0 0 0 0
311 1 3 31.1018 -195 0 0 0 0 0
312 1 3 31.1018 -192 0 0 0 0 0
313 1 3 31.1018 -189 0 0 0 0 0
314 1 3 31.1018 -186 0 0 0 0 0
315 1 3 31.1018 -183 0 0 0 0 0
316 1 3 31.1018 -180 0 0 0 0 0
317 1 3 31.1018 -177 0 0 0 0 0
318 1 3 31.1018 -174 0 0 0 0 0
319 1 3 31.1018 -171 0 0 0 0 0
320 1 3 31.1018 -168 0 0 0 0 0
321 1 3 31.1018 -165 0 0 0 0 0
322 1 3 31.1018 -162 0 0 0 0 0
323 1 3 31.1018 -159 0 0 0 0 0
324 1 3 31.1018 -156 0 0 0 0 0
325 1 3 31.1018 -153 0 0 0 0 0
326 1 3 31.1018 -150 0 0 0 0 0
327 1 3 31.1018 -147 0 0 0 0 0
328 1 3 31.1018 -144 0 0 0 0 0
329 1 3 31.1018 -141 0 0 0 0 0
330 1 3 31.1018 -138 0 0 0 0 0
331 1 3 31.1018 -135 0 0 0 0 0
332 1 3 31.1018 -132 0 0 0 0 0
333 1 3 31.1018 -129 0 0 0 0 0
334 1 3 31.1018 -126 0 0 0 0 0
335 1 3 31.1018 -123 0 0 0 0 0
336 1 3 31.1018 -120 0 0 0 0 0
337 1 3 31.1018 -117 0 0 0 0 0
338 1 3 31.1018 -114 0 0 0 0 0
339 1 3 31.1018 -111 0 0 0 0 0
340 1 3 31.1018 -108 0 0 0 0 0
341 1 3 31.1018 -105 0 0 0 0 0
342 1 3 31.1018 -102 0 0 0 0 0
343 1 3 31.1018 -99 0 0 0 0 0
344 1 3 31.1018 -96 0 0 0 0 0
345 1 3 31.1018 -93 0 0 0 0 0
346 1 3 31.1018 -90 0 0 0 0 0
347 1 3 31.1018 -87 0 0 0 0 0
348 1 3 31.1018 -84 0 0 0 0 0
349 1 3 31.1018 -81 0 0 0 0 0
350 1 3 31.1018 -78 0 0 0 0 0
351 1 3 31.1018 -75 0 0 0 0 0
352 1 3 31.1018 -72 0 0 0 0 0
353 1 3 31.1018 -69 0 0 0 0 0
354 1 3 31.1018 -66 0 0 0 0 0
355 1 3 31.1018 -63 0 0 0 0 0
356 1 3 31.1018 -60 0 0 0 0 0
357 1 3 31.1018 -57 0 0 0 0 0
358 1 3 31.1018 -54 0 0 0 0 0
359 1 3 31.1018 -51 0 0 0 0 0
360 1 3 31.1018 -48 0 0 0 0 0
361 1 3 31.1018 -45 0 0 0 0 0
362 1 3 31.1018 -42 0 0 0 0 0
363 1 3 31.1018 -39 0 0 0 0 0
364 1 3 31.1018 -36 0 0 0 0 0
365 1 3 31.1018 -33 0 0 0 0 0
366 1 3 31.1018 -30 0 0 0 0 0
367 1 3 31.1018 -27 0 0 0 0 0
368 1 3 31.1018 -24 0 0 0 0 0
369 1 3 31.1018 -21 0 0 0 0 0
370 1 3 31.1018 -18 0 0 0 0 0
371 1 3 31.1018 -15 0 0 0 0 0
372 1 3 31.1018 -12 0 0 0 0 0
373 1 3 31.1018 -9 0 0 0 0 0
374 1 3 31.1018 -6 0 0 0 0 0
375 1 3 31.1018 -3 0 0 0 0 0
815 2 3 31.1018 -562.50010136532137 -3.09752e-14 2.5975746225886005 0.150907 0 -0.00314195
816 2 3 31.1018 -559.500101365321257 -3.08086e-14 2.59757462249384563 0.15009 0 -0.00312144
817 2 3 31.1018 -556.500101365321143 -3.06421e-14 2.59757462239909032 0.149272 0 -0.00310088
818 2 3 31.1018 -553.500101365320916 -3.04756e-14 2.597574622304335 0.148454 0 -0.00308031
819 2 3 31.1018 -550.500101365320802 -3.0309e-14 2.59757462220957969 0.147636 0 -0.00305954
820 2 3 31.1018 -547.500101365320688 -3.01425e-14 2.59757462211482482 0.146818 0 -0.00303878
821 2 3 31.1018 -544.500101365320575 -2.9976e-14 2.5975746220200695 0.146001 0 -0.00301801
822 2 3 31.1018 -541.500101365320347 -2.98094e-14 2.59757462192531419 0.145182 0 -0.00299726
823 2 3 31.1018 -538.500101365320234 -2.96429e-14 2.59757462183055887 0.144364 0 -0.0029765
824 2 3 31.1018 -535.50010136532012 -2.94764e-14 2.597574621735804 0.143547 0 -0.00295574
825 2 3 31.1018 -532.500101365320006 -2.93098e-14 2.59757462164104869 0.142729 0 -0.00293497
826 2 3 31.1018 -529.500101365319779 -2.91433e-14 2.59757462154629337 0.14191 0 -0.00291422
827 2 3 31.1018 -526.500101365319665 -2.89768e-14 2.59757462145153806 0.141093 0 -0.00289345
828 2 3 31.1018 -523.500101365319551 -2.88102e-14 2.59757462135678319 0.140275 0 -0.00287269
829 2 3 31.1018 -520.500101365319438 -2.86437e-14 2.59757462126202787 0.139457 0 -0.00285193
830 2 3 31.1018 -517.50010136531921 -2.84772e-14 2.59757462116727256 0.138639 0 -0.00283118
831 2 3 31.1018 -514.500101365319097 -2.83106e-14 2.59757462107251724 0.137821 0 -0.00281041
832 2 3 31.1018 -511.500101365318926 -2.81441e-14 2.59757462097776237 0.137003 0 -0.00278965
833 2 3 31.1018 -508.500101365318756 -2.79776e-14 2.59757462088300706 0.136185 0 -0.0027689
834 2 3 31.1018 -505.500101365318642 -2.7811e-14 2.59757462078825174 0.135367 0 -0.00274813
835 2 3 31.1018 -502.500101365318471 -2.76445e-14 2.59757462069349643 0.134549 0 -0.00272738
836 2 3 31.1018 -499.500101365318358 -2.7478e-14 2.59757462059874156 0.133731 0 -0.00270661
837 2 3 31.1018 -496.500101365318187 -2.73114e-14 2.59757462050398624 0.132913 0 -0.00268585
838 2 3 31.1018 -493.500101365318073 -2.71449e-14 2.59757462040923093 0.132095 0 -0.00266509
839 2 3 31.1018 -490.500101365317903 -2.69784e-14 2.59757462031447561 0.131277 0 -0.00264433
840 2 3 31.1018 -487.500101365317789 -2.68118e-14 2.59757462021972074 0.130459 0 -0.00262357
841 2 3 31.1018 -484.500101365317619 -2.66453e-14 2.59757462012496543 0.129641 0 -0.00260281
842 2 3 31.1018 -481.500101365317505 -2.64788e-14 2.59757462003021011 0.128823 0 -0.00258205
843 2 3 31.1018 -478.500101365317335 -2.63122e-14 2.5975746199354548 0.128005 0 -0.00256129
844 2 3 31.1018 -475.500101365317221 -2.61457e-14 2.59757461984069993 0.127187 0 -0.00254053
845 2 3 31.1018 -472.50010136531705 -2.59792e-14 2.59757461974594461 0.126369 0 -0.00251977
846 2 3 31.1018 -469.500101365316937 -2.58126e-14 2.5975746196511893 0.125551 0 -0.00249901
847 2 3 31.1018 -466.500101365316766 -2.56461e-14 2.59757461955643398 0.124733 0 -0.00247825
848 2 3 31.1018 -463.500101365316652 -2.54796e-14 2.59757461946167911 0.123915 0 -0.00245749
849 2 3 31.1018 -460.500101365316482 -2.5313e-14 2.5975746193669238 0.123097 0 -0.00243673
850 2 3 31.1018 -457.500101365316368 -2.51465e-14 2.59757461927216848 0.122279 0 -0.00241597
851 2 3 31.1018 -454.500101365316198 -2.498e-14 2.59757461917741317 0.121461 0 -0.00239521
852 2 3 31.1018 -451.500101365316084 -2.48134e-14 2.5975746190826583 0.120643 0 -0.00237445
853 2 3 31.1018 -448.500101365315913 -2.46469e-14 2.59757461898790298 0.119825 0 -0.00235369
854 2 3 31.1018 -445.5001013653158 -2.44804e-14 2.59757461889314767 0.119007 0 -0.00233293
855 2 3 31.1018 -442.500101365315629 -2.43138e-14 2.59757461879839235 0.118189 0 -0.00231217
856 2 3 31.1018 -439.500101365315516 -2.41473e-14 2.59757461870363748 0.117371 0 -0.00229141
857 2 3 31.1018 -436.500101365315345 -2.39808e-14 2.59757461860888217 0.116553 0 -0.00227065
858 2 3 31.1018 -433.500101365315231 -2.38142e-14 2.59757461851412685 0.115735 0 -0.00224989
859 2 3 31.1018 -430.500101365315061 -2.36477e-14 2.59757461841937154 0.114917 0 -0.00222913
860 2 3 31.1018 -427.500101365314947 -2.34812e-14 2.59757461832461667 0.114099 0 -0.00220837
861 2 3 31.1018 -424.500101365314777 -2.33146e-14 2.59757461822986135 0.113281 0 -0.00218761
862 2 3 31.1018 -421.500101365314663 -2.31481e-14 2.59757461813510604 0.112463 0 -0.00216685
863 2 3 31.1018 -418.500101365314492 -2.29816e-14 2.59757461804035072 0.111645 0 -0.00214609
864 2 3 31.1018 -415.500101365314379 -2.2815e-14 2.59757461794559585 0.110827 0 -0.00212533
865 2 3 31.1018 -412.500101365314208 -2.26485e-14 2.59757461785084054 0.110009 0 -0.00210457
866 2 3 31.1018 -409.500101365314094 -2.2482e-14 2.59757461775608522 0.109191 0 -0.00208381
867 2 3 31.1018 -406.500101365313924 -2.23154e-14 2.59757461766132991 0.108373 0 -0.00206305
868 2 3 31.1018 -403.50010136531381 -2.21489e-14 2.59757461756657504 0.107555 0 -0.00204229
869 2 3 31.1018 -400.50010136531364 -2.19824e-14 2.59757461747181972 0.106737 0 -0.00202153
870 2 3 31.1018 -397.500101365313526 -2.18158e-14 2.59757461737706441 0.105919 0 -0.00200077
871 2 3 31.1018 -394.500101365313355 -2.16493e-14 2.5975746172823091 0.105101 0 -0.00198001
872 2 3 31.1018 -391.500101365313242 -2.14828e-14 2.59757461718755422 0.104283 0 -0.00195926
873 2 3 31.1018 -388.500101365313071 -2.13162e-14 2.59757461709279891 0.103465 0 -0.0019385
874 2 3 31.1018 -385.500101365312958 -2.11497e-14 2.5975746169980436 0.102647 0 -0.00191773
875 2 3 31.1018 -382.500101365312844 -2.09832e-14 2.59757461690328828 0.101829 0 -0.00189697
876 2 3 31.1018 -379.500101365312673 -2.08166e-14 2.59757461680853341 0.101011 0 -0.00187622
877 2 3 31.1018 -376.50010136531256 -2.06501e-14 2.5975746167137781 0.100193 0 -0.00185546
878 2 3 31.1018 -373.500101365312389 -2.04836e-14 2.59757461661902278 0.0993749 0 -0.0018347
879 2 3 31.1018 -370.500101365312275 -2.0317e-14 2.59757461652426747 0.0985569 0 -0.00181394
880 2 3 31.1018 -367.500101365312105 -2.01505e-14 2.5975746164295126 0.0977389 0 -0.00179318
881 2 3 31.1018 -364.500101365311991 -1.9984e-14 2.59757461633475728 0.096921 0 -0.00177242
882 2 3 31.1018 -361.500101365311821 -1.98174e-14 2.59757461624000197 0.0961029 0 -0.00175166
883 2 3 31.1018 -358.500101365311707 -1.96509e-14 2.59757461614524665 0.095285 0 -0.0017309
884 2 3 31.1018 -355.500101365311536 -1.94844e-14 2.59757461605049178 0.0944669 0 -0.00171015
885 2 3 31.1018 -352.500101365311423 -1.93178e-14 2.59757461595573647 0.093649 0 -0.00168938
886 2 3 31.1018 -349.500101365311252 -1.91513e-14 2.59757461586098115 0.0928309 0 -0.00166863
887 2 3 31.1018 -346.500101365311139 -1.89848e-14 2.59757461576622584 0.092013 0 -0.00164786
888 2 3 31.1018 -343.500101365310968 -1.88182e-14 2.59757461567147097 0.0911949 0 -0.00162711
889 2 3 31.1018 -340.500101365310854 -1.86517e-14 2.59757461557671565 0.090377 0 -0.00160635
890 2 3 31.1018 -337.500101365310684 -1.84852e-14 2.59757461548196034 0.089559 0 -0.00158559
891 2 3 31.1018 -334.50010136531057 -1.83186e-14 2.59757461538720502 0.088741 0 -0.00156483
892 2 3 31.1018 -331.5001013653104 -1.81521e-14 2.59757461529245015 0.087923 0 -0.00154407
893 2 3 31.1018 -328.500101365310286 -1.79856e-14 2.59757461519769484 0.087105 0 -0.00152331
894 2 3 31.1018 -325.500101365310115 -1.7819e-14 2.59757461510293952 0.086287 0 -0.00150256
895 2 3 31.1018 -322.500101365310002 -1.76525e-14 2.59757461500818421 0.085469 0 -0.00148179
896 2 3 31.1018 -319.500101365309831 -1.7486e-14 2.59757461491342934 0.084651 0 -0.00146104
897 2 3 31.1018 -316.500101365309717 -1.73194e-14 2.59757461481867402 0.083833 0 -0.00144028
898 2 3 31.1018 -313.500101365309547 -1.71529e-14 2.59757461472391871 0.083015 0 -0.00141952
899 2 3 31.1018 -310.500101365309433 -1.69864e-14 2.59757461462916339 0.082197 0 -0.00139876
900 2 3 31.1018 -307.500101365309263 -1.68198e-14 2.59757461453440852 0.081379 0 -0.00137801
901 2 3 31.1018 -304.500101365309149 -1.66533e-14 2.59757461443965321 0.080561 0 -0.00135725
902 2 3 31.1018 -301.500101365308979 -1.64868e-14 2.59757461434489789 0.079743 0 -0.00133649
903 2 3 31.1018 -298.500101365308865 -1.63202e-14 2.59757461425014258 0.078925 0 -0.00131573
904 2 3 31.1018 -295.500101365308694 -1.61537e-14 2.59757461415538771 0.078107 0 -0.00129497
905 2 3 31.1018 -292.500101365308581 -1.59872e-14 2.59757461406063239 0.077289 0 -0.00127421
906 2 3 31.1018 -289.50010136530841 -1.58206e-14 2.59757461396587708 0.076471 0 -0.00125346
907 2 3 31.1018 -286.500101365308296 -1.56541e-14 2.59757461387112176 0.075653 0 -0.0012327
908 2 3 31.1018 -283.500101365308126 -1.54876e-14 2.59757461377636689 0.074835 0 -0.00121194
909 2 3 31.1018 -280.500101365308012 -1.5321e-14 2.59757461368161158 0.074017 0 -0.00119118
910 2 3 31.1018 -277.500101365307842 -1.51545e-14 2.59757461358685626 0.073199 0 -0.00117042
911 2 3 31.1018 -274.500101365307728 -1.4988e-14 2.59757461349210095 0.072381 0 -0.00114966
912 2 3 31.1018 -271.500101365307557 -1.48214e-14 2.59757461339734608 0.071563 0 -0.00112891
913 2 3 31.1018 -268.500101365307444 -1.46549e-14 2.59757461330259076 0.070745 0 -0.00110815
914 2 3 31.1018 -265.500101365307273 -1.44884e-14 2.59757461320783545 0.0699269 0 -0.00108739
915 2 3 31.1018 -262.50010136530716 -1.43218e-14 2.59757461311308013 0.069109 0 -0.00106663
916 2 3 31.1018 -259.500101365307046 -1.41553e-14 2.59757461301832526 0.068291 0 -0.00104587
917 2 3 31.1018 -256.500101365306875 -1.39888e-14 2.59757461292356995 0.067473 0 -0.00102512
918 2 3 31.1018 -253.500101365306762 -1.38222e-14 2.59757461282881463 0.066655 0 -0.00100436
919 2 3 31.1018 -250.50010136530662 -1.36557e-14 2.59757461273405932 0.065837 0 -0.000983596
920 2 3 31.1018 -247.500101365306477 -1.34892e-14 2.59757461263930445 0.065019 0 -0.000962839
921 2 3 31.1018 -244.500101365306335 -1.33226e-14 2.59757461254454913 0.064201 0 -0.000942082
922 2 3 31.1018 -241.500101365306193 -1.31561e-14 2.59757461244979382 0.063383 0 -0.000921325
923 2 3 31.1018 -238.500101365306051 -1.29896e-14 2.5975746123550385 0.062565 0 -0.000900566
924 2 3 31.1018 -235.500101365305909 -1.2823e-14 2.59757461226028363 0.061747 0 -0.000879809
925 2 3 31.1018 -232.500101365305767 -1.26565e-14 2.59757461216552832 0.060929 0 -0.000859052
926 2 3 31.1018 -229.500101365305625 -1.249e-14 2.597574612070773 0.060111 0 -0.000838294
927 2 3 31.1018 -226.500101365305483 -1.23234e-14 2.59757461197601769 0.059293 0 -0.000817536
928 2 3 31.1018 -223.500101365305341 -1.21569e-14 2.59757461188126282 0.058475 0 -0.00079678
929 2 3 31.1018 -220.500101365305198 -1.19904e-14 2.5975746117865075 0.057657 0 -0.000776022
930 2 3 31.1018 -217.500101365305056 -1.18238e-14 2.59757461169175219 0.0568389 0 -0.000755264
931 2 3 31.1018 -214.500101365304914 -1.16573e-14 2.59757461159699687 0.0560209 0 -0.000734506
932 2 3 31.1018 -211.500101365304772 -1.14908e-14 2.597574611502242 0.0552029 0 -0.00071375
933 2 3 31.1018 -208.50010136530463 -1.13242e-14 2.59757461140748669 0.0543849 0 -0.000692992
934 2 3 31.1018 -205.500101365304488 -1.11577e-14 2.59757461131273137 0.0535669 0 -0.000672236
935 2 3 31.1018 -202.500101365304346 -1.09912e-14 2.59757461121797606 0.0527489 0 -0.000651476
936 2 3 31.1018 -199.500101365304204 -1.08247e-14 2.59757461112322119 0.0519309 0 -0.00063072
937 2 3 31.1018 -196.500101365304062 -1.06581e-14 2.59757461102846587 0.0511129 0 -0.000609963
938 2 3 31.1018 -193.500101365303948 -1.04916e-14 2.59757461093371056 0.0502949 0 -0.000589204
939 2 3 31.1018 -190.500101365303806 -1.03251e-14 2.59757461083895524 0.0494769 0 -0.000568447
940 2 3 31.1018 -187.500101365303664 -1.01585e-14 2.59757461074420037 0.0486589 0 -0.000547691
941 2 3 31.1018 -184.500101365303522 -9.99198e-15 2.59757461064944506 0.0478409 0 -0.000526934
942 2 3 31.1018 -181.500101365303379 -9.82545e-15 2.59757461055468974 0.0470229 0 -0.000506175
943 2 3 31.1018 -178.500101365303237 -9.65892e-15 2.59757461045993443 0.0462049 0 -0.000485418
944 2 3 31.1018 -175.500101365303095 -9.49239e-15 2.59757461036517956 0.0453869 0 -0.000464662
945 2 3 31.1018 -172.500101365302953 -9.32585e-15 2.59757461027042424 0.0445689 0 -0.000443905
946 2 3 31.1018 -169.500101365302811 -9.15932e-15 2.59757461017566893 0.0437509 0 -0.000423148