ITEM: TIMESTEP
3800000
ITEM: NUMBER OF ATOMS
251
ITEM: BOX BOUNDS pp pp pp
-2.2500000000000000e+02 2.2500000000000000e+02
-1.0000000000000000e+02 1.0000000000000000e+02
-1.0000000000000000e+02 1.0000000000000000e+02
ITEM: ATOMS id type diameter mass xu yu zu fx fy fz
1 1 3 31.1018 -225 0 0 0 0 0
2 1 3 31.1018 -222 0 0 0 0 0
3 1 3 31.1018 -219 0 0 0 0 0
4 1 3 31.1018 -216 0 0 0 0 0
5 1 3 31.1018 -213 0 0 0 0 0
6 1 3 31.1018 -210 0 0 0 0 0
7 1 3 31.1018 -207 0 0 0 0 0
8 1 3 31.1018 -204 0 0 0 0 0
9 1 3 31.1018 -201 0 0 0 0 0
10 1 3 31.1018 -198 0 0 0 0 0
11 1 3 31.1018 -195 0 0 0 0 0
12 1 3 31.1018 -192 0 0 0 0 0
13 1 3 31.1018 -189 0 0 0 0 0
14 1 3 31.1018 -186 0 0 0 0 0
15 1 3 31.1018 -183 0 0 0 0 0
16 1 3 31.1018 -180 0 0 0 0 0
17 1 3 31.1018 -177 0 0 0 0 0
18 1 3 31.1018 -174 0 0 0 0 0
19 1 3 31.1018 -171 0 0 0 0 0
20 1 3 31.1018 -168 0 0 0 0 0
21 1 3 31.1018 -165 0 0 0 0 0
22 1 3 31.1018 -162 0 0 0 0 0
23 1 3 31.1018 -159 0 0 0 0 0
24 1 3 31.1018 -156 0 0 0 0 0
25 1 3 31.1018 -153 0 0 0 0 0
26 1 3 31.1018 -150 0 0 0 0 0
27 1 3 31.1018 -147 0 0 0 0 0
28 1 3 31.1018 -144 0 0 0 0 0
29 1 3 31.1018 -141 0 0 0 0 0
30 1 3 31.1018 -138 0 0 0 0 0
31 1 3 31.1018 -135 0 0 0 0 0
32 1 3 31.1018 -132 0 0 0 0 0
33 1 3 31.1018 -129 0 0 0 0 0
34 1 3 31.1018 -126 0 0 0 0 0
35 1 3 31.1018 -123 0 0 0 0 0
36 1 3 31.1018 -120 0 0 0 0 0
37 1 3 31.1018 -117 0 0 0 0 0
38 1 3 31.1018 -114 0 0 0 0 0
151 2 3 31.1018 -154.500101445054952 -8.31967e-15 2.59757464134360738 0.567459 0 -0.13282
152 2 3 31.1018 -151.50010144505481 -8.15327e-15 2.59757463950966017 0.551791 0 -0.131675
153 2 3 31.1018 -148.500101445054639 -7.98688e-15 2.59757463767571295 0.536123 0 -0.130531
154 2 3 31.1018 -145.500101445054497 -7.82049e-15 2.59757463584176573 0.520446 0 -0.129382
155 2 3 31.1018 -142.500101445054355 -7.65409e-15 2.59757463400781807 0.504769 0 -0.128233
156 2 3 31.1018 -139.500101445054185 -7.4877e-15 2.59757463217387086 0.489092 0 -0.127084
157 2 3 31.1018 -136.500101445054042 -7.32131e-15 2.59757463033992364 0.49056 0 -0.116033
158 2 3 31.1018 -133.5001014450539 -7.15491e-15 2.59757462850597642 0.498196 0 -0.101421
159 2 3 31.1018 -130.50010144505373 -6.98852e-15 2.59757462667202876 0.505832 0 -0.0868081
160 2 3 31.1018 -127.500101445053588 -6.82213e-15 2.59757462483808155 0.513468 0 -0.0721954
161 2 3 31.1018 -124.500101445053446 -6.65573e-15 2.59757462300413433 0.521099 0 -0.0575792
162 2 3 31.1018 -121.500101445053289 -6.48934e-15 2.59757462117018711 0.528726 0 -0.0429613
163 2 3 31.1018 -118.500101445053147 -6.32295e-15 2.59757461933623945 0.523711 0 -0.035644
164 2 3 31.1018 -115.500101445052991 -6.15655e-15 2.59757461750229224 0.507282 0 -0.0349187
39 1 3 31.1018 -111 0 0 0 0 0
40 1 3 31.1018 -108 0 0 0 0 0
41 1 3 31.1018 -105 0 0 0 0 0
42 1 3 31.1018 -102 0 0 0 0 0
43 1 3 31.1018 -99 0 0 0 0 0
44 1 3 31.1018 -96 0 0 0 0 0
45 1 3 31.1018 -93 0 0 0 0 0
46 1 3 31.1018 -90 0 0 0 0 0
47 1 3 31.1018 -87 0 0 0 0 0
48 1 3 31.1018 -84 0 0 0 0 0
49 1 3 31.1018 -81 0 0 0 0 0
50 1 3 31.1018 -78 0 0 0 0 0
51 1 3 31.1018 -75 0 0 0 0 0
52 1 3 31.1018 -72 0 0 0 0 0
53 1 3 31.1018 -69 0 0 0 0 0
54 1 3 31.1018 -66 0 0 0 0 0
55 1 3 31.1018 -63 0 0 0 0 0
56 1 3 31.1018 -60 0 0 0 0 0
57 1 3 31.1018 -57 0 0 0 0 0
58 1 3 31.1018 -54 0 0 0 0 0
59 1 3 31.1018 -51 0 0 0 0 0
60 1 3 31.1018 -48 0 0 0 0 0
61 1 3 31.1018 -45 0 0 0 0 0
62 1 3 31.1018 -42 0 0 0 0 0
63 1 3 31.1018 -39 0 0 0 0 0
64 1 3 31.1018 -36 0 0 0 0 0
65 1 3 31.1018 -33 0 0 0 0 0
66 1 3 31.1018 -30 0 0 0 0 0
67 1 3 31.1018 -27 0 0 0 0 0
68 1 3 31.1018 -24 0 0 0 0 0
69 1 3 31.1018 -21 0 0 0 0 0
70 1 3 31.1018 -18 0 0 0 0 0
71 1 3 31.1018 -15 0 0 0 0 0
72 1 3 31.1018 -12 0 0 0 0 0
73 1 3 31.1018 -9 0 0 0 0 0
74 1 3 31.1018 -6 0 0 0 0 0
75 1 3 31.1018 -3 0 0 0 0 0
165 2 3 31.1018 -112.500101445052834 -5.99016e-15 2.59757461566834502 0.490853 0 -0.0341935
166 2 3 31.1018 -109.500101445052692 -5.82377e-15 2.59757461383439781 0.474423 0 -0.0334682
167 2 3 31.1018 -106.500101445052536 -5.65737e-15 2.59757461200045014 0.457994 0 -0.032743
168 2 3 31.1018 -103.500101445052394 -5.49098e-15 2.59757461016650293 0.453974 0 -0.0248481
169 2 3 31.1018 -100.500101445052238 -5.32459e-15 2.59757460833255571 0.462368 0 -0.00977734
170 2 3 31.1018 -97.5001014450520813 -5.15819e-15 2.5975746064986085 0.470761 0 0.00529349
171 2 3 31.1018 -94.5001014450519392 -4.9918e-15 2.59757460466466084 0.479154 0 0.0203644
172 2 3 31.1018 -91.5001014450517829 -4.82541e-15 2.59757460283071362 0.474819 0 0.0280844
173 2 3 31.1018 -88.5001014450516408 -4.65901e-15 2.5975746009967664 0.457526 0 0.0283213
174 2 3 31.1018 -85.5001014450514845 -4.49262e-15 2.59757459916281919 0.440232 0 0.0285581
175 2 3 31.1018 -82.5001014450513281 -4.32623e-15 2.59757459732887153 0.4369 0 0.0368577
176 2 3 31.1018 -79.500101445051186 -4.15983e-15 2.59757459549492431 0.446137 0 0.0524249
177 2 3 31.1018 -76.5001014450510297 -3.99344e-15 2.59757459366097709 0.432253 0 0.0546406
178 2 3 31.1018 -73.5001014450508876 -3.82705e-15 2.59757459182702988 0.4141 0 0.0543918
179 2 3 31.1018 -70.5001014450507313 -3.66065e-15 2.59757458999308222 0.395948 0 0.0541429
180 2 3 31.1018 -67.500101445050575 -3.49426e-15 2.597574588159135 0.377795 0 0.0538941
181 2 3 31.1018 -64.5001014450504329 -3.32787e-15 2.59757458632518778 0.359643 0 0.0536452
182 2 3 31.1018 -61.5001014450502836 -3.16147e-15 2.59757458449124057 0.34149 0 0.0533963
183 2 3 31.1018 -58.5001014450501273 -2.99508e-15 2.59757458265729291 0.323333 0 0.0531497
184 2 3 31.1018 -55.5001014450499781 -2.82869e-15 2.59757458082334569 0.305172 0 0.0529059
185 2 3 31.1018 -52.5001014450498289 -2.66229e-15 2.59757457898939847 0.28701 0 0.0526621
186 2 3 31.1018 -49.5001014450496797 -2.4959e-15 2.59757457715545126 0.268848 0 0.0524183
187 2 3 31.1018 -46.5001014450495305 -2.32951e-15 2.5975745753215036 0.250686 0 0.0521744
188 2 3 31.1018 -43.5001014450493741 -2.16311e-15 2.59757457348755638 0.232524 0 0.0519306
189 2 3 31.1018 -40.5001014450492249 -1.99672e-15 2.59757457165360917 0.214362 0 0.0516867
190 2 3 31.1018 -37.5001014450490757 -1.83033e-15 2.59757456981966195 0.1962 0 0.0514428
191 2 3 31.1018 -34.5001014450489265 -1.66393e-15 2.59757456798571429 0.178029 0 0.051204
192 2 3 31.1018 -31.5001014450487737 -1.49754e-15 2.59757456615176707 0.159858 0 0.0509653
193 2 3 31.1018 -28.5001014450486245 -1.33115e-15 2.59757456431781986 0.141687 0 0.0507265
194 2 3 31.1018 -25.5001014450484753 -1.16475e-15 2.59757456248387264 0.123515 0 0.0504876
195 2 3 31.1018 -22.5001014450483225 -9.9836e-16 2.59757456064992498 0.105344 0 0.0502488
196 2 3 31.1018 -19.5001014450481733 -8.31967e-16 2.59757455881597776 0.0871724 0 0.05001
197 2 3 31.1018 -16.5001014450480206 -6.65573e-16 2.59757455698203055 0.0690009 0 0.0497711
198 2 3 31.1018 -13.5001014450478714 -4.9918e-16 2.59757455514808333 0.0508247 0 0.0495349
199 2 3 31.1018 -10.5001014450477204 -3.32787e-16 2.59757455331413567 0.0326442 0 0.0493011
200 2 3 31.1018 -7.50010144504756937 -1.66393e-16 2.59757455148018845 0.0144636 0 0.0490673
201 2 3 31.1018 -4.50010144504741927 0 2.59757454964624124 -0.00371713 0 0.0488335
202 2 3 31.1018 -1.50010144504726872 1.66393e-16 2.59757454781229402 -0.0218979 0 0.0485997
76 1 3 31.1018 0 0 0 0 0 0
77 1 3 31.1018 3 0 0 0 0 0
78 1 3 31.1018 6 0 0 0 0 0
79 1 3 31.1018 9 0 0 0 0 0
80 1 3 31.1018 12 0 0 0 0 0
81 1 3 31.1018 15 0 0 0 0 0
82 1 3 31.1018 18 0 0 0 0 0
83 1 3 31.1018 21 0 0 0 0 0
84 1 3 31.1018 24 0 0 0 0 0
85 1 3 31.1018 27 0 0 0 0 0
86 1 3 31.1018 30 0 0 0 0 0
87 1 3 31.1018 33 0 0 0 0 0
88 1 3 31.1018 36 0 0 0 0 0
89 1 3 31.1018 39 0 0 0 0 0
90 1 3 31.1018 42 0 0 0 0 0
91 1 3 31.1018 45 0 0 0 0 0
92 1 3 31.1018 48 0 0 0 0 0
93 1 3 31.1018 51 0 0 0 0 0
94 1 3 31.1018 54 0 0 0 0 0
95 1 3 31.1018 57 0 0 0 0 0
96 1 3 31.1018 60 0 0 0 0 0
97 1 3 31.1018 63 0 0 0 0 0
98 1 3 31.1018 66 0 0 0 0 0
99 1 3 31.1018 69 0 0 0 0 0
100 1 3 31.1018 72 0 0 0 0 0
101 1 3 31.1018 75 0 0 0 0 0
102 1 3 31.1018 78 0 0 0 0 0
103 1 3 31.1018 81 0 0 0 0 0
104 1 3 31.1018 84 0 0 0 0 0
105 1 3 31.1018 87 0 0 0 0 0
106 1 3 31.1018 90 0 0 0 0 0
107 1 3 31.1018 93 0 0 0 0 0
108 1 3 31.1018 96 0 0 0 0 0
109 1 3 31.1018 99 0 0 0 0 0
110 1 3 31.1018 102 0 0 0 0 0
111 1 3 31.1018 105 0 0 0 0 0
112 1 3 31.1018 108 0 0 0 0 0
113 1 3 31.1018 111 0 0 0 0 0
203 2 3 31.1018 1.49989855495288182 3.32787e-16 2.5975745459783468 -0.0400787 0 0.0483658
204 2 3 31.1018 4.49989855495303193 4.9918e-16 2.59757454414439914 -0.0582596 0 0.048132
205 2 3 31.1018 7.49989855495318292 6.65573e-16 2.59757454231045193 -0.0764407 0 0.0478982
206 2 3 31.1018 10.499898554953333 8.31967e-16 2.59757454047650471 -0.0946306 0 0.0476694
207 2 3 31.1018 13.4998985549534822 9.9836e-16 2.5975745386425575 -0.112821 0 0.0474406
208 2 3 31.1018 16.499898554953635 1.16475e-15 2.59757453680860984 -0.131011 0 0.0472118
209 2 3 31.1018 19.4998985549537842 1.33115e-15 2.59757453497466262 -0.149201 0 0.046983
210 2 3 31.1018 22.4998985549539334 1.49754e-15 2.5975745331407154 -0.162709 0 0.0440508
211 2 3 31.1018 25.4998985549540862 1.66393e-15 2.59757453130676819 -0.175891 0 0.0409298
212 2 3 31.1018 28.4998985549542354 1.83033e-15 2.59757452947282053 -0.189072 0 0.0378087
213 2 3 31.1018 31.4998985549543846 1.99672e-15 2.59757452763887331 -0.202246 0 0.0346829
214 2 3 31.1018 34.4998985549545338 2.16311e-15 2.59757452580492609 -0.215413 0 0.0315538
215 2 3 31.1018 37.4998985549546902 2.32951e-15 2.59757452397097888 -0.228581 0 0.0284247
216 2 3 31.1018 40.4998985549548394 2.4959e-15 2.59757452213703122 -0.241749 0 0.0252956
217 2 3 31.1018 43.4998985549549886 2.66229e-15 2.597574520303084 -0.254917 0 0.0221665
218 2 3 31.1018 46.4998985549551378 2.82869e-15 2.59757451846913678 -0.268074 0 0.0190306
219 2 3 31.1018 49.499898554955287 2.99508e-15 2.59757451663518957 -0.281228 0 0.0158935
220 2 3 31.1018 52.4998985549554433 3.16147e-15 2.59757451480124191 -0.294383 0 0.0127563
221 2 3 31.1018 55.4998985549555925 3.32787e-15 2.59757451296729469 -0.307537 0 0.00961907
222 2 3 31.1018 58.4998985549557418 3.49426e-15 2.59757451113334747 -0.320691 0 0.00648139
223 2 3 31.1018 61.499898554955891 3.66065e-15 2.59757450929940026 -0.333832 0 0.00333616
224 2 3 31.1018 64.4998985549560473 3.82705e-15 2.5975745074654526 -0.346973 0 0.000190898
225 2 3 31.1018 67.4998985549561894 3.99344e-15 2.59757450563150538 -0.360113 0 -0.00295438
226 2 3 31.1018 70.4998985549563457 4.15983e-15 2.59757450379755817 -0.373254 0 -0.00609969
227 2 3 31.1018 73.4998985549564878 4.32623e-15 2.59757450196361095 -0.386392 0 -0.00924712
228 2 3 31.1018 76.4998985549566441 4.49262e-15 2.59757450012966329 -0.399519 0 -0.0124004
229 2 3 31.1018 79.4998985549568005 4.65901e-15 2.59757449829571607 -0.412204 0 -0.0152982
230 2 3 31.1018 82.4998985549569426 4.82541e-15 2.59757449646176886 -0.424475 0 -0.0179573
231 2 3 31.1018 85.4998985549570989 4.9918e-15 2.59757449462782164 -0.436747 0 -0.0206165
232 2 3 31.1018 88.499898554957241 5.15819e-15 2.59757449279387398 -0.449012 0 -0.0232794
233 2 3 31.1018 91.4998985549573973 5.32459e-15 2.59757449095992676 -0.46127 0 -0.0259465
234 2 3 31.1018 94.4998985549575536 5.49098e-15 2.59757448912597955 -0.473529 0 -0.0286137
235 2 3 31.1018 97.4998985549576958 5.65737e-15 2.59757448729203233 -0.485787 0 -0.031281
236 2 3 31.1018 100.499898554957852 5.82377e-15 2.59757448545808467 -0.498045 0 -0.0339482
237 2 3 31.1018 103.499898554957994 5.99016e-15 2.59757448362413745 -0.510294 0 -0.0366206
238 2 3 31.1018 106.49989855495815 6.15655e-15 2.59757448179019024 -0.522539 0 -0.0392958
239 2 3 31.1018 109.499898554958307 6.32295e-15 2.59757447995624302 -0.534781 0 -0.04197
114 1 3 31.1018 114 0 0 0 0 0
115 1 3 31.1018 117 0 0 0 0 0
116 1 3 31.1018 120 0 0 0 0 0
117 1 3 31.1018 123 0 0 0 0 0
118 1 3 31.1018 126 0 0 0 0 0
119 1 3 31.1018 129 0 0 0 0 0
120 1 3 31.1018 132 0 0 0 0 0
121 1 3 31.1018 135 0 0 0 0 0
122 1 3 31.1018 138 0 0 0 0 0
123 1 3 31.1018 141 0 0 0 0 0
124 1 3 31.1018 144 0 0 0 0 0
125 1 3 31.1018 147 0 0 0 0 0
126 1 3 31.1018 150 0 0 0 0 0
127 1 3 31.1018 153 0 0 0 0 0
128 1 3 31.1018 156 0 0 0 0 0
129 1 3 31.1018 159 0 0 0 0 0
130 1 3 31.1018 162 0 0 0 0 0
131 1 3 31.1018 165 0 0 0 0 0
132 1 3 31.1018 168 0 0 0 0 0
133 1 3 31.1018 171 0 0 0 0 0
134 1 3 31.1018 174 0 0 0 0 0
135 1 3 31.1018 177 0 0 0 0 0
136 1 3 31.1018 180 0 0 0 0 0
137 1 3 31.1018 183 0 0 0 0 0
138 1 3 31.1018 186 0 0 0 0 0
139 1 3 31.1018 189 0 0 0 0 0
140 1 3 31.1018 192 0 0 0 0 0
141 1 3 31.1018 195 0 0 0 0 0
142 1 3 31.1018 198 0 0 0 0 0
143 1 3 31.1018 201 0 0 0 0 0
144 1 3 31.1018 204 0 0 0 0 0
145 1 3 31.1018 207 0 0 0 0 0
146 1 3 31.1018 210 0 0 0 0 0
147 1 3 31.1018 213 0 0 0 0 0
148 1 3 31.1018 216 0 0 0 0 0
149 1 3 31.1018 219 0 0 0 0 0
150 1 3 31.1018 222 0 0 0 0 0
240 2 3 31.1018 112.499898554958449 6.48934e-15 2.59757447812229536 -0.548598 0 -0.043735
241 2 3 31.1018 115.499898554958605 6.65573e-15 2.59757447628834814 -0.566562 0 -0.0431052
242 2 3 31.1018 118.499898554958747 6.82213e-15 2.59757447445440093 -0.584531 0 -0.0424726
243 2 3 31.1018 121.499898554958904 6.98852e-15 2.59757447262045371 -0.6025 0 -0.0418399
244 2 3 31.1018 124.49989855495906 7.15491e-15 2.59757447078650605 -0.606583 0 -0.0331812
245 2 3 31.1018 127.499898554959202 7.32131e-15 2.59757446895255883 -0.607213 0 -0.0225134
246 2 3 31.1018 130.499898554959344 7.4877e-15 2.59757446711861162 -0.607843 0 -0.0118456
247 2 3 31.1018 133.499898554959515 7.65409e-15 2.5975744652846644 -0.608474 0 -0.00117771
248 2 3 31.1018 136.499898554959657 7.82049e-15 2.59757446345071674 -0.609119 0 0.00949919
249 2 3 31.1018 139.499898554959799 7.98688e-15 2.59757446161676953 -0.609769 0 0.0201781
250 2 3 31.1018 142.499898554959969 8.15327e-15 2.59757445978282231 -0.610418 0 0.030857
251 2 3 31.1018 145.499898554960112 8.31967e-15 2.59757445794887509 -0.611075 0 0.041539
