ITEM: TIMESTEP
5000000
ITEM: NUMBER OF ATOMS
3501
ITEM: BOX BOUNDS pp pp pp
-3.1500000000000000e+03 3.1500000000000000e+03
-1.0000000000000000e+02 1.0000000000000000e+02
-1.0000000000000000e+02 1.0000000000000000e+02
ITEM: ATOMS id type diameter mass xu yu zu fx fy fz
1 1 3 31.1018 -3150 0 0 0 0 0
2 1 3 31.1018 -3147 0 0 0 0 0
3 1 3 31.1018 -3144 0 0 0 0 0
4 1 3 31.1018 -3141 0 0 0 0 0
5 1 3 31.1018 -3138 0 0 0 0 0
6 1 3 31.1018 -3135 0 0 0 0 0
7 1 3 31.1018 -3132 0 0 0 0 0
8 1 3 31.1018 -3129 0 0 0 0 0
9 1 3 31.1018 -3126 0 0 0 0 0
10 1 3 31.1018 -3123 0 0 0 0 0
11 1 3 31.1018 -3120 0 0 0 0 0
12 1 3 31.1018 -3117 0 0 0 0 0
13 1 3 31.1018 -3114 0 0 0 0 0
14 1 3 31.1018 -3111 0 0 0 0 0
15 1 3 31.1018 -3108 0 0 0 0 0
16 1 3 31.1018 -3105 0 0 0 0 0
17 1 3 31.1018 -3102 0 0 0 0 0
18 1 3 31.1018 -3099 0 0 0 0 0
19 1 3 31.1018 -3096 0 0 0 0 0
20 1 3 31.1018 -3093 0 0 0 0 0
21 1 3 31.1018 -3090 0 0 0 0 0
22 1 3 31.1018 -3087 0 0 0 0 0
23 1 3 31.1018 -3084 0 0 0 0 0
24 1 3 31.1018 -3081 0 0 0 0 0
25 1 3 31.1018 -3078 0 0 0 0 0
26 1 3 31.1018 -3075 0 0 0 0 0
27 1 3 31.1018 -3072 0 0 0 0 0
28 1 3 31.1018 -3069 0 0 0 0 0
29 1 3 31.1018 -3066 0 0 0 0 0
30 1 3 31.1018 -3063 0 0 0 0 0
31 1 3 31.1018 -3060 0 0 0 0 0
32 1 3 31.1018 -3057 0 0 0 0 0
33 1 3 31.1018 -3054 0 0 0 0 0
34 1 3 31.1018 -3051 0 0 0 0 0
35 1 3 31.1018 -3048 0 0 0 0 0
36 1 3 31.1018 -3045 0 0 0 0 0
37 1 3 31.1018 -3042 0 0 0 0 0
38 1 3 31.1018 -3039 0 0 0 0 0
39 1 3 31.1018 -3036 0 0 0 0 0
40 1 3 31.1018 -3033 0 0 0 0 0
41 1 3 31.1018 -3030 0 0 0 0 0
42 1 3 31.1018 -3027 0 0 0 0 0
43 1 3 31.1018 -3024 0 0 0 0 0
44 1 3 31.1018 -3021 0 0 0 0 0
45 1 3 31.1018 -3018 0 0 0 0 0
46 1 3 31.1018 -3015 0 0 0 0 0
47 1 3 31.1018 -3012 0 0 0 0 0
48 1 3 31.1018 -3009 0 0 0 0 0
49 1 3 31.1018 -3006 0 0 0 0 0
50 1 3 31.1018 -3003 0 0 0 0 0
51 1 3 31.1018 -3000 0 0 0 0 0
52 1 3 31.1018 -2997 0 0 0 0 0
53 1 3 31.1018 -2994 0 0 0 0 0
54 1 3 31.1018 -2991 0 0 0 0 0
55 1 3 31.1018 -2988 0 0 0 0 0
56 1 3 31.1018 -2985 0 0 0 0 0
57 1 3 31.1018 -2982 0 0 0 0 0
58 1 3 31.1018 -2979 0 0 0 0 0
59 1 3 31.1018 -2976 0 0 0 0 0
60 1 3 31.1018 -2973 0 0 0 0 0
61 1 3 31.1018 -2970 0 0 0 0 0
62 1 3 31.1018 -2967 0 0 0 0 0
63 1 3 31.1018 -2964 0 0 0 0 0
64 1 3 31.1018 -2961 0 0 0 0 0
65 1 3 31.1018 -2958 0 0 0 0 0
66 1 3 31.1018 -2955 0 0 0 0 0
67 1 3 31.1018 -2952 0 0 0 0 0
68 1 3 31.1018 -2949 0 0 0 0 0
69 1 3 31.1018 -2946 0 0 0 0 0
70 1 3 31.1018 -2943 0 0 0 0 0
71 1 3 31.1018 -2940 0 0 0 0 0
72 1 3 31.1018 -2937 0 0 0 0 0
73 1 3 31.1018 -2934 0 0 0 0 0
74 1 3 31.1018 -2931 0 0 0 0 0
75 1 3 31.1018 -2928 0 0 0 0 0
76 1 3 31.1018 -2925 0 0 0 0 0
77 1 3 31.1018 -2922 0 0 0 0 0
78 1 3 31.1018 -2919 0 0 0 0 0
79 1 3 31.1018 -2916 0 0 0 0 0
80 1 3 31.1018 -2913 0 0 0 0 0
81 1 3 31.1018 -2910 0 0 0 0 0
82 1 3 31.1018 -2907 0 0 0 0 0
83 1 3 31.1018 -2904 0 0 0 0 0
84 1 3 31.1018 -2901 0 0 0 0 0
85 1 3 31.1018 -2898 0 0 0 0 0
86 1 3 31.1018 -2895 0 0 0 0 0
87 1 3 31.1018 -2892 0 0 0 0 0
88 1 3 31.1018 -2889 0 0 0 0 0
89 1 3 31.1018 -2886 0 0 0 0 0
90 1 3 31.1018 -2883 0 0 0 0 0
91 1 3 31.1018 -2880 0 0 0 0 0
92 1 3 31.1018 -2877 0 0 0 0 0
93 1 3 31.1018 -2874 0 0 0 0 0
94 1 3 31.1018 -2871 0 0 0 0 0
95 1 3 31.1018 -2868 0 0 0 0 0
96 1 3 31.1018 -2865 0 0 0 0 0
97 1 3 31.1018 -2862 0 0 0 0 0
98 1 3 31.1018 -2859 0 0 0 0 0
99 1 3 31.1018 -2856 0 0 0 0 0
100 1 3 31.1018 -2853 0 0 0 0 0
101 1 3 31.1018 -2850 0 0 0 0 0
102 1 3 31.1018 -2847 0 0 0 0 0
103 1 3 31.1018 -2844 0 0 0 0 0
104 1 3 31.1018 -2841 0 0 0 0 0
105 1 3 31.1018 -2838 0 0 0 0 0
106 1 3 31.1018 -2835 0 0 0 0 0
107 1 3 31.1018 -2832 0 0 0 0 0
108 1 3 31.1018 -2829 0 0 0 0 0
109 1 3 31.1018 -2826 0 0 0 0 0
110 1 3 31.1018 -2823 0 0 0 0 0
111 1 3 31.1018 -2820 0 0 0 0 0
112 1 3 31.1018 -2817 0 0 0 0 0
113 1 3 31.1018 -2814 0 0 0 0 0
114 1 3 31.1018 -2811 0 0 0 0 0
115 1 3 31.1018 -2808 0 0 0 0 0
116 1 3 31.1018 -2805 0 0 0 0 0
117 1 3 31.1018 -2802 0 0 0 0 0
118 1 3 31.1018 -2799 0 0 0 0 0
119 1 3 31.1018 -2796 0 0 0 0 0
120 1 3 31.1018 -2793 0 0 0 0 0
121 1 3 31.1018 -2790 0 0 0 0 0
122 1 3 31.1018 -2787 0 0 0 0 0
123 1 3 31.1018 -2784 0 0 0 0 0
124 1 3 31.1018 -2781 0 0 0 0 0
125 1 3 31.1018 -2778 0 0 0 0 0
126 1 3 31.1018 -2775 0 0 0 0 0
127 1 3 31.1018 -2772 0 0 0 0 0
128 1 3 31.1018 -2769 0 0 0 0 0
129 1 3 31.1018 -2766 0 0 0 0 0
130 1 3 31.1018 -2763 0 0 0 0 0
131 1 3 31.1018 -2760 0 0 0 0 0
132 1 3 31.1018 -2757 0 0 0 0 0
133 1 3 31.1018 -2754 0 0 0 0 0
134 1 3 31.1018 -2751 0 0 0 0 0
135 1 3 31.1018 -2748 0 0 0 0 0
136 1 3 31.1018 -2745 0 0 0 0 0
137 1 3 31.1018 -2742 0 0 0 0 0
138 1 3 31.1018 -2739 0 0 0 0 0
139 1 3 31.1018 -2736 0 0 0 0 0
140 1 3 31.1018 -2733 0 0 0 0 0
141 1 3 31.1018 -2730 0 0 0 0 0
142 1 3 31.1018 -2727 0 0 0 0 0
143 1 3 31.1018 -2724 0 0 0 0 0
144 1 3 31.1018 -2721 0 0 0 0 0
145 1 3 31.1018 -2718 0 0 0 0 0
146 1 3 31.1018 -2715 0 0 0 0 0
147 1 3 31.1018 -2712 0 0 0 0 0
148 1 3 31.1018 -2709 0 0 0 0 0
149 1 3 31.1018 -2706 0 0 0 0 0
150 1 3 31.1018 -2703 0 0 0 0 0
151 1 3 31.1018 -2700 0 0 0 0 0
152 1 3 31.1018 -2697 0 0 0 0 0
153 1 3 31.1018 -2694 0 0 0 0 0
154 1 3 31.1018 -2691 0 0 0 0 0
155 1 3 31.1018 -2688 0 0 0 0 0
156 1 3 31.1018 -2685 0 0 0 0 0
157 1 3 31.1018 -2682 0 0 0 0 0
158 1 3 31.1018 -2679 0 0 0 0 0
159 1 3 31.1018 -2676 0 0 0 0 0
160 1 3 31.1018 -2673 0 0 0 0 0
161 1 3 31.1018 -2670 0 0 0 0 0
162 1 3 31.1018 -2667 0 0 0 0 0
163 1 3 31.1018 -2664 0 0 0 0 0
164 1 3 31.1018 -2661 0 0 0 0 0
165 1 3 31.1018 -2658 0 0 0 0 0
166 1 3 31.1018 -2655 0 0 0 0 0
167 1 3 31.1018 -2652 0 0 0 0 0
168 1 3 31.1018 -2649 0 0 0 0 0
169 1 3 31.1018 -2646 0 0 0 0 0
170 1 3 31.1018 -2643 0 0 0 0 0
171 1 3 31.1018 -2640 0 0 0 0 0
172 1 3 31.1018 -2637 0 0 0 0 0
173 1 3 31.1018 -2634 0 0 0 0 0
174 1 3 31.1018 -2631 0 0 0 0 0
175 1 3 31.1018 -2628 0 0 0 0 0
176 1 3 31.1018 -2625 0 0 0 0 0
177 1 3 31.1018 -2622 0 0 0 0 0
178 1 3 31.1018 -2619 0 0 0 0 0
179 1 3 31.1018 -2616 0 0 0 0 0
180 1 3 31.1018 -2613 0 0 0 0 0
181 1 3 31.1018 -2610 0 0 0 0 0
182 1 3 31.1018 -2607 0 0 0 0 0
183 1 3 31.1018 -2604 0 0 0 0 0
184 1 3 31.1018 -2601 0 0 0 0 0
185 1 3 31.1018 -2598 0 0 0 0 0
186 1 3 31.1018 -2595 0 0 0 0 0
187 1 3 31.1018 -2592 0 0 0 0 0
188 1 3 31.1018 -2589 0 0 0 0 0
189 1 3 31.1018 -2586 0 0 0 0 0
190 1 3 31.1018 -2583 0 0 0 0 0
191 1 3 31.1018 -2580 0 0 0 0 0
192 1 3 31.1018 -2577 0 0 0 0 0
193 1 3 31.1018 -2574 0 0 0 0 0
194 1 3 31.1018 -2571 0 0 0 0 0
195 1 3 31.1018 -2568 0 0 0 0 0
196 1 3 31.1018 -2565 0 0 0 0 0
197 1 3 31.1018 -2562 0 0 0 0 0
198 1 3 31.1018 -2559 0 0 0 0 0
199 1 3 31.1018 -2556 0 0 0 0 0
200 1 3 31.1018 -2553 0 0 0 0 0
201 1 3 31.1018 -2550 0 0 0 0 0
202 1 3 31.1018 -2547 0 0 0 0 0
203 1 3 31.1018 -2544 0 0 0 0 0
204 1 3 31.1018 -2541 0 0 0 0 0
205 1 3 31.1018 -2538 0 0 0 0 0
206 1 3 31.1018 -2535 0 0 0 0 0
207 1 3 31.1018 -2532 0 0 0 0 0
208 1 3 31.1018 -2529 0 0 0 0 0
209 1 3 31.1018 -2526 0 0 0 0 0
210 1 3 31.1018 -2523 0 0 0 0 0
211 1 3 31.1018 -2520 0 0 0 0 0
212 1 3 31.1018 -2517 0 0 0 0 0
213 1 3 31.1018 -2514 0 0 0 0 0
214 1 3 31.1018 -2511 0 0 0 0 0
215 1 3 31.1018 -2508 0 0 0 0 0
216 1 3 31.1018 -2505 0 0 0 0 0
217 1 3 31.1018 -2502 0 0 0 0 0
218 1 3 31.1018 -2499 0 0 0 0 0
219 1 3 31.1018 -2496 0 0 0 0 0
220 1 3 31.1018 -2493 0 0 0 0 0
221 1 3 31.1018 -2490 0 0 0 0 0
222 1 3 31.1018 -2487 0 0 0 0 0
223 1 3 31.1018 -2484 0 0 0 0 0
224 1 3 31.1018 -2481 0 0 0 0 0
225 1 3 31.1018 -2478 0 0 0 0 0
226 1 3 31.1018 -2475 0 0 0 0 0
227 1 3 31.1018 -2472 0 0 0 0 0
228 1 3 31.1018 -2469 0 0 0 0 0
229 1 3 31.1018 -2466 0 0 0 0 0
230 1 3 31.1018 -2463 0 0 0 0 0
231 1 3 31.1018 -2460 0 0 0 0 0
232 1 3 31.1018 -2457 0 0 0 0 0
233 1 3 31.1018 -2454 0 0 0 0 0
234 1 3 31.1018 -2451 0 0 0 0 0
235 1 3 31.1018 -2448 0 0 0 0 0
236 1 3 31.1018 -2445 0 0 0 0 0
237 1 3 31.1018 -2442 0 0 0 0 0
238 1 3 31.1018 -2439 0 0 0 0 0
239 1 3 31.1018 -2436 0 0 0 0 0
240 1 3 31.1018 -2433 0 0 0 0 0
241 1 3 31.1018 -2430 0 0 0 0 0
242 1 3 31.1018 -2427 0 0 0 0 0
243 1 3 31.1018 -2424 0 0 0 0 0
244 1 3 31.1018 -2421 0 0 0 0 0
245 1 3 31.1018 -2418 0 0 0 0 0
246 1 3 31.1018 -2415 0 0 0 0 0
247 1 3 31.1018 -2412 0 0 0 0 0
248 1 3 31.1018 -2409 0 0 0 0 0
249 1 3 31.1018 -2406 0 0 0 0 0
250 1 3 31.1018 -2403 0 0 0 0 0
251 1 3 31.1018 -2400 0 0 0 0 0
252 1 3 31.1018 -2397 0 0 0 0 0
253 1 3 31.1018 -2394 0 0 0 0 0
254 1 3 31.1018 -2391 0 0 0 0 0
255 1 3 31.1018 -2388 0 0 0 0 0
256 1 3 31.1018 -2385 0 0 0 0 0
257 1 3 31.1018 -2382 0 0 0 0 0
258 1 3 31.1018 -2379 0 0 0 0 0
259 1 3 31.1018 -2376 0 0 0 0 0
260 1 3 31.1018 -2373 0 0 0 0 0
261 1 3 31.1018 -2370 0 0 0 0 0
262 1 3 31.1018 -2367 0 0 0 0 0
263 1 3 31.1018 -2364 0 0 0 0 0
264 1 3 31.1018 -2361 0 0 0 0 0
265 1 3 31.1018 -2358 0 0 0 0 0
266 1 3 31.1018 -2355 0 0 0 0 0
267 1 3 31.1018 -2352 0 0 0 0 0
268 1 3 31.1018 -2349 0 0 0 0 0
269 1 3 31.1018 -2346 0 0 0 0 0
270 1 3 31.1018 -2343 0 0 0 0 0
271 1 3 31.1018 -2340 0 0 0 0 0
272 1 3 31.1018 -2337 0 0 0 0 0
273 1 3 31.1018 -2334 0 0 0 0 0
274 1 3 31.1018 -2331 0 0 0 0 0
275 1 3 31.1018 -2328 0 0 0 0 0
276 1 3 31.1018 -2325 0 0 0 0 0
277 1 3 31.1018 -2322 0 0 0 0 0
278 1 3 31.1018 -2319 0 0 0 0 0
279 1 3 31.1018 -2316 0 0 0 0 0
280 1 3 31.1018 -2313 0 0 0 0 0
281 1 3 31.1018 -2310 0 0 0 0 0
282 1 3 31.1018 -2307 0 0 0 0 0
283 1 3 31.1018 -2304 0 0 0 0 0
284 1 3 31.1018 -2301 0 0 0 0 0
285 1 3 31.1018 -2298 0 0 0 0 0
286 1 3 31.1018 -2295 0 0 0 0 0
287 1 3 31.1018 -2292 0 0 0 0 0
288 1 3 31.1018 -2289 0 0 0 0 0
289 1 3 31.1018 -2286 0 0 0 0 0
290 1 3 31.1018 -2283 0 0 0 0 0
291 1 3 31.1018 -2280 0 0 0 0 0
292 1 3 31.1018 -2277 0 0 0 0 0
293 1 3 31.1018 -2274 0 0 0 0 0
294 1 3 31.1018 -2271 0 0 0 0 0
295 1 3 31.1018 -2268 0 0 0 0 0
296 1 3 31.1018 -2265 0 0 0 0 0
297 1 3 31.1018 -2262 0 0 0 0 0
298 1 3 31.1018 -2259 0 0 0 0 0
299 1 3 31.1018 -2256 0 0 0 0 0
300 1 3 31.1018 -2253 0 0 0 0 0
301 1 3 31.1018 -2250 0 0 0 0 0
302 1 3 31.1018 -2247 0 0 0 0 0
303 1 3 31.1018 -2244 0 0 0 0 0
304 1 3 31.1018 -2241 0 0 0 0 0
305 1 3 31.1018 -2238 0 0 0 0 0
306 1 3 31.1018 -2235 0 0 0 0 0
307 1 3 31.1018 -2232 0 0 0 0 0
308 1 3 31.1018 -2229 0 0 0 0 0
309 1 3 31.1018 -2226 0 0 0 0 0
310 1 3 31.1018 -2223 0 0 0 0 0
311 1 3 31.1018 -2220 0 0 0 0 0
312 1 3 31.1018 -2217 0 0 0 0 0
313 1 3 31.1018 -2214 0 0 0 0 0
314 1 3 31.1018 -2211 0 0 0 0 0
315 1 3 31.1018 -2208 0 0 0 0 0
316 1 3 31.1018 -2205 0 0 0 0 0
317 1 3 31.1018 -2202 0 0 0 0 0
318 1 3 31.1018 -2199 0 0 0 0 0
319 1 3 31.1018 -2196 0 0 0 0 0
320 1 3 31.1018 -2193 0 0 0 0 0
321 1 3 31.1018 -2190 0 0 0 0 0
322 1 3 31.1018 -2187 0 0 0 0 0
323 1 3 31.1018 -2184 0 0 0 0 0
324 1 3 31.1018 -2181 0 0 0 0 0
325 1 3 31.1018 -2178 0 0 0 0 0
326 1 3 31.1018 -2175 0 0 0 0 0
327 1 3 31.1018 -2172 0 0 0 0 0
328 1 3 31.1018 -2169 0 0 0 0 0
329 1 3 31.1018 -2166 0 0 0 0 0
330 1 3 31.1018 -2163 0 0 0 0 0
331 1 3 31.1018 -2160 0 0 0 0 0
332 1 3 31.1018 -2157 0 0 0 0 0
333 1 3 31.1018 -2154 0 0 0 0 0
334 1 3 31.1018 -2151 0 0 0 0 0
335 1 3 31.1018 -2148 0 0 0 0 0
336 1 3 31.1018 -2145 0 0 0 0 0
337 1 3 31.1018 -2142 0 0 0 0 0
338 1 3 31.1018 -2139 0 0 0 0 0
339 1 3 31.1018 -2136 0 0 0 0 0
340 1 3 31.1018 -2133 0 0 0 0 0
341 1 3 31.1018 -2130 0 0 0 0 0
342 1 3 31.1018 -2127 0 0 0 0 0
343 1 3 31.1018 -2124 0 0 0 0 0
344 1 3 31.1018 -2121 0 0 0 0 0
345 1 3 31.1018 -2118 0 0 0 0 0
346 1 3 31.1018 -2115 0 0 0 0 0
347 1 3 31.1018 -2112 0 0 0 0 0
348 1 3 31.1018 -2109 0 0 0 0 0
349 1 3 31.1018 -2106 0 0 0 0 0
350 1 3 31.1018 -2103 0 0 0 0 0
351 1 3 31.1018 -2100 0 0 0 0 0
352 1 3 31.1018 -2097 0 0 0 0 0
353 1 3 31.1018 -2094 0 0 0 0 0
354 1 3 31.1018 -2091 0 0 0 0 0
355 1 3 31.1018 -2088 0 0 0 0 0
356 1 3 31.1018 -2085 0 0 0 0 0
357 1 3 31.1018 -2082 0 0 0 0 0
358 1 3 31.1018 -2079 0 0 0 0 0
359 1 3 31.1018 -2076 0 0 0 0 0
360 1 3 31.1018 -2073 0 0 0 0 0
361 1 3 31.1018 -2070 0 0 0 0 0
362 1 3 31.1018 -2067 0 0 0 0 0
363 1 3 31.1018 -2064 0 0 0 0 0
364 1 3 31.1018 -2061 0 0 0 0 0
365 1 3 31.1018 -2058 0 0 0 0 0
366 1 3 31.1018 -2055 0 0 0 0 0
367 1 3 31.1018 -2052 0 0 0 0 0
368 1 3 31.1018 -2049 0 0 0 0 0
369 1 3 31.1018 -2046 0 0 0 0 0
370 1 3 31.1018 -2043 0 0 0 0 0
371 1 3 31.1018 -2040 0 0 0 0 0
372 1 3 31.1018 -2037 0 0 0 0 0
373 1 3 31.1018 -2034 0 0 0 0 0
374 1 3 31.1018 -2031 0 0 0 0 0
375 1 3 31.1018 -2028 0 0 0 0 0
376 1 3 31.1018 -2025 0 0 0 0 0
377 1 3 31.1018 -2022 0 0 0 0 0
378 1 3 31.1018 -2019 0 0 0 0 0
379 1 3 31.1018 -2016 0 0 0 0 0
380 1 3 31.1018 -2013 0 0 0 0 0
381 1 3 31.1018 -2010 0 0 0 0 0
382 1 3 31.1018 -2007 0 0 0 0 0
383 1 3 31.1018 -2004 0 0 0 0 0
384 1 3 31.1018 -2001 0 0 0 0 0
385 1 3 31.1018 -1998 0 0 0 0 0
386 1 3 31.1018 -1995 0 0 0 0 0
387 1 3 31.1018 -1992 0 0 0 0 0
388 1 3 31.1018 -1989 0 0 0 0 0
389 1 3 31.1018 -1986 0 0 0 0 0
390 1 3 31.1018 -1983 0 0 0 0 0
391 1 3 31.1018 -1980 0 0 0 0 0
392 1 3 31.1018 -1977 0 0 0 0 0
393 1 3 31.1018 -1974 0 0 0 0 0
394 1 3 31.1018 -1971 0 0 0 0 0
395 1 3 31.1018 -1968 0 0 0 0 0
396 1 3 31.1018 -1965 0 0 0 0 0
397 1 3 31.1018 -1962 0 0 0 0 0
398 1 3 31.1018 -1959 0 0 0 0 0
399 1 3 31.1018 -1956 0 0 0 0 0
400 1 3 31.1018 -1953 0 0 0 0 0
401 1 3 31.1018 -1950 0 0 0 0 0
402 1 3 31.1018 -1947 0 0 0 0 0
403 1 3 31.1018 -1944 0 0 0 0 0
404 1 3 31.1018 -1941 0 0 0 0 0
405 1 3 31.1018 -1938 0 0 0 0 0
406 1 3 31.1018 -1935 0 0 0 0 0
407 1 3 31.1018 -1932 0 0 0 0 0
408 1 3 31.1018 -1929 0 0 0 0 0
409 1 3 31.1018 -1926 0 0 0 0 0
410 1 3 31.1018 -1923 0 0 0 0 0
411 1 3 31.1018 -1920 0 0 0 0 0
412 1 3 31.1018 -1917 0 0 0 0 0
413 1 3 31.1018 -1914 0 0 0 0 0
414 1 3 31.1018 -1911 0 0 0 0 0
415 1 3 31.1018 -1908 0 0 0 0 0
416 1 3 31.1018 -1905 0 0 0 0 0
417 1 3 31.1018 -1902 0 0 0 0 0
418 1 3 31.1018 -1899 0 0 0 0 0
419 1 3 31.1018 -1896 0 0 0 0 0
420 1 3 31.1018 -1893 0 0 0 0 0
421 1 3 31.1018 -1890 0 0 0 0 0
422 1 3 31.1018 -1887 0 0 0 0 0
423 1 3 31.1018 -1884 0 0 0 0 0
424 1 3 31.1018 -1881 0 0 0 0 0
425 1 3 31.1018 -1878 0 0 0 0 0
426 1 3 31.1018 -1875 0 0 0 0 0
427 1 3 31.1018 -1872 0 0 0 0 0
428 1 3 31.1018 -1869 0 0 0 0 0
429 1 3 31.1018 -1866 0 0 0 0 0
430 1 3 31.1018 -1863 0 0 0 0 0
431 1 3 31.1018 -1860 0 0 0 0 0
432 1 3 31.1018 -1857 0 0 0 0 0
433 1 3 31.1018 -1854 0 0 0 0 0
434 1 3 31.1018 -1851 0 0 0 0 0
435 1 3 31.1018 -1848 0 0 0 0 0
436 1 3 31.1018 -1845 0 0 0 0 0
437 1 3 31.1018 -1842 0 0 0 0 0
438 1 3 31.1018 -1839 0 0 0 0 0
439 1 3 31.1018 -1836 0 0 0 0 0
440 1 3 31.1018 -1833 0 0 0 0 0
441 1 3 31.1018 -1830 0 0 0 0 0
442 1 3 31.1018 -1827 0 0 0 0 0
443 1 3 31.1018 -1824 0 0 0 0 0
444 1 3 31.1018 -1821 0 0 0 0 0
445 1 3 31.1018 -1818 0 0 0 0 0
446 1 3 31.1018 -1815 0 0 0 0 0
447 1 3 31.1018 -1812 0 0 0 0 0
448 1 3 31.1018 -1809 0 0 0 0 0
449 1 3 31.1018 -1806 0 0 0 0 0
450 1 3 31.1018 -1803 0 0 0 0 0
451 1 3 31.1018 -1800 0 0 0 0 0
452 1 3 31.1018 -1797 0 0 0 0 0
453 1 3 31.1018 -1794 0 0 0 0 0
454 1 3 31.1018 -1791 0 0 0 0 0
455 1 3 31.1018 -1788 0 0 0 0 0
456 1 3 31.1018 -1785 0 0 0 0 0
457 1 3 31.1018 -1782 0 0 0 0 0
458 1 3 31.1018 -1779 0 0 0 0 0
459 1 3 31.1018 -1776 0 0 0 0 0
460 1 3 31.1018 -1773 0 0 0 0 0
461 1 3 31.1018 -1770 0 0 0 0 0
462 1 3 31.1018 -1767 0 0 0 0 0
463 1 3 31.1018 -1764 0 0 0 0 0
464 1 3 31.1018 -1761 0 0 0 0 0
465 1 3 31.1018 -1758 0 0 0 0 0
466 1 3 31.1018 -1755 0 0 0 0 0
467 1 3 31.1018 -1752 0 0 0 0 0
468 1 3 31.1018 -1749 0 0 0 0 0
469 1 3 31.1018 -1746 0 0 0 0 0
470 1 3 31.1018 -1743 0 0 0 0 0
471 1 3 31.1018 -1740 0 0 0 0 0
472 1 3 31.1018 -1737 0 0 0 0 0
473 1 3 31.1018 -1734 0 0 0 0 0
474 1 3 31.1018 -1731 0 0 0 0 0
475 1 3 31.1018 -1728 0 0 0 0 0
476 1 3 31.1018 -1725 0 0 0 0 0
477 1 3 31.1018 -1722 0 0 0 0 0
478 1 3 31.1018 -1719 0 0 0 0 0
479 1 3 31.1018 -1716 0 0 0 0 0
480 1 3 31.1018 -1713 0 0 0 0 0
481 1 3 31.1018 -1710 0 0 0 0 0
482 1 3 31.1018 -1707 0 0 0 0 0
483 1 3 31.1018 -1704 0 0 0 0 0
484 1 3 31.1018 -1701 0 0 0 0 0
485 1 3 31.1018 -1698 0 0 0 0 0
486 1 3 31.1018 -1695 0 0 0 0 0
487 1 3 31.1018 -1692 0 0 0 0 0
488 1 3 31.1018 -1689 0 0 0 0 0
489 1 3 31.1018 -1686 0 0 0 0 0
490 1 3 31.1018 -1683 0 0 0 0 0
491 1 3 31.1018 -1680 0 0 0 0 0
492 1 3 31.1018 -1677 0 0 0 0 0
493 1 3 31.1018 -1674 0 0 0 0 0
494 1 3 31.1018 -1671 0 0 0 0 0
495 1 3 31.1018 -1668 0 0 0 0 0
496 1 3 31.1018 -1665 0 0 0 0 0
497 1 3 31.1018 -1662 0 0 0 0 0
498 1 3 31.1018 -1659 0 0 0 0 0
499 1 3 31.1018 -1656 0 0 0 0 0
500 1 3 31.1018 -1653 0 0 0 0 0
501 1 3 31.1018 -1650 0 0 0 0 0
502 1 3 31.1018 -1647 0 0 0 0 0
503 1 3 31.1018 -1644 0 0 0 0 0
504 1 3 31.1018 -1641 0 0 0 0 0
505 1 3 31.1018 -1638 0 0 0 0 0
506 1 3 31.1018 -1635 0 0 0 0 0
507 1 3 31.1018 -1632 0 0 0 0 0
508 1 3 31.1018 -1629 0 0 0 0 0
509 1 3 31.1018 -1626 0 0 0 0 0
510 1 3 31.1018 -1623 0 0 0 0 0
511 1 3 31.1018 -1620 0 0 0 0 0
512 1 3 31.1018 -1617 0 0 0 0 0
513 1 3 31.1018 -1614 0 0 0 0 0
514 1 3 31.1018 -1611 0 0 0 0 0
515 1 3 31.1018 -1608 0 0 0 0 0
516 1 3 31.1018 -1605 0 0 0 0 0
517 1 3 31.1018 -1602 0 0 0 0 0
518 1 3 31.1018 -1599 0 0 0 0 0
519 1 3 31.1018 -1596 0 0 0 0 0
520 1 3 31.1018 -1593 0 0 0 0 0
521 1 3 31.1018 -1590 0 0 0 0 0
522 1 3 31.1018 -1587 0 0 0 0 0
523 1 3 31.1018 -1584 0 0 0 0 0
524 1 3 31.1018 -1581 0 0 0 0 0
525 1 3 31.1018 -1578 0 0 0 0 0
2101 2 3 31.1018 -2104.50010136451283 4.10914e-21 2.59757461285889057 0.0725793 0 -0.00115834
2102 2 3 31.1018 -2101.50010136451328 4.10327e-21 2.59757461284701252 0.0724757 0 -0.0011567
2103 2 3 31.1018 -2098.50010136451374 4.0974e-21 2.59757461283513402 0.072372 0 -0.00115507
2104 2 3 31.1018 -2095.50010136451419 4.09153e-21 2.59757461282325597 0.0722684 0 -0.00115343
2105 2 3 31.1018 -2092.50010136451465 4.08566e-21 2.59757461281137791 0.0721647 0 -0.00115179
2106 2 3 31.1018 -2089.5001013645151 4.07979e-21 2.59757461279949986 0.0720611 0 -0.00115015
2107 2 3 31.1018 -2086.50010136451556 4.07392e-21 2.59757461278762136 0.0719574 0 -0.00114851
2108 2 3 31.1018 -2083.50010136451601 4.06805e-21 2.59757461277574331 0.0718538 0 -0.00114687
2109 2 3 31.1018 -2080.50010136451647 4.06218e-21 2.59757461276386525 0.0717501 0 -0.00114524
2110 2 3 31.1018 -2077.50010136451692 4.05631e-21 2.5975746127519872 0.0716464 0 -0.0011436
2111 2 3 31.1018 -2074.50010136451738 4.05044e-21 2.5975746127401087 0.0715428 0 -0.00114196
2112 2 3 31.1018 -2071.50010136451783 4.04457e-21 2.59757461272823065 0.0714391 0 -0.00114032
2113 2 3 31.1018 -2068.50010136451829 4.0387e-21 2.59757461271635259 0.0713355 0 -0.00113868
2114 2 3 31.1018 -2065.50010136451874 4.03283e-21 2.59757461270447454 0.0712318 0 -0.00113704
2115 2 3 31.1018 -2062.5001013645192 4.02695e-21 2.59757461269259604 0.0711282 0 -0.0011354
2116 2 3 31.1018 -2059.50010136451965 4.02108e-21 2.59757461268071799 0.0710245 0 -0.00113377
2117 2 3 31.1018 -2056.50010136452011 4.01521e-21 2.59757461266883993 0.0709209 0 -0.00113213
2118 2 3 31.1018 -2053.50010136452056 4.00934e-21 2.59757461265696188 0.0708172 0 -0.00113049
2119 2 3 31.1018 -2050.50010136452102 4.00347e-21 2.59757461264508338 0.0707136 0 -0.00112885
2120 2 3 31.1018 -2047.50010136452147 3.9976e-21 2.59757461263320533 0.0706099 0 -0.00112721
2121 2 3 31.1018 -2044.50010136452192 3.99173e-21 2.59757461262132727 0.0705063 0 -0.00112557
2122 2 3 31.1018 -2041.50010136452238 3.98586e-21 2.59757461260944922 0.0704026 0 -0.00112393
2123 2 3 31.1018 -2038.50010136452283 3.97999e-21 2.59757461259757072 0.0702989 0 -0.00112229
2124 2 3 31.1018 -2035.50010136452329 3.97412e-21 2.59757461258569267 0.0701953 0 -0.00112066
2125 2 3 31.1018 -2032.50010136452374 3.96825e-21 2.59757461257381461 0.0700916 0 -0.00111902
2126 2 3 31.1018 -2029.5001013645242 3.96238e-21 2.59757461256193656 0.069988 0 -0.00111738
2127 2 3 31.1018 -2026.50010136452465 3.95651e-21 2.59757461255005806 0.0698843 0 -0.00111574
2128 2 3 31.1018 -2023.50010136452511 3.95064e-21 2.59757461253818001 0.0697807 0 -0.0011141
2129 2 3 31.1018 -2020.50010136452556 3.94477e-21 2.59757461252630195 0.069677 0 -0.00111246
2130 2 3 31.1018 -2017.50010136452602 3.9389e-21 2.5975746125144239 0.0695734 0 -0.00111083
2131 2 3 31.1018 -2014.50010136452647 3.93303e-21 2.5975746125025454 0.0694697 0 -0.00110919
2132 2 3 31.1018 -2011.50010136452693 3.92716e-21 2.59757461249066735 0.069366 0 -0.00110755
2133 2 3 31.1018 -2008.50010136452738 3.92129e-21 2.59757461247878929 0.0692624 0 -0.00110591
2134 2 3 31.1018 -2005.50010136452784 3.91542e-21 2.59757461246691124 0.0691587 0 -0.00110427
2135 2 3 31.1018 -2002.50010136452829 3.90955e-21 2.59757461245503274 0.0690551 0 -0.00110263
2136 2 3 31.1018 -1999.50010136452875 3.90368e-21 2.59757461244315468 0.0689514 0 -0.00110099
2137 2 3 31.1018 -1996.5001013645292 3.89781e-21 2.59757461243127663 0.0688478 0 -0.00109936
2138 2 3 31.1018 -1993.50010136452966 3.89194e-21 2.59757461241939858 0.0687441 0 -0.00109772
2139 2 3 31.1018 -1990.50010136453011 3.88607e-21 2.59757461240752008 0.0686405 0 -0.00109608
2140 2 3 31.1018 -1987.50010136453056 3.8802e-21 2.59757461239564202 0.0685368 0 -0.00109444
2141 2 3 31.1018 -1984.50010136453102 3.87433e-21 2.59757461238376397 0.0684332 0 -0.0010928
2142 2 3 31.1018 -1981.50010136453147 3.86846e-21 2.59757461237188592 0.0683295 0 -0.00109116
2143 2 3 31.1018 -1978.50010136453193 3.86259e-21 2.59757461236000742 0.0682259 0 -0.00108952
2144 2 3 31.1018 -1975.50010136453238 3.85672e-21 2.59757461234812936 0.0681222 0 -0.00108788
2145 2 3 31.1018 -1972.50010136453284 3.85085e-21 2.59757461233625131 0.0680185 0 -0.00108625
2146 2 3 31.1018 -1969.50010136453329 3.84498e-21 2.59757461232437326 0.0679149 0 -0.00108461
2147 2 3 31.1018 -1966.50010136453375 3.83911e-21 2.59757461231249476 0.0678112 0 -0.00108297
2148 2 3 31.1018 -1963.5001013645342 3.83324e-21 2.5975746123006167 0.0677076 0 -0.00108133
2149 2 3 31.1018 -1960.50010136453466 3.82737e-21 2.59757461228873865 0.0676039 0 -0.00107969
2150 2 3 31.1018 -1957.50010136453511 3.8215e-21 2.5975746122768606 0.0675003 0 -0.00107805
2151 2 3 31.1018 -1954.50010136453557 3.81563e-21 2.5975746122649821 0.0673966 0 -0.00107641
2152 2 3 31.1018 -1951.50010136453602 3.80976e-21 2.59757461225310404 0.067293 0 -0.00107478
2153 2 3 31.1018 -1948.50010136453648 3.80389e-21 2.59757461224122599 0.0671893 0 -0.00107314
2154 2 3 31.1018 -1945.50010136453693 3.79802e-21 2.59757461222934793 0.0670857 0 -0.0010715
2155 2 3 31.1018 -1942.50010136453739 3.79215e-21 2.59757461221746944 0.066982 0 -0.00106986
2156 2 3 31.1018 -1939.50010136453784 3.78628e-21 2.59757461220559138 0.0668783 0 -0.00106822
2157 2 3 31.1018 -1936.5001013645383 3.78041e-21 2.59757461219371333 0.0667747 0 -0.00106658
2158 2 3 31.1018 -1933.50010136453875 3.77454e-21 2.59757461218183527 0.066671 0 -0.00106495
2159 2 3 31.1018 -1930.5001013645392 3.76867e-21 2.59757461216995678 0.0665674 0 -0.00106331
2160 2 3 31.1018 -1927.50010136453966 3.7628e-21 2.59757461215807872 0.0664637 0 -0.00106167
2161 2 3 31.1018 -1924.50010136454011 3.75693e-21 2.59757461214620067 0.0663601 0 -0.00106003
2162 2 3 31.1018 -1921.50010136454057 3.75106e-21 2.59757461213432261 0.0662564 0 -0.00105839
2163 2 3 31.1018 -1918.50010136454102 3.74519e-21 2.59757461212244412 0.0661528 0 -0.00105675
2164 2 3 31.1018 -1915.50010136454148 3.73932e-21 2.59757461211056606 0.0660491 0 -0.00105511
2165 2 3 31.1018 -1912.50010136454193 3.73345e-21 2.59757461209868801 0.0659455 0 -0.00105348
2166 2 3 31.1018 -1909.50010136454239 3.72757e-21 2.59757461208680995 0.0658418 0 -0.00105184
2167 2 3 31.1018 -1906.50010136454284 3.7217e-21 2.59757461207493145 0.0657381 0 -0.0010502
2168 2 3 31.1018 -1903.5001013645433 3.71583e-21 2.5975746120630534 0.0656345 0 -0.00104856
2169 2 3 31.1018 -1900.50010136454375 3.70996e-21 2.59757461205117535 0.0655308 0 -0.00104692
2170 2 3 31.1018 -1897.50010136454421 3.70409e-21 2.59757461203929729 0.0654272 0 -0.00104528
2171 2 3 31.1018 -1894.50010136454466 3.69822e-21 2.59757461202741879 0.0653235 0 -0.00104364
2172 2 3 31.1018 -1891.50010136454512 3.69235e-21 2.59757461201554074 0.0652199 0 -0.00104201
2173 2 3 31.1018 -1888.50010136454557 3.68648e-21 2.59757461200366269 0.0651162 0 -0.00104037
2174 2 3 31.1018 -1885.50010136454603 3.68061e-21 2.59757461199178463 0.0650126 0 -0.00103873
2175 2 3 31.1018 -1882.50010136454648 3.67474e-21 2.59757461197990613 0.0649089 0 -0.00103709
2176 2 3 31.1018 -1879.50010136454694 3.66887e-21 2.59757461196802808 0.0648053 0 -0.00103545
2177 2 3 31.1018 -1876.50010136454739 3.663e-21 2.59757461195615003 0.0647016 0 -0.00103381
2178 2 3 31.1018 -1873.50010136454785 3.65713e-21 2.59757461194427197 0.0645979 0 -0.00103217
2179 2 3 31.1018 -1870.5001013645483 3.65126e-21 2.59757461193239347 0.0644943 0 -0.00103054
2180 2 3 31.1018 -1867.50010136454875 3.64539e-21 2.59757461192051542 0.0643906 0 -0.0010289
2181 2 3 31.1018 -1864.50010136454921 3.63952e-21 2.59757461190863737 0.064287 0 -0.00102726
2182 2 3 31.1018 -1861.50010136454966 3.63365e-21 2.59757461189675931 0.0641833 0 -0.00102562
2183 2 3 31.1018 -1858.50010136455012 3.62778e-21 2.59757461188488081 0.0640797 0 -0.00102398
2184 2 3 31.1018 -1855.50010136455057 3.62191e-21 2.59757461187300276 0.063976 0 -0.00102234
2185 2 3 31.1018 -1852.50010136455103 3.61604e-21 2.5975746118611247 0.0638724 0 -0.00102071
2186 2 3 31.1018 -1849.50010136455148 3.61017e-21 2.59757461184924665 0.0637687 0 -0.00101907
2187 2 3 31.1018 -1846.50010136455194 3.6043e-21 2.59757461183736815 0.063665 0 -0.00101743
2188 2 3 31.1018 -1843.50010136455239 3.59843e-21 2.5975746118254901 0.0635614 0 -0.00101579
2189 2 3 31.1018 -1840.50010136455285 3.59256e-21 2.59757461181361204 0.0634577 0 -0.00101415
2190 2 3 31.1018 -1837.5001013645533 3.58669e-21 2.59757461180173399 0.0633541 0 -0.00101251
2191 2 3 31.1018 -1834.50010136455376 3.58082e-21 2.59757461178985549 0.0632504 0 -0.00101087
2192 2 3 31.1018 -1831.50010136455421 3.57495e-21 2.59757461177797744 0.0631468 0 -0.00100924
2193 2 3 31.1018 -1828.50010136455467 3.56908e-21 2.59757461176609938 0.0630431 0 -0.0010076
2194 2 3 31.1018 -1825.50010136455512 3.56321e-21 2.59757461175422133 0.0629395 0 -0.00100596
2195 2 3 31.1018 -1822.50010136455558 3.55734e-21 2.59757461174234283 0.0628358 0 -0.00100432
2196 2 3 31.1018 -1819.50010136455603 3.55147e-21 2.59757461173046478 0.0627322 0 -0.00100268
2197 2 3 31.1018 -1816.50010136455649 3.5456e-21 2.59757461171858672 0.0626285 0 -0.00100104
2198 2 3 31.1018 -1813.50010136455694 3.53973e-21 2.59757461170670867 0.0625248 0 -0.000999405
2199 2 3 31.1018 -1810.50010136455739 3.53386e-21 2.59757461169483017 0.0624212 0 -0.000997764
2200 2 3 31.1018 -1807.50010136455785 3.52799e-21 2.59757461168295212 0.0623175 0 -0.000996126
2201 2 3 31.1018 -1804.5001013645583 3.52212e-21 2.59757461167107406 0.0622139 0 -0.000994488
2202 2 3 31.1018 -1801.50010136455876 3.51625e-21 2.59757461165919601 0.0621102 0 -0.00099285
2203 2 3 31.1018 -1798.50010136455921 3.51038e-21 2.59757461164731751 0.0620066 0 -0.000991211
2204 2 3 31.1018 -1795.50010136455967 3.50451e-21 2.59757461163543946 0.0619029 0 -0.000989572
2205 2 3 31.1018 -1792.50010136456012 3.49864e-21 2.5975746116235614 0.0617993 0 -0.000987935
2206 2 3 31.1018 -1789.50010136456058 3.49277e-21 2.59757461161168335 0.0616956 0 -0.000986295
2207 2 3 31.1018 -1786.50010136456103 3.4869e-21 2.59757461159980485 0.061592 0 -0.000984658
2208 2 3 31.1018 -1783.50010136456149 3.48103e-21 2.5975746115879268 0.0614883 0 -0.00098302
2209 2 3 31.1018 -1780.50010136456194 3.47516e-21 2.59757461157604874 0.0613846 0 -0.000981381
2210 2 3 31.1018 -1777.5001013645624 3.46929e-21 2.59757461156417069 0.061281 0 -0.000979742
2211 2 3 31.1018 -1774.50010136456285 3.46342e-21 2.59757461155229219 0.0611773 0 -0.000978103
2212 2 3 31.1018 -1771.50010136456331 3.45755e-21 2.59757461154041414 0.0610737 0 -0.000976465
2213 2 3 31.1018 -1768.50010136456376 3.45168e-21 2.59757461152853608 0.06097 0 -0.000974827
2214 2 3 31.1018 -1765.50010136456422 3.44581e-21 2.59757461151665803 0.0608664 0 -0.000973187
2215 2 3 31.1018 -1762.50010136456467 3.43994e-21 2.59757461150477953 0.0607627 0 -0.000971549
2216 2 3 31.1018 -1759.50010136456513 3.43406e-21 2.59757461149290148 0.0606591 0 -0.00096991
2217 2 3 31.1018 -1756.50010136456558 3.42819e-21 2.59757461148102342 0.0605554 0 -0.000968272
2218 2 3 31.1018 -1753.50010136456604 3.42232e-21 2.59757461146914537 0.0604518 0 -0.000966635
2219 2 3 31.1018 -1750.50010136456649 3.41645e-21 2.59757461145726687 0.0603481 0 -0.000964994
2220 2 3 31.1018 -1747.50010136456694 3.41058e-21 2.59757461144538881 0.0602444 0 -0.000963356
2221 2 3 31.1018 -1744.5001013645674 3.40471e-21 2.59757461143351076 0.0601408 0 -0.000961719
2222 2 3 31.1018 -1741.50010136456785 3.39884e-21 2.59757461142163271 0.0600371 0 -0.000960079
2223 2 3 31.1018 -1738.50010136456831 3.39297e-21 2.59757461140975421 0.0599335 0 -0.00095844
2224 2 3 31.1018 -1735.50010136456876 3.3871e-21 2.59757461139787615 0.0598298 0 -0.000956803
2225 2 3 31.1018 -1732.50010136456922 3.38123e-21 2.5975746113859981 0.0597262 0 -0.000955165
2226 2 3 31.1018 -1729.50010136456967 3.37536e-21 2.59757461137412005 0.0596225 0 -0.000953526
2227 2 3 31.1018 -1726.50010136457013 3.36949e-21 2.59757461136224155 0.0595189 0 -0.000951886
2228 2 3 31.1018 -1723.50010136457058 3.36362e-21 2.59757461135036349 0.0594152 0 -0.000950248
2229 2 3 31.1018 -1720.50010136457104 3.35775e-21 2.59757461133848544 0.0593116 0 -0.00094861
2230 2 3 31.1018 -1717.50010136457149 3.35188e-21 2.59757461132660739 0.0592079 0 -0.000946971
2231 2 3 31.1018 -1714.50010136457195 3.34601e-21 2.59757461131472889 0.0591042 0 -0.000945333
2232 2 3 31.1018 -1711.5001013645724 3.34014e-21 2.59757461130285083 0.0590006 0 -0.000943694
2233 2 3 31.1018 -1708.50010136457286 3.33427e-21 2.59757461129097278 0.0588969 0 -0.000942056
2234 2 3 31.1018 -1705.50010136457331 3.3284e-21 2.59757461127909473 0.0587933 0 -0.000940418
2235 2 3 31.1018 -1702.50010136457377 3.32253e-21 2.59757461126721623 0.0586896 0 -0.000938778
2236 2 3 31.1018 -1699.50010136457422 3.31666e-21 2.59757461125533817 0.058586 0 -0.000937141
2237 2 3 31.1018 -1696.50010136457468 3.31079e-21 2.59757461124346012 0.0584823 0 -0.000935502
2238 2 3 31.1018 -1693.50010136457513 3.30492e-21 2.59757461123158206 0.0583787 0 -0.000933864
2239 2 3 31.1018 -1690.50010136457558 3.29905e-21 2.59757461121970357 0.058275 0 -0.000932223