ITEM: TIMESTEP
4000000
ITEM: NUMBER OF ATOMS
3251
ITEM: BOX BOUNDS pp pp pp
-2.9250000000000000e+03 2.9250000000000000e+03
-1.0000000000000000e+02 1.0000000000000000e+02
-1.0000000000000000e+02 1.0000000000000000e+02
ITEM: ATOMS id type diameter mass xu yu zu fx fy fz
1 1 3 31.1018 -2925 0 0 0 0 0
2 1 3 31.1018 -2922 0 0 0 0 0
3 1 3 31.1018 -2919 0 0 0 0 0
4 1 3 31.1018 -2916 0 0 0 0 0
5 1 3 31.1018 -2913 0 0 0 0 0
6 1 3 31.1018 -2910 0 0 0 0 0
7 1 3 31.1018 -2907 0 0 0 0 0
8 1 3 31.1018 -2904 0 0 0 0 0
9 1 3 31.1018 -2901 0 0 0 0 0
10 1 3 31.1018 -2898 0 0 0 0 0
11 1 3 31.1018 -2895 0 0 0 0 0
12 1 3 31.1018 -2892 0 0 0 0 0
13 1 3 31.1018 -2889 0 0 0 0 0
14 1 3 31.1018 -2886 0 0 0 0 0
15 1 3 31.1018 -2883 0 0 0 0 0
16 1 3 31.1018 -2880 0 0 0 0 0
17 1 3 31.1018 -2877 0 0 0 0 0
18 1 3 31.1018 -2874 0 0 0 0 0
19 1 3 31.1018 -2871 0 0 0 0 0
20 1 3 31.1018 -2868 0 0 0 0 0
21 1 3 31.1018 -2865 0 0 0 0 0
22 1 3 31.1018 -2862 0 0 0 0 0
23 1 3 31.1018 -2859 0 0 0 0 0
24 1 3 31.1018 -2856 0 0 0 0 0
25 1 3 31.1018 -2853 0 0 0 0 0
26 1 3 31.1018 -2850 0 0 0 0 0
27 1 3 31.1018 -2847 0 0 0 0 0
28 1 3 31.1018 -2844 0 0 0 0 0
29 1 3 31.1018 -2841 0 0 0 0 0
30 1 3 31.1018 -2838 0 0 0 0 0
31 1 3 31.1018 -2835 0 0 0 0 0
32 1 3 31.1018 -2832 0 0 0 0 0
33 1 3 31.1018 -2829 0 0 0 0 0
34 1 3 31.1018 -2826 0 0 0 0 0
35 1 3 31.1018 -2823 0 0 0 0 0
36 1 3 31.1018 -2820 0 0 0 0 0
37 1 3 31.1018 -2817 0 0 0 0 0
38 1 3 31.1018 -2814 0 0 0 0 0
39 1 3 31.1018 -2811 0 0 0 0 0
40 1 3 31.1018 -2808 0 0 0 0 0
41 1 3 31.1018 -2805 0 0 0 0 0
42 1 3 31.1018 -2802 0 0 0 0 0
43 1 3 31.1018 -2799 0 0 0 0 0
44 1 3 31.1018 -2796 0 0 0 0 0
45 1 3 31.1018 -2793 0 0 0 0 0
46 1 3 31.1018 -2790 0 0 0 0 0
47 1 3 31.1018 -2787 0 0 0 0 0
48 1 3 31.1018 -2784 0 0 0 0 0
49 1 3 31.1018 -2781 0 0 0 0 0
50 1 3 31.1018 -2778 0 0 0 0 0
51 1 3 31.1018 -2775 0 0 0 0 0
52 1 3 31.1018 -2772 0 0 0 0 0
53 1 3 31.1018 -2769 0 0 0 0 0
54 1 3 31.1018 -2766 0 0 0 0 0
55 1 3 31.1018 -2763 0 0 0 0 0
56 1 3 31.1018 -2760 0 0 0 0 0
57 1 3 31.1018 -2757 0 0 0 0 0
58 1 3 31.1018 -2754 0 0 0 0 0
59 1 3 31.1018 -2751 0 0 0 0 0
60 1 3 31.1018 -2748 0 0 0 0 0
61 1 3 31.1018 -2745 0 0 0 0 0
62 1 3 31.1018 -2742 0 0 0 0 0
63 1 3 31.1018 -2739 0 0 0 0 0
64 1 3 31.1018 -2736 0 0 0 0 0
65 1 3 31.1018 -2733 0 0 0 0 0
66 1 3 31.1018 -2730 0 0 0 0 0
67 1 3 31.1018 -2727 0 0 0 0 0
68 1 3 31.1018 -2724 0 0 0 0 0
69 1 3 31.1018 -2721 0 0 0 0 0
70 1 3 31.1018 -2718 0 0 0 0 0
71 1 3 31.1018 -2715 0 0 0 0 0
72 1 3 31.1018 -2712 0 0 0 0 0
73 1 3 31.1018 -2709 0 0 0 0 0
74 1 3 31.1018 -2706 0 0 0 0 0
75 1 3 31.1018 -2703 0 0 0 0 0
76 1 3 31.1018 -2700 0 0 0 0 0
77 1 3 31.1018 -2697 0 0 0 0 0
78 1 3 31.1018 -2694 0 0 0 0 0
79 1 3 31.1018 -2691 0 0 0 0 0
80 1 3 31.1018 -2688 0 0 0 0 0
81 1 3 31.1018 -2685 0 0 0 0 0
82 1 3 31.1018 -2682 0 0 0 0 0
83 1 3 31.1018 -2679 0 0 0 0 0
84 1 3 31.1018 -2676 0 0 0 0 0
85 1 3 31.1018 -2673 0 0 0 0 0
86 1 3 31.1018 -2670 0 0 0 0 0
87 1 3 31.1018 -2667 0 0 0 0 0
88 1 3 31.1018 -2664 0 0 0 0 0
89 1 3 31.1018 -2661 0 0 0 0 0
90 1 3 31.1018 -2658 0 0 0 0 0
91 1 3 31.1018 -2655 0 0 0 0 0
92 1 3 31.1018 -2652 0 0 0 0 0
93 1 3 31.1018 -2649 0 0 0 0 0
94 1 3 31.1018 -2646 0 0 0 0 0
95 1 3 31.1018 -2643 0 0 0 0 0
96 1 3 31.1018 -2640 0 0 0 0 0
97 1 3 31.1018 -2637 0 0 0 0 0
98 1 3 31.1018 -2634 0 0 0 0 0
99 1 3 31.1018 -2631 0 0 0 0 0
100 1 3 31.1018 -2628 0 0 0 0 0
101 1 3 31.1018 -2625 0 0 0 0 0
102 1 3 31.1018 -2622 0 0 0 0 0
103 1 3 31.1018 -2619 0 0 0 0 0
104 1 3 31.1018 -2616 0 0 0 0 0
105 1 3 31.1018 -2613 0 0 0 0 0
106 1 3 31.1018 -2610 0 0 0 0 0
107 1 3 31.1018 -2607 0 0 0 0 0
108 1 3 31.1018 -2604 0 0 0 0 0
109 1 3 31.1018 -2601 0 0 0 0 0
110 1 3 31.1018 -2598 0 0 0 0 0
111 1 3 31.1018 -2595 0 0 0 0 0
112 1 3 31.1018 -2592 0 0 0 0 0
113 1 3 31.1018 -2589 0 0 0 0 0
114 1 3 31.1018 -2586 0 0 0 0 0
115 1 3 31.1018 -2583 0 0 0 0 0
116 1 3 31.1018 -2580 0 0 0 0 0
117 1 3 31.1018 -2577 0 0 0 0 0
118 1 3 31.1018 -2574 0 0 0 0 0
119 1 3 31.1018 -2571 0 0 0 0 0
120 1 3 31.1018 -2568 0 0 0 0 0
121 1 3 31.1018 -2565 0 0 0 0 0
122 1 3 31.1018 -2562 0 0 0 0 0
123 1 3 31.1018 -2559 0 0 0 0 0
124 1 3 31.1018 -2556 0 0 0 0 0
125 1 3 31.1018 -2553 0 0 0 0 0
126 1 3 31.1018 -2550 0 0 0 0 0
127 1 3 31.1018 -2547 0 0 0 0 0
128 1 3 31.1018 -2544 0 0 0 0 0
129 1 3 31.1018 -2541 0 0 0 0 0
130 1 3 31.1018 -2538 0 0 0 0 0
131 1 3 31.1018 -2535 0 0 0 0 0
132 1 3 31.1018 -2532 0 0 0 0 0
133 1 3 31.1018 -2529 0 0 0 0 0
134 1 3 31.1018 -2526 0 0 0 0 0
135 1 3 31.1018 -2523 0 0 0 0 0
136 1 3 31.1018 -2520 0 0 0 0 0
137 1 3 31.1018 -2517 0 0 0 0 0
138 1 3 31.1018 -2514 0 0 0 0 0
139 1 3 31.1018 -2511 0 0 0 0 0
140 1 3 31.1018 -2508 0 0 0 0 0
141 1 3 31.1018 -2505 0 0 0 0 0
142 1 3 31.1018 -2502 0 0 0 0 0
143 1 3 31.1018 -2499 0 0 0 0 0
144 1 3 31.1018 -2496 0 0 0 0 0
145 1 3 31.1018 -2493 0 0 0 0 0
146 1 3 31.1018 -2490 0 0 0 0 0
147 1 3 31.1018 -2487 0 0 0 0 0
148 1 3 31.1018 -2484 0 0 0 0 0
149 1 3 31.1018 -2481 0 0 0 0 0
150 1 3 31.1018 -2478 0 0 0 0 0
151 1 3 31.1018 -2475 0 0 0 0 0
152 1 3 31.1018 -2472 0 0 0 0 0
153 1 3 31.1018 -2469 0 0 0 0 0
154 1 3 31.1018 -2466 0 0 0 0 0
155 1 3 31.1018 -2463 0 0 0 0 0
156 1 3 31.1018 -2460 0 0 0 0 0
157 1 3 31.1018 -2457 0 0 0 0 0
158 1 3 31.1018 -2454 0 0 0 0 0
159 1 3 31.1018 -2451 0 0 0 0 0
160 1 3 31.1018 -2448 0 0 0 0 0
161 1 3 31.1018 -2445 0 0 0 0 0
162 1 3 31.1018 -2442 0 0 0 0 0
163 1 3 31.1018 -2439 0 0 0 0 0
164 1 3 31.1018 -2436 0 0 0 0 0
165 1 3 31.1018 -2433 0 0 0 0 0
166 1 3 31.1018 -2430 0 0 0 0 0
167 1 3 31.1018 -2427 0 0 0 0 0
168 1 3 31.1018 -2424 0 0 0 0 0
169 1 3 31.1018 -2421 0 0 0 0 0
170 1 3 31.1018 -2418 0 0 0 0 0
171 1 3 31.1018 -2415 0 0 0 0 0
172 1 3 31.1018 -2412 0 0 0 0 0
173 1 3 31.1018 -2409 0 0 0 0 0
174 1 3 31.1018 -2406 0 0 0 0 0
175 1 3 31.1018 -2403 0 0 0 0 0
176 1 3 31.1018 -2400 0 0 0 0 0
177 1 3 31.1018 -2397 0 0 0 0 0
178 1 3 31.1018 -2394 0 0 0 0 0
179 1 3 31.1018 -2391 0 0 0 0 0
180 1 3 31.1018 -2388 0 0 0 0 0
181 1 3 31.1018 -2385 0 0 0 0 0
182 1 3 31.1018 -2382 0 0 0 0 0
183 1 3 31.1018 -2379 0 0 0 0 0
184 1 3 31.1018 -2376 0 0 0 0 0
185 1 3 31.1018 -2373 0 0 0 0 0
186 1 3 31.1018 -2370 0 0 0 0 0
187 1 3 31.1018 -2367 0 0 0 0 0
188 1 3 31.1018 -2364 0 0 0 0 0
189 1 3 31.1018 -2361 0 0 0 0 0
190 1 3 31.1018 -2358 0 0 0 0 0
191 1 3 31.1018 -2355 0 0 0 0 0
192 1 3 31.1018 -2352 0 0 0 0 0
193 1 3 31.1018 -2349 0 0 0 0 0
194 1 3 31.1018 -2346 0 0 0 0 0
195 1 3 31.1018 -2343 0 0 0 0 0
196 1 3 31.1018 -2340 0 0 0 0 0
197 1 3 31.1018 -2337 0 0 0 0 0
198 1 3 31.1018 -2334 0 0 0 0 0
199 1 3 31.1018 -2331 0 0 0 0 0
200 1 3 31.1018 -2328 0 0 0 0 0
201 1 3 31.1018 -2325 0 0 0 0 0
202 1 3 31.1018 -2322 0 0 0 0 0
203 1 3 31.1018 -2319 0 0 0 0 0
204 1 3 31.1018 -2316 0 0 0 0 0
205 1 3 31.1018 -2313 0 0 0 0 0
206 1 3 31.1018 -2310 0 0 0 0 0
207 1 3 31.1018 -2307 0 0 0 0 0
208 1 3 31.1018 -2304 0 0 0 0 0
209 1 3 31.1018 -2301 0 0 0 0 0
210 1 3 31.1018 -2298 0 0 0 0 0
211 1 3 31.1018 -2295 0 0 0 0 0
212 1 3 31.1018 -2292 0 0 0 0 0
213 1 3 31.1018 -2289 0 0 0 0 0
214 1 3 31.1018 -2286 0 0 0 0 0
215 1 3 31.1018 -2283 0 0 0 0 0
216 1 3 31.1018 -2280 0 0 0 0 0
217 1 3 31.1018 -2277 0 0 0 0 0
218 1 3 31.1018 -2274 0 0 0 0 0
219 1 3 31.1018 -2271 0 0 0 0 0
220 1 3 31.1018 -2268 0 0 0 0 0
221 1 3 31.1018 -2265 0 0 0 0 0
222 1 3 31.1018 -2262 0 0 0 0 0
223 1 3 31.1018 -2259 0 0 0 0 0
224 1 3 31.1018 -2256 0 0 0 0 0
225 1 3 31.1018 -2253 0 0 0 0 0
226 1 3 31.1018 -2250 0 0 0 0 0
227 1 3 31.1018 -2247 0 0 0 0 0
228 1 3 31.1018 -2244 0 0 0 0 0
229 1 3 31.1018 -2241 0 0 0 0 0
230 1 3 31.1018 -2238 0 0 0 0 0
231 1 3 31.1018 -2235 0 0 0 0 0
232 1 3 31.1018 -2232 0 0 0 0 0
233 1 3 31.1018 -2229 0 0 0 0 0
234 1 3 31.1018 -2226 0 0 0 0 0
235 1 3 31.1018 -2223 0 0 0 0 0
236 1 3 31.1018 -2220 0 0 0 0 0
237 1 3 31.1018 -2217 0 0 0 0 0
238 1 3 31.1018 -2214 0 0 0 0 0
239 1 3 31.1018 -2211 0 0 0 0 0
240 1 3 31.1018 -2208 0 0 0 0 0
241 1 3 31.1018 -2205 0 0 0 0 0
242 1 3 31.1018 -2202 0 0 0 0 0
243 1 3 31.1018 -2199 0 0 0 0 0
244 1 3 31.1018 -2196 0 0 0 0 0
245 1 3 31.1018 -2193 0 0 0 0 0
246 1 3 31.1018 -2190 0 0 0 0 0
247 1 3 31.1018 -2187 0 0 0 0 0
248 1 3 31.1018 -2184 0 0 0 0 0
249 1 3 31.1018 -2181 0 0 0 0 0
250 1 3 31.1018 -2178 0 0 0 0 0
251 1 3 31.1018 -2175 0 0 0 0 0
252 1 3 31.1018 -2172 0 0 0 0 0
253 1 3 31.1018 -2169 0 0 0 0 0
254 1 3 31.1018 -2166 0 0 0 0 0
255 1 3 31.1018 -2163 0 0 0 0 0
256 1 3 31.1018 -2160 0 0 0 0 0
257 1 3 31.1018 -2157 0 0 0 0 0
258 1 3 31.1018 -2154 0 0 0 0 0
259 1 3 31.1018 -2151 0 0 0 0 0
260 1 3 31.1018 -2148 0 0 0 0 0
261 1 3 31.1018 -2145 0 0 0 0 0
262 1 3 31.1018 -2142 0 0 0 0 0
263 1 3 31.1018 -2139 0 0 0 0 0
264 1 3 31.1018 -2136 0 0 0 0 0
265 1 3 31.1018 -2133 0 0 0 0 0
266 1 3 31.1018 -2130 0 0 0 0 0
267 1 3 31.1018 -2127 0 0 0 0 0
268 1 3 31.1018 -2124 0 0 0 0 0
269 1 3 31.1018 -2121 0 0 0 0 0
270 1 3 31.1018 -2118 0 0 0 0 0
271 1 3 31.1018 -2115 0 0 0 0 0
272 1 3 31.1018 -2112 0 0 0 0 0
273 1 3 31.1018 -2109 0 0 0 0 0
274 1 3 31.1018 -2106 0 0 0 0 0
275 1 3 31.1018 -2103 0 0 0 0 0
276 1 3 31.1018 -2100 0 0 0 0 0
277 1 3 31.1018 -2097 0 0 0 0 0
278 1 3 31.1018 -2094 0 0 0 0 0
279 1 3 31.1018 -2091 0 0 0 0 0
280 1 3 31.1018 -2088 0 0 0 0 0
281 1 3 31.1018 -2085 0 0 0 0 0
282 1 3 31.1018 -2082 0 0 0 0 0
283 1 3 31.1018 -2079 0 0 0 0 0
284 1 3 31.1018 -2076 0 0 0 0 0
285 1 3 31.1018 -2073 0 0 0 0 0
286 1 3 31.1018 -2070 0 0 0 0 0
287 1 3 31.1018 -2067 0 0 0 0 0
288 1 3 31.1018 -2064 0 0 0 0 0
289 1 3 31.1018 -2061 0 0 0 0 0
290 1 3 31.1018 -2058 0 0 0 0 0
291 1 3 31.1018 -2055 0 0 0 0 0
292 1 3 31.1018 -2052 0 0 0 0 0
293 1 3 31.1018 -2049 0 0 0 0 0
294 1 3 31.1018 -2046 0 0 0 0 0
295 1 3 31.1018 -2043 0 0 0 0 0
296 1 3 31.1018 -2040 0 0 0 0 0
297 1 3 31.1018 -2037 0 0 0 0 0
298 1 3 31.1018 -2034 0 0 0 0 0
299 1 3 31.1018 -2031 0 0 0 0 0
300 1 3 31.1018 -2028 0 0 0 0 0
301 1 3 31.1018 -2025 0 0 0 0 0
302 1 3 31.1018 -2022 0 0 0 0 0
303 1 3 31.1018 -2019 0 0 0 0 0
304 1 3 31.1018 -2016 0 0 0 0 0
305 1 3 31.1018 -2013 0 0 0 0 0
306 1 3 31.1018 -2010 0 0 0 0 0
307 1 3 31.1018 -2007 0 0 0 0 0
308 1 3 31.1018 -2004 0 0 0 0 0
309 1 3 31.1018 -2001 0 0 0 0 0
310 1 3 31.1018 -1998 0 0 0 0 0
311 1 3 31.1018 -1995 0 0 0 0 0
312 1 3 31.1018 -1992 0 0 0 0 0
313 1 3 31.1018 -1989 0 0 0 0 0
314 1 3 31.1018 -1986 0 0 0 0 0
315 1 3 31.1018 -1983 0 0 0 0 0
316 1 3 31.1018 -1980 0 0 0 0 0
317 1 3 31.1018 -1977 0 0 0 0 0
318 1 3 31.1018 -1974 0 0 0 0 0
319 1 3 31.1018 -1971 0 0 0 0 0
320 1 3 31.1018 -1968 0 0 0 0 0
321 1 3 31.1018 -1965 0 0 0 0 0
322 1 3 31.1018 -1962 0 0 0 0 0
323 1 3 31.1018 -1959 0 0 0 0 0
324 1 3 31.1018 -1956 0 0 0 0 0
325 1 3 31.1018 -1953 0 0 0 0 0
326 1 3 31.1018 -1950 0 0 0 0 0
327 1 3 31.1018 -1947 0 0 0 0 0
328 1 3 31.1018 -1944 0 0 0 0 0
329 1 3 31.1018 -1941 0 0 0 0 0
330 1 3 31.1018 -1938 0 0 0 0 0
331 1 3 31.1018 -1935 0 0 0 0 0
332 1 3 31.1018 -1932 0 0 0 0 0
333 1 3 31.1018 -1929 0 0 0 0 0
334 1 3 31.1018 -1926 0 0 0 0 0
335 1 3 31.1018 -1923 0 0 0 0 0
336 1 3 31.1018 -1920 0 0 0 0 0
337 1 3 31.1018 -1917 0 0 0 0 0
338 1 3 31.1018 -1914 0 0 0 0 0
339 1 3 31.1018 -1911 0 0 0 0 0
340 1 3 31.1018 -1908 0 0 0 0 0
341 1 3 31.1018 -1905 0 0 0 0 0
342 1 3 31.1018 -1902 0 0 0 0 0
343 1 3 31.1018 -1899 0 0 0 0 0
344 1 3 31.1018 -1896 0 0 0 0 0
345 1 3 31.1018 -1893 0 0 0 0 0
346 1 3 31.1018 -1890 0 0 0 0 0
347 1 3 31.1018 -1887 0 0 0 0 0
348 1 3 31.1018 -1884 0 0 0 0 0
349 1 3 31.1018 -1881 0 0 0 0 0
350 1 3 31.1018 -1878 0 0 0 0 0
351 1 3 31.1018 -1875 0 0 0 0 0
352 1 3 31.1018 -1872 0 0 0 0 0
353 1 3 31.1018 -1869 0 0 0 0 0
354 1 3 31.1018 -1866 0 0 0 0 0
355 1 3 31.1018 -1863 0 0 0 0 0
356 1 3 31.1018 -1860 0 0 0 0 0
357 1 3 31.1018 -1857 0 0 0 0 0
358 1 3 31.1018 -1854 0 0 0 0 0
359 1 3 31.1018 -1851 0 0 0 0 0
360 1 3 31.1018 -1848 0 0 0 0 0
361 1 3 31.1018 -1845 0 0 0 0 0
362 1 3 31.1018 -1842 0 0 0 0 0
363 1 3 31.1018 -1839 0 0 0 0 0
364 1 3 31.1018 -1836 0 0 0 0 0
365 1 3 31.1018 -1833 0 0 0 0 0
366 1 3 31.1018 -1830 0 0 0 0 0
367 1 3 31.1018 -1827 0 0 0 0 0
368 1 3 31.1018 -1824 0 0 0 0 0
369 1 3 31.1018 -1821 0 0 0 0 0
370 1 3 31.1018 -1818 0 0 0 0 0
371 1 3 31.1018 -1815 0 0 0 0 0
372 1 3 31.1018 -1812 0 0 0 0 0
373 1 3 31.1018 -1809 0 0 0 0 0
374 1 3 31.1018 -1806 0 0 0 0 0
375 1 3 31.1018 -1803 0 0 0 0 0
376 1 3 31.1018 -1800 0 0 0 0 0
377 1 3 31.1018 -1797 0 0 0 0 0
378 1 3 31.1018 -1794 0 0 0 0 0
379 1 3 31.1018 -1791 0 0 0 0 0
380 1 3 31.1018 -1788 0 0 0 0 0
381 1 3 31.1018 -1785 0 0 0 0 0
382 1 3 31.1018 -1782 0 0 0 0 0
383 1 3 31.1018 -1779 0 0 0 0 0
384 1 3 31.1018 -1776 0 0 0 0 0
385 1 3 31.1018 -1773 0 0 0 0 0
386 1 3 31.1018 -1770 0 0 0 0 0
387 1 3 31.1018 -1767 0 0 0 0 0
388 1 3 31.1018 -1764 0 0 0 0 0
389 1 3 31.1018 -1761 0 0 0 0 0
390 1 3 31.1018 -1758 0 0 0 0 0
391 1 3 31.1018 -1755 0 0 0 0 0
392 1 3 31.1018 -1752 0 0 0 0 0
393 1 3 31.1018 -1749 0 0 0 0 0
394 1 3 31.1018 -1746 0 0 0 0 0
395 1 3 31.1018 -1743 0 0 0 0 0
396 1 3 31.1018 -1740 0 0 0 0 0
397 1 3 31.1018 -1737 0 0 0 0 0
398 1 3 31.1018 -1734 0 0 0 0 0
399 1 3 31.1018 -1731 0 0 0 0 0
400 1 3 31.1018 -1728 0 0 0 0 0
401 1 3 31.1018 -1725 0 0 0 0 0
402 1 3 31.1018 -1722 0 0 0 0 0
403 1 3 31.1018 -1719 0 0 0 0 0
404 1 3 31.1018 -1716 0 0 0 0 0
405 1 3 31.1018 -1713 0 0 0 0 0
406 1 3 31.1018 -1710 0 0 0 0 0
407 1 3 31.1018 -1707 0 0 0 0 0
408 1 3 31.1018 -1704 0 0 0 0 0
409 1 3 31.1018 -1701 0 0 0 0 0
410 1 3 31.1018 -1698 0 0 0 0 0
411 1 3 31.1018 -1695 0 0 0 0 0
412 1 3 31.1018 -1692 0 0 0 0 0
413 1 3 31.1018 -1689 0 0 0 0 0
414 1 3 31.1018 -1686 0 0 0 0 0
415 1 3 31.1018 -1683 0 0 0 0 0
416 1 3 31.1018 -1680 0 0 0 0 0
417 1 3 31.1018 -1677 0 0 0 0 0
418 1 3 31.1018 -1674 0 0 0 0 0
419 1 3 31.1018 -1671 0 0 0 0 0
420 1 3 31.1018 -1668 0 0 0 0 0
421 1 3 31.1018 -1665 0 0 0 0 0
422 1 3 31.1018 -1662 0 0 0 0 0
423 1 3 31.1018 -1659 0 0 0 0 0
424 1 3 31.1018 -1656 0 0 0 0 0
425 1 3 31.1018 -1653 0 0 0 0 0
426 1 3 31.1018 -1650 0 0 0 0 0
427 1 3 31.1018 -1647 0 0 0 0 0
428 1 3 31.1018 -1644 0 0 0 0 0
429 1 3 31.1018 -1641 0 0 0 0 0
430 1 3 31.1018 -1638 0 0 0 0 0
431 1 3 31.1018 -1635 0 0 0 0 0
432 1 3 31.1018 -1632 0 0 0 0 0
433 1 3 31.1018 -1629 0 0 0 0 0
434 1 3 31.1018 -1626 0 0 0 0 0
435 1 3 31.1018 -1623 0 0 0 0 0
436 1 3 31.1018 -1620 0 0 0 0 0
437 1 3 31.1018 -1617 0 0 0 0 0
438 1 3 31.1018 -1614 0 0 0 0 0
439 1 3 31.1018 -1611 0 0 0 0 0
440 1 3 31.1018 -1608 0 0 0 0 0
441 1 3 31.1018 -1605 0 0 0 0 0
442 1 3 31.1018 -1602 0 0 0 0 0
443 1 3 31.1018 -1599 0 0 0 0 0
444 1 3 31.1018 -1596 0 0 0 0 0
445 1 3 31.1018 -1593 0 0 0 0 0
446 1 3 31.1018 -1590 0 0 0 0 0
447 1 3 31.1018 -1587 0 0 0 0 0
448 1 3 31.1018 -1584 0 0 0 0 0
449 1 3 31.1018 -1581 0 0 0 0 0
450 1 3 31.1018 -1578 0 0 0 0 0
451 1 3 31.1018 -1575 0 0 0 0 0
452 1 3 31.1018 -1572 0 0 0 0 0
453 1 3 31.1018 -1569 0 0 0 0 0
454 1 3 31.1018 -1566 0 0 0 0 0
455 1 3 31.1018 -1563 0 0 0 0 0
456 1 3 31.1018 -1560 0 0 0 0 0
457 1 3 31.1018 -1557 0 0 0 0 0
458 1 3 31.1018 -1554 0 0 0 0 0
459 1 3 31.1018 -1551 0 0 0 0 0
460 1 3 31.1018 -1548 0 0 0 0 0
461 1 3 31.1018 -1545 0 0 0 0 0
462 1 3 31.1018 -1542 0 0 0 0 0
463 1 3 31.1018 -1539 0 0 0 0 0
464 1 3 31.1018 -1536 0 0 0 0 0
465 1 3 31.1018 -1533 0 0 0 0 0
466 1 3 31.1018 -1530 0 0 0 0 0
467 1 3 31.1018 -1527 0 0 0 0 0
468 1 3 31.1018 -1524 0 0 0 0 0
469 1 3 31.1018 -1521 0 0 0 0 0
470 1 3 31.1018 -1518 0 0 0 0 0
471 1 3 31.1018 -1515 0 0 0 0 0
472 1 3 31.1018 -1512 0 0 0 0 0
473 1 3 31.1018 -1509 0 0 0 0 0
474 1 3 31.1018 -1506 0 0 0 0 0
475 1 3 31.1018 -1503 0 0 0 0 0
476 1 3 31.1018 -1500 0 0 0 0 0
477 1 3 31.1018 -1497 0 0 0 0 0
478 1 3 31.1018 -1494 0 0 0 0 0
479 1 3 31.1018 -1491 0 0 0 0 0
480 1 3 31.1018 -1488 0 0 0 0 0
481 1 3 31.1018 -1485 0 0 0 0 0
482 1 3 31.1018 -1482 0 0 0 0 0
483 1 3 31.1018 -1479 0 0 0 0 0
484 1 3 31.1018 -1476 0 0 0 0 0
485 1 3 31.1018 -1473 0 0 0 0 0
486 1 3 31.1018 -1470 0 0 0 0 0
487 1 3 31.1018 -1467 0 0 0 0 0
488 1 3 31.1018 -1464 0 0 0 0 0
1951 2 3 31.1018 -1954.50010136486844 4.97738e-21 2.59757461338341589 0.0778616 0 -0.000889392
1952 2 3 31.1018 -1951.5001013648689 4.96972e-21 2.59757461336985385 0.0777413 0 -0.000887663
1953 2 3 31.1018 -1948.50010136486935 4.96207e-21 2.59757461335629225 0.0776209 0 -0.000885936
1954 2 3 31.1018 -1945.50010136486958 4.95441e-21 2.59757461334273021 0.0775003 0 -0.000884232
1955 2 3 31.1018 -1942.50010136487003 4.94675e-21 2.59757461332916861 0.0773799 0 -0.000882505
1956 2 3 31.1018 -1939.50010136487049 4.93909e-21 2.59757461331560657 0.0772595 0 -0.000880777
1957 2 3 31.1018 -1936.50010136487072 4.93144e-21 2.59757461330204498 0.0771389 0 -0.000879073
1958 2 3 31.1018 -1933.50010136487117 4.92378e-21 2.59757461328848294 0.0770185 0 -0.000877345
1959 2 3 31.1018 -1930.50010136487163 4.91612e-21 2.59757461327492134 0.0768981 0 -0.000875619
1960 2 3 31.1018 -1927.50010136487185 4.90846e-21 2.5975746132613593 0.0767775 0 -0.000873915
1961 2 3 31.1018 -1924.50010136487231 4.90081e-21 2.5975746132477977 0.0766571 0 -0.000872187
1962 2 3 31.1018 -1921.50010136487276 4.89315e-21 2.59757461323423566 0.0765367 0 -0.000870459
1963 2 3 31.1018 -1918.50010136487299 4.88549e-21 2.59757461322067407 0.0764161 0 -0.000868756
1964 2 3 31.1018 -1915.50010136487344 4.87783e-21 2.59757461320711203 0.0762957 0 -0.000867027
1965 2 3 31.1018 -1912.5001013648739 4.87018e-21 2.59757461319355043 0.0761754 0 -0.000865301
1966 2 3 31.1018 -1909.50010136487413 4.86252e-21 2.59757461317998839 0.0760548 0 -0.000863596
1967 2 3 31.1018 -1906.50010136487458 4.85486e-21 2.59757461316642679 0.0759344 0 -0.00086187
1968 2 3 31.1018 -1903.50010136487504 4.8472e-21 2.59757461315286475 0.075814 0 -0.000860141
1969 2 3 31.1018 -1900.50010136487526 4.83955e-21 2.59757461313930316 0.0756934 0 -0.000858438
1970 2 3 31.1018 -1897.50010136487572 4.83189e-21 2.59757461312574112 0.075573 0 -0.000856709
1971 2 3 31.1018 -1894.50010136487595 4.82423e-21 2.59757461311217952 0.0754524 0 -0.000855006
1972 2 3 31.1018 -1891.5001013648764 4.81657e-21 2.59757461309861748 0.075332 0 -0.000853278
1973 2 3 31.1018 -1888.50010136487685 4.80892e-21 2.59757461308505588 0.0752116 0 -0.000851552
1974 2 3 31.1018 -1885.50010136487708 4.80126e-21 2.59757461307149384 0.075091 0 -0.000849847
1975 2 3 31.1018 -1882.50010136487754 4.7936e-21 2.59757461305793225 0.0749706 0 -0.00084812
1976 2 3 31.1018 -1879.50010136487799 4.78594e-21 2.59757461304437021 0.0748502 0 -0.000846391
1977 2 3 31.1018 -1876.50010136487822 4.77829e-21 2.59757461303080861 0.0747296 0 -0.000844687
1978 2 3 31.1018 -1873.50010136487867 4.77063e-21 2.59757461301724657 0.0746092 0 -0.00084296
1979 2 3 31.1018 -1870.50010136487913 4.76297e-21 2.59757461300368497 0.0744889 0 -0.000841234
1980 2 3 31.1018 -1867.50010136487936 4.75531e-21 2.59757461299012293 0.0743683 0 -0.000839529
1981 2 3 31.1018 -1864.50010136487981 4.74766e-21 2.59757461297656134 0.0742479 0 -0.000837801
1982 2 3 31.1018 -1861.50010136488027 4.74e-21 2.5975746129629993 0.0741275 0 -0.000836075
1983 2 3 31.1018 -1858.50010136488049 4.73234e-21 2.5975746129494377 0.0740069 0 -0.000834369
1984 2 3 31.1018 -1855.50010136488095 4.72468e-21 2.59757461293587566 0.0738865 0 -0.000832642
1985 2 3 31.1018 -1852.5001013648814 4.71703e-21 2.59757461292231406 0.0737661 0 -0.000830916
1986 2 3 31.1018 -1849.50010136488163 4.70937e-21 2.59757461290875202 0.0736455 0 -0.000829211
1987 2 3 31.1018 -1846.50010136488208 4.70171e-21 2.59757461289519043 0.0735251 0 -0.000827483
1988 2 3 31.1018 -1843.50010136488254 4.69405e-21 2.59757461288162839 0.0734047 0 -0.000825756
1989 2 3 31.1018 -1840.50010136488277 4.6864e-21 2.59757461286806679 0.0732841 0 -0.000824053
1990 2 3 31.1018 -1837.50010136488322 4.67874e-21 2.59757461285450475 0.0731637 0 -0.000822324
1991 2 3 31.1018 -1834.50010136488368 4.67108e-21 2.59757461284094315 0.0730434 0 -0.000820598
1992 2 3 31.1018 -1831.5001013648839 4.66342e-21 2.59757461282738111 0.0729227 0 -0.000818893
1993 2 3 31.1018 -1828.50010136488436 4.65577e-21 2.59757461281381952 0.0728024 0 -0.000817166
1994 2 3 31.1018 -1825.50010136488481 4.64811e-21 2.59757461280025748 0.072682 0 -0.000815438
1995 2 3 31.1018 -1822.50010136488504 4.64045e-21 2.59757461278669588 0.0725614 0 -0.000813735
1996 2 3 31.1018 -1819.5001013648855 4.63279e-21 2.59757461277313384 0.072441 0 -0.000812007
1997 2 3 31.1018 -1816.50010136488595 4.62514e-21 2.59757461275957224 0.0723206 0 -0.000810281
1998 2 3 31.1018 -1813.50010136488618 4.61748e-21 2.5975746127460102 0.0722 0 -0.000808576
1999 2 3 31.1018 -1810.50010136488663 4.60982e-21 2.59757461273244861 0.0720796 0 -0.000806848
2000 2 3 31.1018 -1807.50010136488709 4.60216e-21 2.59757461271888657 0.0719592 0 -0.000805121
2001 2 3 31.1018 -1804.50010136488731 4.59451e-21 2.59757461270532497 0.0718386 0 -0.000803419
2002 2 3 31.1018 -1801.50010136488777 4.58685e-21 2.59757461269176293 0.0717182 0 -0.00080169
2003 2 3 31.1018 -1798.50010136488822 4.57919e-21 2.59757461267820133 0.0715979 0 -0.000799963
2004 2 3 31.1018 -1795.50010136488845 4.57153e-21 2.59757461266463929 0.0714772 0 -0.000798258
2005 2 3 31.1018 -1792.50010136488891 4.56388e-21 2.5975746126510777 0.0713569 0 -0.000796531
2006 2 3 31.1018 -1789.50010136488936 4.55622e-21 2.59757461263751566 0.0712365 0 -0.000794803
2007 2 3 31.1018 -1786.50010136488959 4.54856e-21 2.59757461262395406 0.0711159 0 -0.000793101
2008 2 3 31.1018 -1783.50010136489004 4.5409e-21 2.59757461261039202 0.0709955 0 -0.000791372
2009 2 3 31.1018 -1780.5001013648905 4.53325e-21 2.59757461259683042 0.0708751 0 -0.000789646
2010 2 3 31.1018 -1777.50010136489072 4.52559e-21 2.59757461258326838 0.0707545 0 -0.000787941
2011 2 3 31.1018 -1774.50010136489118 4.51793e-21 2.59757461256970679 0.0706341 0 -0.000786213
2012 2 3 31.1018 -1771.50010136489163 4.51027e-21 2.59757461255614475 0.0705137 0 -0.000784487
2013 2 3 31.1018 -1768.50010136489186 4.50262e-21 2.59757461254258315 0.0703931 0 -0.000782783
2014 2 3 31.1018 -1765.50010136489232 4.49496e-21 2.59757461252902111 0.0702727 0 -0.000781053
2015 2 3 31.1018 -1762.50010136489277 4.4873e-21 2.59757461251545951 0.0701523 0 -0.000779328
2016 2 3 31.1018 -1759.500101364893 4.47964e-21 2.59757461250189747 0.0700317 0 -0.000777624
2017 2 3 31.1018 -1756.50010136489345 4.47199e-21 2.59757461248833588 0.0699113 0 -0.000775895
2018 2 3 31.1018 -1753.50010136489391 4.46433e-21 2.59757461247477384 0.069791 0 -0.000774168
2019 2 3 31.1018 -1750.50010136489414 4.45667e-21 2.59757461246121224 0.0696704 0 -0.000772464
2020 2 3 31.1018 -1747.50010136489459 4.44901e-21 2.5975746124476502 0.06955 0 -0.000770737
2021 2 3 31.1018 -1744.50010136489504 4.44136e-21 2.5975746124340886 0.0694296 0 -0.000769009
2022 2 3 31.1018 -1741.50010136489527 4.4337e-21 2.59757461242052656 0.069309 0 -0.000767305
2023 2 3 31.1018 -1738.50010136489573 4.42604e-21 2.59757461240696497 0.0691886 0 -0.000765578
2024 2 3 31.1018 -1735.50010136489618 4.41838e-21 2.59757461239340293 0.0690682 0 -0.000763851
2025 2 3 31.1018 -1732.50010136489641 4.41073e-21 2.59757461237984133 0.0689476 0 -0.000762147
2026 2 3 31.1018 -1729.50010136489686 4.40307e-21 2.59757461236627929 0.0688272 0 -0.000760419
2027 2 3 31.1018 -1726.50010136489732 4.39541e-21 2.59757461235271769 0.0687068 0 -0.000758692
2028 2 3 31.1018 -1723.50010136489755 4.38775e-21 2.59757461233915565 0.0685862 0 -0.000756987
2029 2 3 31.1018 -1720.500101364898 4.3801e-21 2.59757461232559406 0.0684658 0 -0.000755262
2030 2 3 31.1018 -1717.50010136489823 4.37244e-21 2.59757461231203202 0.0683452 0 -0.000753556
2031 2 3 31.1018 -1714.50010136489868 4.36478e-21 2.59757461229847042 0.0682248 0 -0.00075183
2032 2 3 31.1018 -1711.50010136489914 4.35712e-21 2.59757461228490838 0.0681045 0 -0.000750102
2033 2 3 31.1018 -1708.50010136489936 4.34947e-21 2.59757461227134678 0.0679839 0 -0.000748398
2034 2 3 31.1018 -1705.50010136489982 4.34181e-21 2.59757461225778474 0.0678635 0 -0.00074667
2035 2 3 31.1018 -1702.50010136490027 4.33415e-21 2.59757461224422315 0.0677431 0 -0.000744944
2036 2 3 31.1018 -1699.5001013649005 4.32649e-21 2.59757461223066111 0.0676225 0 -0.000743239
2037 2 3 31.1018 -1696.50010136490096 4.31884e-21 2.59757461221709951 0.0675021 0 -0.000741512
2038 2 3 31.1018 -1693.50010136490141 4.31118e-21 2.59757461220353747 0.0673817 0 -0.000739784
2039 2 3 31.1018 -1690.50010136490164 4.30352e-21 2.59757461218997587 0.0672611 0 -0.00073808
2040 2 3 31.1018 -1687.50010136490209 4.29586e-21 2.59757461217641383 0.0671407 0 -0.000736352
2041 2 3 31.1018 -1684.50010136490255 4.28821e-21 2.59757461216285224 0.0670203 0 -0.000734627
2042 2 3 31.1018 -1681.50010136490278 4.28055e-21 2.5975746121492902 0.0668997 0 -0.000732922
2043 2 3 31.1018 -1678.50010136490323 4.27289e-21 2.5975746121357286 0.0667793 0 -0.000731194
2044 2 3 31.1018 -1675.50010136490368 4.26523e-21 2.59757461212216656 0.066659 0 -0.000729467
2045 2 3 31.1018 -1672.50010136490391 4.25758e-21 2.59757461210860496 0.0665383 0 -0.000727763
2046 2 3 31.1018 -1669.50010136490437 4.24992e-21 2.59757461209504292 0.066418 0 -0.000726035
2047 2 3 31.1018 -1666.50010136490482 4.24226e-21 2.59757461208148133 0.0662976 0 -0.000724308
2048 2 3 31.1018 -1663.50010136490505 4.2346e-21 2.59757461206791929 0.066177 0 -0.000722605
2049 2 3 31.1018 -1660.5001013649055 4.22695e-21 2.59757461205435769 0.0660566 0 -0.000720877
2050 2 3 31.1018 -1657.50010136490596 4.21929e-21 2.59757461204079565 0.0659362 0 -0.000719149
2051 2 3 31.1018 -1654.50010136490619 4.21163e-21 2.59757461202723405 0.0658156 0 -0.000717446
2052 2 3 31.1018 -1651.50010136490664 4.20397e-21 2.59757461201367201 0.0656952 0 -0.000715717
2053 2 3 31.1018 -1648.5001013649071 4.19632e-21 2.59757461200011042 0.0655748 0 -0.00071399
2054 2 3 31.1018 -1645.50010136490732 4.18866e-21 2.59757461198654838 0.0654542 0 -0.000712287
2055 2 3 31.1018 -1642.50010136490778 4.181e-21 2.59757461197298678 0.0653338 0 -0.000710559
2056 2 3 31.1018 -1639.50010136490823 4.17334e-21 2.59757461195942474 0.0652134 0 -0.000708832
2057 2 3 31.1018 -1636.50010136490846 4.16569e-21 2.59757461194586314 0.0650928 0 -0.000707128
2058 2 3 31.1018 -1633.50010136490891 4.15803e-21 2.5975746119323011 0.0649725 0 -0.0007054
2059 2 3 31.1018 -1630.50010136490937 4.15037e-21 2.59757461191873951 0.0648521 0 -0.000703673
2060 2 3 31.1018 -1627.5001013649096 4.14271e-21 2.59757461190517747 0.0647315 0 -0.000701969
2061 2 3 31.1018 -1624.50010136491005 4.13506e-21 2.59757461189161587 0.0646111 0 -0.000700242
2062 2 3 31.1018 -1621.50010136491051 4.1274e-21 2.59757461187805383 0.0644907 0 -0.000698514
2063 2 3 31.1018 -1618.50010136491073 4.11974e-21 2.59757461186449223 0.0643701 0 -0.00069681
2064 2 3 31.1018 -1615.50010136491119 4.11208e-21 2.59757461185093019 0.0642497 0 -0.000695083
2065 2 3 31.1018 -1612.50010136491164 4.10443e-21 2.5975746118373686 0.0641293 0 -0.000693357
2066 2 3 31.1018 -1609.50010136491187 4.09677e-21 2.59757461182380656 0.0640087 0 -0.000691652
2067 2 3 31.1018 -1606.50010136491233 4.08911e-21 2.59757461181024496 0.0638883 0 -0.000689925
2068 2 3 31.1018 -1603.50010136491278 4.08145e-21 2.59757461179668292 0.0637679 0 -0.000688197
2069 2 3 31.1018 -1600.50010136491301 4.0738e-21 2.59757461178312132 0.0636473 0 -0.000686495
2070 2 3 31.1018 -1597.50010136491346 4.06614e-21 2.59757461176955928 0.0635269 0 -0.000684766
2071 2 3 31.1018 -1594.50010136491392 4.05848e-21 2.59757461175599769 0.0634066 0 -0.000683039
2072 2 3 31.1018 -1591.50010136491414 4.05082e-21 2.59757461174243565 0.0632859 0 -0.000681334
2073 2 3 31.1018 -1588.5001013649146 4.04317e-21 2.59757461172887405 0.0631656 0 -0.000679608
2074 2 3 31.1018 -1585.50010136491505 4.03551e-21 2.59757461171531201 0.0630452 0 -0.000677879
2075 2 3 31.1018 -1582.50010136491528 4.02785e-21 2.59757461170175041 0.0629246 0 -0.000676177
2076 2 3 31.1018 -1579.50010136491574 4.02019e-21 2.59757461168818837 0.0628042 0 -0.000674448
2077 2 3 31.1018 -1576.50010136491619 4.01254e-21 2.59757461167462678 0.0626838 0 -0.000672722
2078 2 3 31.1018 -1573.50010136491642 4.00488e-21 2.59757461166106474 0.0625632 0 -0.000671017
2079 2 3 31.1018 -1570.50010136491687 3.99722e-21 2.59757461164750314 0.0624428 0 -0.000669291
2080 2 3 31.1018 -1567.50010136491733 3.98956e-21 2.5975746116339411 0.0623224 0 -0.000667562
2081 2 3 31.1018 -1564.50010136491755 3.98191e-21 2.5975746116203795 0.0622018 0 -0.000665859
2082 2 3 31.1018 -1561.50010136491801 3.97425e-21 2.59757461160681746 0.0620814 0 -0.000664131
2083 2 3 31.1018 -1558.50010136491846 3.96659e-21 2.59757461159325587 0.061961 0 -0.000662405
2084 2 3 31.1018 -1555.50010136491869 3.95893e-21 2.59757461157969383 0.0618404 0 -0.0006607
2085 2 3 31.1018 -1552.50010136491915 3.95128e-21 2.59757461156613223 0.0617201 0 -0.000658973
2086 2 3 31.1018 -1549.5001013649196 3.94362e-21 2.59757461155257019 0.0615997 0 -0.000657244
2087 2 3 31.1018 -1546.50010136491983 3.93596e-21 2.59757461153900859 0.0614791 0 -0.000655541
2088 2 3 31.1018 -1543.50010136492028 3.9283e-21 2.59757461152544655 0.0613587 0 -0.000653814
2089 2 3 31.1018 -1540.50010136492074 3.92065e-21 2.59757461151188496 0.0612383 0 -0.000652087
2090 2 3 31.1018 -1537.50010136492097 3.91299e-21 2.59757461149832292 0.0611177 0 -0.000650382
2091 2 3 31.1018 -1534.50010136492142 3.90533e-21 2.59757461148476132 0.0609973 0 -0.000648655
2092 2 3 31.1018 -1531.50010136492165 3.89767e-21 2.59757461147119928 0.0608767 0 -0.000646951
2093 2 3 31.1018 -1528.5001013649221 3.89002e-21 2.59757461145763768 0.0607563 0 -0.000645224
2094 2 3 31.1018 -1525.50010136492256 3.88236e-21 2.59757461144407564 0.0606359 0 -0.000643496
2095 2 3 31.1018 -1522.50010136492278 3.8747e-21 2.59757461143051405 0.0605153 0 -0.000641793
2096 2 3 31.1018 -1519.50010136492324 3.86704e-21 2.59757461141695201 0.0603949 0 -0.000640065
2097 2 3 31.1018 -1516.50010136492369 3.85939e-21 2.59757461140339041 0.0602745 0 -0.000638338
2098 2 3 31.1018 -1513.50010136492392 3.85173e-21 2.59757461138982837 0.0601539 0 -0.000636635
2099 2 3 31.1018 -1510.50010136492438 3.84407e-21 2.59757461137626677 0.0600335 0 -0.000634907
2100 2 3 31.1018 -1507.50010136492483 3.83641e-21 2.59757461136270473 0.0599132 0 -0.000633179