ITEM: TIMESTEP
6900000
ITEM: NUMBER OF ATOMS
751
ITEM: BOX BOUNDS pp pp pp
-6.7500000000000000e+02 6.7500000000000000e+02
-1.0000000000000000e+02 1.0000000000000000e+02
-1.0000000000000000e+02 1.0000000000000000e+02
ITEM: ATOMS id type diameter mass xu yu zu fx fy fz
1 1 3 31.1018 -675 0 0 0 0 0
2 1 3 31.1018 -672 0 0 0 0 0
3 1 3 31.1018 -669 0 0 0 0 0
4 1 3 31.1018 -666 0 0 0 0 0
5 1 3 31.1018 -663 0 0 0 0 0
6 1 3 31.1018 -660 0 0 0 0 0
7 1 3 31.1018 -657 0 0 0 0 0
8 1 3 31.1018 -654 0 0 0 0 0
9 1 3 31.1018 -651 0 0 0 0 0
10 1 3 31.1018 -648 0 0 0 0 0
11 1 3 31.1018 -645 0 0 0 0 0
12 1 3 31.1018 -642 0 0 0 0 0
13 1 3 31.1018 -639 0 0 0 0 0
14 1 3 31.1018 -636 0 0 0 0 0
15 1 3 31.1018 -633 0 0 0 0 0
16 1 3 31.1018 -630 0 0 0 0 0
17 1 3 31.1018 -627 0 0 0 0 0
18 1 3 31.1018 -624 0 0 0 0 0
19 1 3 31.1018 -621 0 0 0 0 0
20 1 3 31.1018 -618 0 0 0 0 0
21 1 3 31.1018 -615 0 0 0 0 0
22 1 3 31.1018 -612 0 0 0 0 0
23 1 3 31.1018 -609 0 0 0 0 0
24 1 3 31.1018 -606 0 0 0 0 0
25 1 3 31.1018 -603 0 0 0 0 0
26 1 3 31.1018 -600 0 0 0 0 0
27 1 3 31.1018 -597 0 0 0 0 0
28 1 3 31.1018 -594 0 0 0 0 0
29 1 3 31.1018 -591 0 0 0 0 0
30 1 3 31.1018 -588 0 0 0 0 0
31 1 3 31.1018 -585 0 0 0 0 0
32 1 3 31.1018 -582 0 0 0 0 0
33 1 3 31.1018 -579 0 0 0 0 0
34 1 3 31.1018 -576 0 0 0 0 0
35 1 3 31.1018 -573 0 0 0 0 0
36 1 3 31.1018 -570 0 0 0 0 0
37 1 3 31.1018 -567 0 0 0 0 0
38 1 3 31.1018 -564 0 0 0 0 0
39 1 3 31.1018 -561 0 0 0 0 0
40 1 3 31.1018 -558 0 0 0 0 0
41 1 3 31.1018 -555 0 0 0 0 0
42 1 3 31.1018 -552 0 0 0 0 0
43 1 3 31.1018 -549 0 0 0 0 0
44 1 3 31.1018 -546 0 0 0 0 0
45 1 3 31.1018 -543 0 0 0 0 0
46 1 3 31.1018 -540 0 0 0 0 0
47 1 3 31.1018 -537 0 0 0 0 0
48 1 3 31.1018 -534 0 0 0 0 0
49 1 3 31.1018 -531 0 0 0 0 0
50 1 3 31.1018 -528 0 0 0 0 0
51 1 3 31.1018 -525 0 0 0 0 0
52 1 3 31.1018 -522 0 0 0 0 0
53 1 3 31.1018 -519 0 0 0 0 0
54 1 3 31.1018 -516 0 0 0 0 0
55 1 3 31.1018 -513 0 0 0 0 0
56 1 3 31.1018 -510 0 0 0 0 0
57 1 3 31.1018 -507 0 0 0 0 0
58 1 3 31.1018 -504 0 0 0 0 0
59 1 3 31.1018 -501 0 0 0 0 0
60 1 3 31.1018 -498 0 0 0 0 0
61 1 3 31.1018 -495 0 0 0 0 0
62 1 3 31.1018 -492 0 0 0 0 0
63 1 3 31.1018 -489 0 0 0 0 0
64 1 3 31.1018 -486 0 0 0 0 0
65 1 3 31.1018 -483 0 0 0 0 0
66 1 3 31.1018 -480 0 0 0 0 0
67 1 3 31.1018 -477 0 0 0 0 0
68 1 3 31.1018 -474 0 0 0 0 0
69 1 3 31.1018 -471 0 0 0 0 0
70 1 3 31.1018 -468 0 0 0 0 0
71 1 3 31.1018 -465 0 0 0 0 0
72 1 3 31.1018 -462 0 0 0 0 0
73 1 3 31.1018 -459 0 0 0 0 0
74 1 3 31.1018 -456 0 0 0 0 0
75 1 3 31.1018 -453 0 0 0 0 0
76 1 3 31.1018 -450 0 0 0 0 0
77 1 3 31.1018 -447 0 0 0 0 0
78 1 3 31.1018 -444 0 0 0 0 0
79 1 3 31.1018 -441 0 0 0 0 0
80 1 3 31.1018 -438 0 0 0 0 0
81 1 3 31.1018 -435 0 0 0 0 0
82 1 3 31.1018 -432 0 0 0 0 0
83 1 3 31.1018 -429 0 0 0 0 0
84 1 3 31.1018 -426 0 0 0 0 0
85 1 3 31.1018 -423 0 0 0 0 0
86 1 3 31.1018 -420 0 0 0 0 0
87 1 3 31.1018 -417 0 0 0 0 0
88 1 3 31.1018 -414 0 0 0 0 0
89 1 3 31.1018 -411 0 0 0 0 0
90 1 3 31.1018 -408 0 0 0 0 0
91 1 3 31.1018 -405 0 0 0 0 0
92 1 3 31.1018 -402 0 0 0 0 0
93 1 3 31.1018 -399 0 0 0 0 0
94 1 3 31.1018 -396 0 0 0 0 0
95 1 3 31.1018 -393 0 0 0 0 0
96 1 3 31.1018 -390 0 0 0 0 0
97 1 3 31.1018 -387 0 0 0 0 0
98 1 3 31.1018 -384 0 0 0 0 0
99 1 3 31.1018 -381 0 0 0 0 0
100 1 3 31.1018 -378 0 0 0 0 0
101 1 3 31.1018 -375 0 0 0 0 0
102 1 3 31.1018 -372 0 0 0 0 0
103 1 3 31.1018 -369 0 0 0 0 0
104 1 3 31.1018 -366 0 0 0 0 0
105 1 3 31.1018 -363 0 0 0 0 0
106 1 3 31.1018 -360 0 0 0 0 0
107 1 3 31.1018 -357 0 0 0 0 0
108 1 3 31.1018 -354 0 0 0 0 0
109 1 3 31.1018 -351 0 0 0 0 0
110 1 3 31.1018 -348 0 0 0 0 0
111 1 3 31.1018 -345 0 0 0 0 0
112 1 3 31.1018 -342 0 0 0 0 0
113 1 3 31.1018 -339 0 0 0 0 0
451 2 3 31.1018 -454.500101367916159 4.27712e-19 2.59757464094032864 0.283217 0 -0.0325213
452 2 3 31.1018 -451.500101367916386 4.2486e-19 2.5975746406787299 0.28432 0 -0.0305237
453 2 3 31.1018 -448.500101367916614 4.22009e-19 2.59757464041713115 0.285423 0 -0.028526
454 2 3 31.1018 -445.500101367916841 4.19157e-19 2.59757464015553241 0.286526 0 -0.0265283
455 2 3 31.1018 -442.500101367917068 4.16306e-19 2.59757463989393367 0.287629 0 -0.0245307
456 2 3 31.1018 -439.500101367917296 4.13454e-19 2.59757463963233493 0.286807 0 -0.0236436
457 2 3 31.1018 -436.500101367917523 4.10603e-19 2.59757463937073618 0.284632 0 -0.023538
458 2 3 31.1018 -433.50010136791775 4.07752e-19 2.59757463910913744 0.282457 0 -0.0234323
459 2 3 31.1018 -430.500101367917978 4.049e-19 2.5975746388475387 0.280281 0 -0.0233267
460 2 3 31.1018 -427.500101367918205 4.02049e-19 2.59757463858593995 0.278106 0 -0.023221
461 2 3 31.1018 -424.500101367918433 3.99197e-19 2.59757463832434121 0.275931 0 -0.0231154
462 2 3 31.1018 -421.50010136791866 3.96346e-19 2.59757463806274247 0.273756 0 -0.0230097
463 2 3 31.1018 -418.500101367918887 3.93495e-19 2.59757463780114373 0.271581 0 -0.0229041
464 2 3 31.1018 -415.500101367919115 3.90643e-19 2.59757463753954498 0.269406 0 -0.0227984
465 2 3 31.1018 -412.500101367919342 3.87792e-19 2.59757463727794624 0.26723 0 -0.0226928
466 2 3 31.1018 -409.500101367919569 3.8494e-19 2.5975746370163475 0.265055 0 -0.0225872
467 2 3 31.1018 -406.500101367919797 3.82089e-19 2.59757463675474876 0.26288 0 -0.0224815
468 2 3 31.1018 -403.500101367920024 3.79238e-19 2.59757463649315001 0.260705 0 -0.0223759
469 2 3 31.1018 -400.500101367920365 3.76386e-19 2.59757463623155127 0.25853 0 -0.0222702
470 2 3 31.1018 -397.500101367920593 3.73535e-19 2.59757463596995253 0.256355 0 -0.0221642
471 2 3 31.1018 -394.50010136792082 3.70683e-19 2.59757463570835379 0.254181 0 -0.0220582
472 2 3 31.1018 -391.500101367921047 3.67832e-19 2.59757463544675504 0.252006 0 -0.0219522
473 2 3 31.1018 -388.500101367921275 3.64981e-19 2.5975746351851563 0.249831 0 -0.0218462
474 2 3 31.1018 -385.500101367921502 3.62129e-19 2.59757463492355756 0.247657 0 -0.0217402
475 2 3 31.1018 -382.500101367921729 3.59278e-19 2.59757463466195881 0.245482 0 -0.0216342
476 2 3 31.1018 -379.500101367921957 3.56426e-19 2.59757463440036007 0.243308 0 -0.0215282
477 2 3 31.1018 -376.500101367922184 3.53575e-19 2.59757463413876133 0.241133 0 -0.0214222
478 2 3 31.1018 -373.500101367922412 3.50723e-19 2.59757463387716259 0.242241 0 -0.0194205
479 2 3 31.1018 -370.500101367922639 3.47872e-19 2.59757463361556384 0.243423 0 -0.0173759
480 2 3 31.1018 -367.500101367922866 3.45021e-19 2.5975746333539651 0.244606 0 -0.0153313
481 2 3 31.1018 -364.500101367923094 3.42169e-19 2.59757463309236636 0.245788 0 -0.0132867
482 2 3 31.1018 -361.500101367923321 3.39318e-19 2.59757463283076762 0.24697 0 -0.011242
483 2 3 31.1018 -358.500101367923548 3.36466e-19 2.59757463256916887 0.248153 0 -0.00919742
484 2 3 31.1018 -355.500101367923776 3.33615e-19 2.59757463230757013 0.249335 0 -0.00715279
485 2 3 31.1018 -352.500101367924003 3.30764e-19 2.59757463204597139 0.250517 0 -0.00510816
486 2 3 31.1018 -349.500101367924231 3.27912e-19 2.59757463178437265 0.2517 0 -0.00306353
487 2 3 31.1018 -346.500101367924458 3.25061e-19 2.5975746315227739 0.252882 0 -0.0010189
488 2 3 31.1018 -343.500101367924799 3.22209e-19 2.59757463126117516 0.250977 0 -0.000757416
489 2 3 31.1018 -340.500101367925026 3.19358e-19 2.59757463099957642 0.248727 0 -0.000694986
114 1 3 31.1018 -336 0 0 0 0 0
115 1 3 31.1018 -333 0 0 0 0 0
116 1 3 31.1018 -330 0 0 0 0 0
117 1 3 31.1018 -327 0 0 0 0 0
118 1 3 31.1018 -324 0 0 0 0 0
119 1 3 31.1018 -321 0 0 0 0 0
120 1 3 31.1018 -318 0 0 0 0 0
121 1 3 31.1018 -315 0 0 0 0 0
122 1 3 31.1018 -312 0 0 0 0 0
123 1 3 31.1018 -309 0 0 0 0 0
124 1 3 31.1018 -306 0 0 0 0 0
125 1 3 31.1018 -303 0 0 0 0 0
126 1 3 31.1018 -300 0 0 0 0 0
127 1 3 31.1018 -297 0 0 0 0 0
128 1 3 31.1018 -294 0 0 0 0 0
129 1 3 31.1018 -291 0 0 0 0 0
130 1 3 31.1018 -288 0 0 0 0 0
131 1 3 31.1018 -285 0 0 0 0 0
132 1 3 31.1018 -282 0 0 0 0 0
133 1 3 31.1018 -279 0 0 0 0 0
134 1 3 31.1018 -276 0 0 0 0 0
135 1 3 31.1018 -273 0 0 0 0 0
136 1 3 31.1018 -270 0 0 0 0 0
137 1 3 31.1018 -267 0 0 0 0 0
138 1 3 31.1018 -264 0 0 0 0 0
139 1 3 31.1018 -261 0 0 0 0 0
140 1 3 31.1018 -258 0 0 0 0 0
141 1 3 31.1018 -255 0 0 0 0 0
142 1 3 31.1018 -252 0 0 0 0 0
143 1 3 31.1018 -249 0 0 0 0 0
144 1 3 31.1018 -246 0 0 0 0 0
145 1 3 31.1018 -243 0 0 0 0 0
146 1 3 31.1018 -240 0 0 0 0 0
147 1 3 31.1018 -237 0 0 0 0 0
148 1 3 31.1018 -234 0 0 0 0 0
149 1 3 31.1018 -231 0 0 0 0 0
150 1 3 31.1018 -228 0 0 0 0 0
151 1 3 31.1018 -225 0 0 0 0 0
152 1 3 31.1018 -222 0 0 0 0 0
153 1 3 31.1018 -219 0 0 0 0 0
154 1 3 31.1018 -216 0 0 0 0 0
155 1 3 31.1018 -213 0 0 0 0 0
156 1 3 31.1018 -210 0 0 0 0 0
157 1 3 31.1018 -207 0 0 0 0 0
158 1 3 31.1018 -204 0 0 0 0 0
159 1 3 31.1018 -201 0 0 0 0 0
160 1 3 31.1018 -198 0 0 0 0 0
161 1 3 31.1018 -195 0 0 0 0 0
162 1 3 31.1018 -192 0 0 0 0 0
163 1 3 31.1018 -189 0 0 0 0 0
164 1 3 31.1018 -186 0 0 0 0 0
165 1 3 31.1018 -183 0 0 0 0 0
166 1 3 31.1018 -180 0 0 0 0 0
167 1 3 31.1018 -177 0 0 0 0 0
168 1 3 31.1018 -174 0 0 0 0 0
169 1 3 31.1018 -171 0 0 0 0 0
170 1 3 31.1018 -168 0 0 0 0 0
171 1 3 31.1018 -165 0 0 0 0 0
172 1 3 31.1018 -162 0 0 0 0 0
173 1 3 31.1018 -159 0 0 0 0 0
174 1 3 31.1018 -156 0 0 0 0 0
175 1 3 31.1018 -153 0 0 0 0 0
176 1 3 31.1018 -150 0 0 0 0 0
177 1 3 31.1018 -147 0 0 0 0 0
178 1 3 31.1018 -144 0 0 0 0 0
179 1 3 31.1018 -141 0 0 0 0 0
180 1 3 31.1018 -138 0 0 0 0 0
181 1 3 31.1018 -135 0 0 0 0 0
182 1 3 31.1018 -132 0 0 0 0 0
183 1 3 31.1018 -129 0 0 0 0 0
184 1 3 31.1018 -126 0 0 0 0 0
185 1 3 31.1018 -123 0 0 0 0 0
186 1 3 31.1018 -120 0 0 0 0 0
187 1 3 31.1018 -117 0 0 0 0 0
188 1 3 31.1018 -114 0 0 0 0 0
189 1 3 31.1018 -111 0 0 0 0 0
190 1 3 31.1018 -108 0 0 0 0 0
191 1 3 31.1018 -105 0 0 0 0 0
192 1 3 31.1018 -102 0 0 0 0 0
193 1 3 31.1018 -99 0 0 0 0 0
194 1 3 31.1018 -96 0 0 0 0 0
195 1 3 31.1018 -93 0 0 0 0 0
196 1 3 31.1018 -90 0 0 0 0 0
197 1 3 31.1018 -87 0 0 0 0 0
198 1 3 31.1018 -84 0 0 0 0 0
199 1 3 31.1018 -81 0 0 0 0 0
200 1 3 31.1018 -78 0 0 0 0 0
201 1 3 31.1018 -75 0 0 0 0 0
202 1 3 31.1018 -72 0 0 0 0 0
203 1 3 31.1018 -69 0 0 0 0 0
204 1 3 31.1018 -66 0 0 0 0 0
205 1 3 31.1018 -63 0 0 0 0 0
206 1 3 31.1018 -60 0 0 0 0 0
207 1 3 31.1018 -57 0 0 0 0 0
208 1 3 31.1018 -54 0 0 0 0 0
209 1 3 31.1018 -51 0 0 0 0 0
210 1 3 31.1018 -48 0 0 0 0 0
211 1 3 31.1018 -45 0 0 0 0 0
212 1 3 31.1018 -42 0 0 0 0 0
213 1 3 31.1018 -39 0 0 0 0 0
214 1 3 31.1018 -36 0 0 0 0 0
215 1 3 31.1018 -33 0 0 0 0 0
216 1 3 31.1018 -30 0 0 0 0 0
217 1 3 31.1018 -27 0 0 0 0 0
218 1 3 31.1018 -24 0 0 0 0 0
219 1 3 31.1018 -21 0 0 0 0 0
220 1 3 31.1018 -18 0 0 0 0 0
221 1 3 31.1018 -15 0 0 0 0 0
222 1 3 31.1018 -12 0 0 0 0 0
223 1 3 31.1018 -9 0 0 0 0 0
224 1 3 31.1018 -6 0 0 0 0 0
225 1 3 31.1018 -3 0 0 0 0 0
490 2 3 31.1018 -337.500101367925254 3.16507e-19 2.59757463073797767 0.246477 0 -0.000632556
491 2 3 31.1018 -334.500101367925481 3.13655e-19 2.59757463047637893 0.244227 0 -0.000570127
492 2 3 31.1018 -331.500101367925708 3.10804e-19 2.59757463021478019 0.241977 0 -0.000507698
493 2 3 31.1018 -328.500101367925936 3.07952e-19 2.59757462995318145 0.239727 0 -0.000445269
494 2 3 31.1018 -325.500101367926163 3.05101e-19 2.5975746296915827 0.237477 0 -0.00038284
495 2 3 31.1018 -322.500101367926391 3.02249e-19 2.59757462942998396 0.235227 0 -0.000320412
496 2 3 31.1018 -319.500101367926618 2.99398e-19 2.59757462916838522 0.232976 0 -0.000257985
497 2 3 31.1018 -316.500101367926845 2.96547e-19 2.59757462890678648 0.230726 0 -0.000195558
498 2 3 31.1018 -313.500101367927073 2.93695e-19 2.59757462864518773 0.228476 0 -0.00013313
499 2 3 31.1018 -310.5001013679273 2.90844e-19 2.59757462838358899 0.226226 0 -7.0703e-05
500 2 3 31.1018 -307.500101367927527 2.87992e-19 2.59757462812199025 0.223976 0 -8.27557e-06
501 2 3 31.1018 -304.500101367927755 2.85141e-19 2.59757462786039151 0.221726 0 5.415e-05
502 2 3 31.1018 -301.500101367927982 2.8229e-19 2.59757462759879276 0.219476 0 0.000116577
503 2 3 31.1018 -298.50010136792821 2.79438e-19 2.59757462733719402 0.217226 0 0.000179002
504 2 3 31.1018 -295.500101367928437 2.76587e-19 2.59757462707559528 0.214976 0 0.000241428
505 2 3 31.1018 -292.500101367928664 2.73735e-19 2.59757462681399653 0.212726 0 0.000303854
506 2 3 31.1018 -289.500101367928892 2.70884e-19 2.59757462655239779 0.210476 0 0.00036628
507 2 3 31.1018 -286.500101367929119 2.68033e-19 2.59757462629079905 0.208226 0 0.000428705
508 2 3 31.1018 -283.50010136792946 2.65181e-19 2.59757462602920031 0.205976 0 0.000491141
509 2 3 31.1018 -280.500101367929688 2.6233e-19 2.59757462576760156 0.203726 0 0.000553566
510 2 3 31.1018 -277.500101367929915 2.59478e-19 2.59757462550600282 0.201476 0 0.000615989
511 2 3 31.1018 -274.500101367930142 2.56627e-19 2.59757462524440408 0.199226 0 0.000678414
512 2 3 31.1018 -271.50010136793037 2.53776e-19 2.59757462498280534 0.196976 0 0.000740837
513 2 3 31.1018 -268.500101367930597 2.50924e-19 2.59757462472120659 0.194726 0 0.000803261
514 2 3 31.1018 -265.500101367930824 2.48073e-19 2.59757462445960785 0.192476 0 0.000865684
515 2 3 31.1018 -262.500101367931052 2.45221e-19 2.59757462419800911 0.190226 0 0.000928177
516 2 3 31.1018 -259.500101367931279 2.4237e-19 2.59757462393641037 0.187976 0 0.000990806
517 2 3 31.1018 -256.500101367931507 2.39518e-19 2.59757462367481162 0.185726 0 0.00105343
518 2 3 31.1018 -253.500101367931705 2.36667e-19 2.59757462341321288 0.183476 0 0.00111606
519 2 3 31.1018 -250.500101367931933 2.33816e-19 2.59757462315161414 0.181227 0 0.00117869
520 2 3 31.1018 -247.500101367932189 2.30964e-19 2.59757462289001539 0.178977 0 0.00124132
521 2 3 31.1018 -244.500101367932416 2.28113e-19 2.59757462262841665 0.176727 0 0.00130394
522 2 3 31.1018 -241.500101367932643 2.25261e-19 2.59757462236681791 0.174477 0 0.00136696
523 2 3 31.1018 -238.500101367932871 2.2241e-19 2.59757462210521917 0.172226 0 0.00143017
524 2 3 31.1018 -235.500101367933098 2.19559e-19 2.59757462184362042 0.169975 0 0.00149337
525 2 3 31.1018 -232.500101367933354 2.16707e-19 2.59757462158202168 0.167725 0 0.00155658
526 2 3 31.1018 -229.500101367933581 2.13856e-19 2.59757462132042294 0.165474 0 0.00161978
527 2 3 31.1018 -226.500101367933809 2.11004e-19 2.5975746210588242 0.163223 0 0.00168299
528 2 3 31.1018 -223.500101367934036 2.08153e-19 2.59757462079722545 0.160973 0 0.00174619
529 2 3 31.1018 -220.500101367934263 2.05302e-19 2.59757462053562671 0.158722 0 0.00180939
530 2 3 31.1018 -217.500101367934519 2.0245e-19 2.59757462027402797 0.156471 0 0.0018726
531 2 3 31.1018 -214.500101367934747 1.99599e-19 2.59757462001242923 0.15422 0 0.0019358
532 2 3 31.1018 -211.500101367934974 1.96747e-19 2.59757461975083048 0.15197 0 0.001999
533 2 3 31.1018 -208.500101367935201 1.93896e-19 2.59757461948923174 0.149719 0 0.0020622
534 2 3 31.1018 -205.500101367935429 1.91044e-19 2.597574619227633 0.147468 0 0.0021254
535 2 3 31.1018 -202.500101367935684 1.88193e-19 2.59757461896603425 0.145217 0 0.00218861
536 2 3 31.1018 -199.500101367935912 1.85342e-19 2.59757461870443551 0.142967 0 0.00225181
537 2 3 31.1018 -196.500101367936139 1.8249e-19 2.59757461844283677 0.140716 0 0.00231501
538 2 3 31.1018 -193.500101367936367 1.79639e-19 2.59757461818123803 0.138465 0 0.00237821
539 2 3 31.1018 -190.500101367936594 1.76787e-19 2.59757461791963928 0.136214 0 0.00244141
540 2 3 31.1018 -187.50010136793685 1.73936e-19 2.59757461765804054 0.133964 0 0.00250461
541 2 3 31.1018 -184.500101367937077 1.71085e-19 2.5975746173964418 0.131713 0 0.00256781
542 2 3 31.1018 -181.500101367937305 1.68233e-19 2.59757461713484306 0.129462 0 0.00263101
543 2 3 31.1018 -178.500101367937532 1.65382e-19 2.59757461687324431 0.127211 0 0.00269421
544 2 3 31.1018 -175.500101367937759 1.6253e-19 2.59757461661164557 0.124961 0 0.00275741
545 2 3 31.1018 -172.500101367938015 1.59679e-19 2.59757461635004683 0.12271 0 0.00282061
546 2 3 31.1018 -169.500101367938242 1.56828e-19 2.59757461608844809 0.120459 0 0.00288381
547 2 3 31.1018 -166.50010136793847 1.53976e-19 2.59757461582684934 0.118209 0 0.00294701
548 2 3 31.1018 -163.500101367938697 1.51125e-19 2.5975746155652506 0.115958 0 0.0030102
549 2 3 31.1018 -160.500101367938925 1.48273e-19 2.59757461530365186 0.113707 0 0.0030734
550 2 3 31.1018 -157.50010136793918 1.45422e-19 2.59757461504205311 0.111456 0 0.0031366
551 2 3 31.1018 -154.500101367939408 1.42571e-19 2.59757461478045437 0.109205 0 0.0031998
552 2 3 31.1018 -151.500101367939635 1.39719e-19 2.59757461451885563 0.106955 0 0.003263
553 2 3 31.1018 -148.500101367939862 1.36868e-19 2.59757461425725689 0.104704 0 0.00332619
554 2 3 31.1018 -145.50010136794009 1.34016e-19 2.59757461399565814 0.102453 0 0.00338939
555 2 3 31.1018 -142.500101367940346 1.31165e-19 2.5975746137340594 0.100202 0 0.00345259
556 2 3 31.1018 -139.500101367940573 1.28313e-19 2.59757461347246066 0.0979517 0 0.00351578
557 2 3 31.1018 -136.5001013679408 1.25462e-19 2.59757461321086192 0.0957009 0 0.00357898
558 2 3 31.1018 -133.500101367941028 1.22611e-19 2.59757461294926317 0.0934502 0 0.00364217
559 2 3 31.1018 -130.500101367941284 1.19759e-19 2.59757461268766443 0.0911994 0 0.00370537
560 2 3 31.1018 -127.500101367941511 1.16908e-19 2.59757461242606569 0.0889486 0 0.00376857
561 2 3 31.1018 -124.500101367941753 1.14056e-19 2.59757461216446695 0.0866979 0 0.00383176
562 2 3 31.1018 -121.50010136794198 1.11205e-19 2.5975746119028682 0.0844471 0 0.00389496
563 2 3 31.1018 -118.500101367942221 1.08354e-19 2.59757461164126946 0.0821963 0 0.00395815
564 2 3 31.1018 -115.500101367942449 1.05502e-19 2.59757461137967072 0.0799456 0 0.00402135
565 2 3 31.1018 -112.500101367942676 1.02651e-19 2.59757461111807197 0.0776948 0 0.00408454
566 2 3 31.1018 -109.500101367942918 9.97994e-20 2.59757461085647323 0.075444 0 0.00414773
567 2 3 31.1018 -106.500101367943145 9.6948e-20 2.59757461059487449 0.0731932 0 0.00421093
568 2 3 31.1018 -103.500101367943387 9.40965e-20 2.59757461033327575 0.0709425 0 0.00427412
569 2 3 31.1018 -100.500101367943614 9.12451e-20 2.597574610071677 0.0686917 0 0.00433731
570 2 3 31.1018 -97.5001013679438415 8.83937e-20 2.59757460981007826 0.0664409 0 0.00440051
571 2 3 31.1018 -94.5001013679440831 8.55423e-20 2.59757460954847952 0.0641901 0 0.0044637
572 2 3 31.1018 -91.5001013679443105 8.26909e-20 2.59757460928688078 0.0619393 0 0.00452689
573 2 3 31.1018 -88.5001013679445521 7.98395e-20 2.59757460902528203 0.0596886 0 0.00459008
574 2 3 31.1018 -85.5001013679447794 7.69881e-20 2.59757460876368329 0.0574378 0 0.00465328
575 2 3 31.1018 -82.5001013679450068 7.41367e-20 2.59757460850208455 0.055187 0 0.00471647
576 2 3 31.1018 -79.5001013679452484 7.12853e-20 2.59757460824048581 0.0529362 0 0.00477966
577 2 3 31.1018 -76.5001013679454758 6.84338e-20 2.59757460797888706 0.0506854 0 0.00484285
578 2 3 31.1018 -73.5001013679457174 6.55824e-20 2.59757460771728832 0.0484346 0 0.00490604
579 2 3 31.1018 -70.5001013679459447 6.2731e-20 2.59757460745568958 0.0461838 0 0.00496923
580 2 3 31.1018 -67.5001013679461721 5.98796e-20 2.59757460719409083 0.043933 0 0.00503242
581 2 3 31.1018 -64.5001013679464137 5.70282e-20 2.59757460693249209 0.0416822 0 0.00509561
582 2 3 31.1018 -61.5001013679466482 5.41768e-20 2.59757460667089335 0.0394315 0 0.0051588
583 2 3 31.1018 -58.5001013679468755 5.13254e-20 2.59757460640929461 0.0371806 0 0.00522199
584 2 3 31.1018 -55.50010136794711 4.8474e-20 2.59757460614769586 0.0349299 0 0.00528518
585 2 3 31.1018 -52.5001013679473445 4.56226e-20 2.59757460588609712 0.0326791 0 0.00534837
586 2 3 31.1018 -49.500101367947579 4.27712e-20 2.59757460562449838 0.0304283 0 0.00541156
587 2 3 31.1018 -46.5001013679478135 3.99197e-20 2.59757460536289964 0.0281775 0 0.00547475
588 2 3 31.1018 -43.5001013679480408 3.70683e-20 2.59757460510130089 0.0259264 0 0.00553807
589 2 3 31.1018 -40.5001013679482753 3.42169e-20 2.59757460483970215 0.0236746 0 0.00560184
590 2 3 31.1018 -37.5001013679485098 3.13655e-20 2.59757460457810341 0.0214228 0 0.0056656
591 2 3 31.1018 -34.5001013679487443 2.85141e-20 2.59757460431650467 0.019171 0 0.00572937
592 2 3 31.1018 -31.5001013679489716 2.56627e-20 2.59757460405490592 0.0169192 0 0.00579313
593 2 3 31.1018 -28.5001013679492061 2.28113e-20 2.59757460379330718 0.0146674 0 0.00585689
594 2 3 31.1018 -25.5001013679494406 1.99599e-20 2.59757460353170844 0.0124156 0 0.00592066
595 2 3 31.1018 -22.5001013679496715 1.71085e-20 2.59757460327010969 0.0101638 0 0.00598442
596 2 3 31.1018 -19.500101367949906 1.42571e-20 2.59757460300851095 0.00791194 0 0.00604818
597 2 3 31.1018 -16.5001013679501369 1.14056e-20 2.59757460274691221 0.00566013 0 0.00611195
598 2 3 31.1018 -13.5001013679503714 8.55423e-21 2.59757460248531347 0.00340831 0 0.00617571
599 2 3 31.1018 -10.5001013679506059 5.70282e-21 2.59757460222371472 0.0011565 0 0.00623947
600 2 3 31.1018 -7.50010136795083859 2.85141e-21 2.59757460196211598 -0.00109532 0 0.00630323
601 2 3 31.1018 -4.50010136795107218 -1.56167e-35 2.59757460170051724 -0.00334714 0 0.00636699
602 2 3 31.1018 -1.50010136795130533 -2.85141e-21 2.5975746014389185 -0.00559896 0 0.00643075
226 1 3 31.1018 0 0 0 0 0 0
227 1 3 31.1018 3 0 0 0 0 0
228 1 3 31.1018 6 0 0 0 0 0
229 1 3 31.1018 9 0 0 0 0 0
230 1 3 31.1018 12 0 0 0 0 0
231 1 3 31.1018 15 0 0 0 0 0
232 1 3 31.1018 18 0 0 0 0 0
233 1 3 31.1018 21 0 0 0 0 0
234 1 3 31.1018 24 0 0 0 0 0
235 1 3 31.1018 27 0 0 0 0 0
236 1 3 31.1018 30 0 0 0 0 0
237 1 3 31.1018 33 0 0 0 0 0
238 1 3 31.1018 36 0 0 0 0 0
239 1 3 31.1018 39 0 0 0 0 0
240 1 3 31.1018 42 0 0 0 0 0
241 1 3 31.1018 45 0 0 0 0 0
242 1 3 31.1018 48 0 0 0 0 0
243 1 3 31.1018 51 0 0 0 0 0
244 1 3 31.1018 54 0 0 0 0 0
245 1 3 31.1018 57 0 0 0 0 0
246 1 3 31.1018 60 0 0 0 0 0
247 1 3 31.1018 63 0 0 0 0 0
248 1 3 31.1018 66 0 0 0 0 0
249 1 3 31.1018 69 0 0 0 0 0
250 1 3 31.1018 72 0 0 0 0 0
251 1 3 31.1018 75 0 0 0 0 0
252 1 3 31.1018 78 0 0 0 0 0
253 1 3 31.1018 81 0 0 0 0 0
254 1 3 31.1018 84 0 0 0 0 0
255 1 3 31.1018 87 0 0 0 0 0
256 1 3 31.1018 90 0 0 0 0 0
257 1 3 31.1018 93 0 0 0 0 0
258 1 3 31.1018 96 0 0 0 0 0
259 1 3 31.1018 99 0 0 0 0 0
260 1 3 31.1018 102 0 0 0 0 0
261 1 3 31.1018 105 0 0 0 0 0
262 1 3 31.1018 108 0 0 0 0 0
263 1 3 31.1018 111 0 0 0 0 0
264 1 3 31.1018 114 0 0 0 0 0
265 1 3 31.1018 117 0 0 0 0 0
266 1 3 31.1018 120 0 0 0 0 0
267 1 3 31.1018 123 0 0 0 0 0
268 1 3 31.1018 126 0 0 0 0 0
269 1 3 31.1018 129 0 0 0 0 0
270 1 3 31.1018 132 0 0 0 0 0
271 1 3 31.1018 135 0 0 0 0 0
272 1 3 31.1018 138 0 0 0 0 0
273 1 3 31.1018 141 0 0 0 0 0
274 1 3 31.1018 144 0 0 0 0 0
275 1 3 31.1018 147 0 0 0 0 0
276 1 3 31.1018 150 0 0 0 0 0
277 1 3 31.1018 153 0 0 0 0 0
278 1 3 31.1018 156 0 0 0 0 0
279 1 3 31.1018 159 0 0 0 0 0
280 1 3 31.1018 162 0 0 0 0 0
281 1 3 31.1018 165 0 0 0 0 0
282 1 3 31.1018 168 0 0 0 0 0
283 1 3 31.1018 171 0 0 0 0 0
284 1 3 31.1018 174 0 0 0 0 0
285 1 3 31.1018 177 0 0 0 0 0
286 1 3 31.1018 180 0 0 0 0 0
287 1 3 31.1018 183 0 0 0 0 0
288 1 3 31.1018 186 0 0 0 0 0
289 1 3 31.1018 189 0 0 0 0 0
290 1 3 31.1018 192 0 0 0 0 0
291 1 3 31.1018 195 0 0 0 0 0
292 1 3 31.1018 198 0 0 0 0 0
293 1 3 31.1018 201 0 0 0 0 0
294 1 3 31.1018 204 0 0 0 0 0
295 1 3 31.1018 207 0 0 0 0 0
296 1 3 31.1018 210 0 0 0 0 0
297 1 3 31.1018 213 0 0 0 0 0
298 1 3 31.1018 216 0 0 0 0 0
299 1 3 31.1018 219 0 0 0 0 0
300 1 3 31.1018 222 0 0 0 0 0
301 1 3 31.1018 225 0 0 0 0 0
302 1 3 31.1018 228 0 0 0 0 0
303 1 3 31.1018 231 0 0 0 0 0
304 1 3 31.1018 234 0 0 0 0 0
305 1 3 31.1018 237 0 0 0 0 0
306 1 3 31.1018 240 0 0 0 0 0
307 1 3 31.1018 243 0 0 0 0 0
308 1 3 31.1018 246 0 0 0 0 0
309 1 3 31.1018 249 0 0 0 0 0
310 1 3 31.1018 252 0 0 0 0 0
311 1 3 31.1018 255 0 0 0 0 0
312 1 3 31.1018 258 0 0 0 0 0
313 1 3 31.1018 261 0 0 0 0 0
314 1 3 31.1018 264 0 0 0 0 0
315 1 3 31.1018 267 0 0 0 0 0
316 1 3 31.1018 270 0 0 0 0 0
317 1 3 31.1018 273 0 0 0 0 0
318 1 3 31.1018 276 0 0 0 0 0
319 1 3 31.1018 279 0 0 0 0 0
320 1 3 31.1018 282 0 0 0 0 0
321 1 3 31.1018 285 0 0 0 0 0
322 1 3 31.1018 288 0 0 0 0 0
323 1 3 31.1018 291 0 0 0 0 0
324 1 3 31.1018 294 0 0 0 0 0
325 1 3 31.1018 297 0 0 0 0 0
326 1 3 31.1018 300 0 0 0 0 0
327 1 3 31.1018 303 0 0 0 0 0
328 1 3 31.1018 306 0 0 0 0 0
329 1 3 31.1018 309 0 0 0 0 0
330 1 3 31.1018 312 0 0 0 0 0
331 1 3 31.1018 315 0 0 0 0 0
332 1 3 31.1018 318 0 0 0 0 0
333 1 3 31.1018 321 0 0 0 0 0
334 1 3 31.1018 324 0 0 0 0 0
335 1 3 31.1018 327 0 0 0 0 0
336 1 3 31.1018 330 0 0 0 0 0
337 1 3 31.1018 333 0 0 0 0 0
338 1 3 31.1018 336 0 0 0 0 0
603 2 3 31.1018 1.49989863204846152 -5.70282e-21 2.59757460117731975 -0.00785078 0 0.00649451
604 2 3 31.1018 4.49989863204822704 -8.55423e-21 2.59757460091572101 -0.0101026 0 0.00655828
605 2 3 31.1018 7.49989863204799434 -1.14056e-20 2.59757460065412227 -0.0123544 0 0.00662204
606 2 3 31.1018 10.4998986320477634 -1.42571e-20 2.59757460039252353 -0.0146063 0 0.0066858
607 2 3 31.1018 13.4998986320475289 -1.71085e-20 2.59757460013092478 -0.0168581 0 0.00674956
608 2 3 31.1018 16.499898632047298 -1.99599e-20 2.59757459986932604 -0.0191099 0 0.00681332
609 2 3 31.1018 19.4998986320470635 -2.28113e-20 2.5975745996077273 -0.0213617 0 0.00687708
610 2 3 31.1018 22.4998986320468291 -2.56627e-20 2.59757459934612855 -0.0236136 0 0.00694084
611 2 3 31.1018 25.4998986320465981 -2.85141e-20 2.59757459908452981 -0.0258654 0 0.00700459
612 2 3 31.1018 28.4998986320463672 -3.13655e-20 2.59757459882293107 -0.0281172 0 0.00706835
613 2 3 31.1018 31.4998986320461327 -3.42169e-20 2.59757459856133233 -0.0303691 0 0.00713211
614 2 3 31.1018 34.4998986320458911 -3.70683e-20 2.59757459829973358 -0.0326209 0 0.00719587
615 2 3 31.1018 37.4998986320456638 -3.99197e-20 2.59757459803813484 -0.0348727 0 0.00725963
616 2 3 31.1018 40.4998986320454293 -4.27712e-20 2.5975745977765361 -0.0371246 0 0.00732338
617 2 3 31.1018 43.4998986320451948 -4.56226e-20 2.59757459751493736 -0.0393764 0 0.00738714
618 2 3 31.1018 46.4998986320449603 -4.8474e-20 2.59757459725333861 -0.0416282 0 0.0074509
619 2 3 31.1018 49.4998986320447258 -5.13254e-20 2.59757459699173987 -0.0438801 0 0.00751466
620 2 3 31.1018 52.4998986320444985 -5.41768e-20 2.59757459673014113 -0.0461319 0 0.00757841
621 2 3 31.1018 55.499898632044264 -5.70282e-20 2.59757459646854238 -0.0483838 0 0.00764217
622 2 3 31.1018 58.4998986320440295 -5.98796e-20 2.59757459620694364 -0.0506356 0 0.00770593
623 2 3 31.1018 61.499898632043795 -6.2731e-20 2.5975745959453449 -0.0528875 0 0.00776968
624 2 3 31.1018 64.4998986320435677 -6.55824e-20 2.59757459568374616 -0.0551393 0 0.00783344
625 2 3 31.1018 67.4998986320433261 -6.84338e-20 2.59757459542214741 -0.0573912 0 0.0078972
626 2 3 31.1018 70.4998986320430987 -7.12853e-20 2.59757459516054867 -0.059643 0 0.00796095
627 2 3 31.1018 73.4998986320428571 -7.41367e-20 2.59757459489894993 -0.0618949 0 0.0080247
628 2 3 31.1018 76.4998986320426297 -7.69881e-20 2.59757459463735119 -0.0641467 0 0.00808846
629 2 3 31.1018 79.4998986320424024 -7.98395e-20 2.59757459437575244 -0.0663986 0 0.00815221
630 2 3 31.1018 82.4998986320421608 -8.26909e-20 2.5975745941141537 -0.0686504 0 0.00821597
631 2 3 31.1018 85.4998986320419334 -8.55423e-20 2.59757459385255496 -0.0709023 0 0.00827972
632 2 3 31.1018 88.4998986320416918 -8.83937e-20 2.59757459359095622 -0.0731541 0 0.00834348
633 2 3 31.1018 91.4998986320414645 -9.12451e-20 2.59757459332935747 -0.075406 0 0.00840723
634 2 3 31.1018 94.4998986320412371 -9.40965e-20 2.59757459306775873 -0.0776579 0 0.00847098
635 2 3 31.1018 97.4998986320409955 -9.6948e-20 2.59757459280615999 -0.0799097 0 0.00853473
636 2 3 31.1018 100.499898632040768 -9.97994e-20 2.59757459254456124 -0.0821616 0 0.00859849
637 2 3 31.1018 103.499898632040527 -1.02651e-19 2.5975745922829625 -0.0844135 0 0.00866224
638 2 3 31.1018 106.499898632040299 -1.05502e-19 2.59757459202136376 -0.0866653 0 0.00872599
639 2 3 31.1018 109.499898632040072 -1.08354e-19 2.59757459175976502 -0.0889168 0 0.00878996
640 2 3 31.1018 112.49989863203983 -1.11205e-19 2.59757459149816627 -0.0911683 0 0.00885392
641 2 3 31.1018 115.499898632039603 -1.14056e-19 2.59757459123656753 -0.0934198 0 0.00891789
642 2 3 31.1018 118.499898632039361 -1.16908e-19 2.59757459097496879 -0.0956713 0 0.00898186
643 2 3 31.1018 121.499898632039134 -1.19759e-19 2.59757459071337005 -0.0979228 0 0.00904583
644 2 3 31.1018 124.499898632038906 -1.22611e-19 2.5975745904517713 -0.100174 0 0.0091098
645 2 3 31.1018 127.499898632038679 -1.25462e-19 2.59757459019017256 -0.102426 0 0.00917376
646 2 3 31.1018 130.499898632038452 -1.28313e-19 2.59757458992857382 -0.104677 0 0.00923773
647 2 3 31.1018 133.499898632038224 -1.31165e-19 2.59757458966697508 -0.106929 0 0.0093017
648 2 3 31.1018 136.499898632037969 -1.34016e-19 2.59757458940537633 -0.10918 0 0.00936567
649 2 3 31.1018 139.499898632037741 -1.36868e-19 2.59757458914377759 -0.111432 0 0.00942963
650 2 3 31.1018 142.499898632037514 -1.39719e-19 2.59757458888217885 -0.113683 0 0.0094936
651 2 3 31.1018 145.499898632037286 -1.42571e-19 2.5975745886205801 -0.115935 0 0.00955756
652 2 3 31.1018 148.499898632037059 -1.45422e-19 2.59757458835898136 -0.118186 0 0.00962153
653 2 3 31.1018 151.499898632036803 -1.48273e-19 2.59757458809738262 -0.120438 0 0.0096855
654 2 3 31.1018 154.499898632036576 -1.51125e-19 2.59757458783578388 -0.122689 0 0.00974946
655 2 3 31.1018 157.499898632036349 -1.53976e-19 2.59757458757418513 -0.124941 0 0.00981376
656 2 3 31.1018 160.499898632036121 -1.56828e-19 2.59757458731258639 -0.127194 0 0.0098783
657 2 3 31.1018 163.499898632035894 -1.59679e-19 2.59757458705098765 -0.129446 0 0.00994284
658 2 3 31.1018 166.499898632035638 -1.6253e-19 2.59757458678938891 -0.131699 0 0.0100074
659 2 3 31.1018 169.499898632035411 -1.65382e-19 2.59757458652779016 -0.133952 0 0.0100719
660 2 3 31.1018 172.499898632035183 -1.68233e-19 2.59757458626619142 -0.136204 0 0.0101365
661 2 3 31.1018 175.499898632034956 -1.71085e-19 2.59757458600459268 -0.138457 0 0.010201
662 2 3 31.1018 178.499898632034729 -1.73936e-19 2.59757458574299394 -0.140709 0 0.0102655
663 2 3 31.1018 181.499898632034473 -1.76787e-19 2.59757458548139519 -0.142962 0 0.0103301