ITEM: TIMESTEP
3600000
ITEM: NUMBER OF ATOMS
1501
ITEM: BOX BOUNDS pp pp pp
-1.3500000000000000e+03 1.3500000000000000e+03
-1.0000000000000000e+02 1.0000000000000000e+02
-1.0000000000000000e+02 1.0000000000000000e+02
ITEM: ATOMS id type diameter mass xu yu zu fx fy fz
1 1 3 31.1018 -1350 0 0 0 0 0
2 1 3 31.1018 -1347 0 0 0 0 0
3 1 3 31.1018 -1344 0 0 0 0 0
4 1 3 31.1018 -1341 0 0 0 0 0
5 1 3 31.1018 -1338 0 0 0 0 0
6 1 3 31.1018 -1335 0 0 0 0 0
7 1 3 31.1018 -1332 0 0 0 0 0
8 1 3 31.1018 -1329 0 0 0 0 0
9 1 3 31.1018 -1326 0 0 0 0 0
10 1 3 31.1018 -1323 0 0 0 0 0
11 1 3 31.1018 -1320 0 0 0 0 0
12 1 3 31.1018 -1317 0 0 0 0 0
13 1 3 31.1018 -1314 0 0 0 0 0
14 1 3 31.1018 -1311 0 0 0 0 0
15 1 3 31.1018 -1308 0 0 0 0 0
16 1 3 31.1018 -1305 0 0 0 0 0
17 1 3 31.1018 -1302 0 0 0 0 0
18 1 3 31.1018 -1299 0 0 0 0 0
19 1 3 31.1018 -1296 0 0 0 0 0
20 1 3 31.1018 -1293 0 0 0 0 0
21 1 3 31.1018 -1290 0 0 0 0 0
22 1 3 31.1018 -1287 0 0 0 0 0
23 1 3 31.1018 -1284 0 0 0 0 0
24 1 3 31.1018 -1281 0 0 0 0 0
25 1 3 31.1018 -1278 0 0 0 0 0
26 1 3 31.1018 -1275 0 0 0 0 0
27 1 3 31.1018 -1272 0 0 0 0 0
28 1 3 31.1018 -1269 0 0 0 0 0
29 1 3 31.1018 -1266 0 0 0 0 0
30 1 3 31.1018 -1263 0 0 0 0 0
31 1 3 31.1018 -1260 0 0 0 0 0
32 1 3 31.1018 -1257 0 0 0 0 0
33 1 3 31.1018 -1254 0 0 0 0 0
34 1 3 31.1018 -1251 0 0 0 0 0
35 1 3 31.1018 -1248 0 0 0 0 0
36 1 3 31.1018 -1245 0 0 0 0 0
37 1 3 31.1018 -1242 0 0 0 0 0
38 1 3 31.1018 -1239 0 0 0 0 0
39 1 3 31.1018 -1236 0 0 0 0 0
40 1 3 31.1018 -1233 0 0 0 0 0
41 1 3 31.1018 -1230 0 0 0 0 0
42 1 3 31.1018 -1227 0 0 0 0 0
43 1 3 31.1018 -1224 0 0 0 0 0
44 1 3 31.1018 -1221 0 0 0 0 0
45 1 3 31.1018 -1218 0 0 0 0 0
46 1 3 31.1018 -1215 0 0 0 0 0
47 1 3 31.1018 -1212 0 0 0 0 0
48 1 3 31.1018 -1209 0 0 0 0 0
49 1 3 31.1018 -1206 0 0 0 0 0
50 1 3 31.1018 -1203 0 0 0 0 0
51 1 3 31.1018 -1200 0 0 0 0 0
52 1 3 31.1018 -1197 0 0 0 0 0
53 1 3 31.1018 -1194 0 0 0 0 0
54 1 3 31.1018 -1191 0 0 0 0 0
55 1 3 31.1018 -1188 0 0 0 0 0
56 1 3 31.1018 -1185 0 0 0 0 0
57 1 3 31.1018 -1182 0 0 0 0 0
58 1 3 31.1018 -1179 0 0 0 0 0
59 1 3 31.1018 -1176 0 0 0 0 0
60 1 3 31.1018 -1173 0 0 0 0 0
61 1 3 31.1018 -1170 0 0 0 0 0
62 1 3 31.1018 -1167 0 0 0 0 0
63 1 3 31.1018 -1164 0 0 0 0 0
64 1 3 31.1018 -1161 0 0 0 0 0
65 1 3 31.1018 -1158 0 0 0 0 0
66 1 3 31.1018 -1155 0 0 0 0 0
67 1 3 31.1018 -1152 0 0 0 0 0
68 1 3 31.1018 -1149 0 0 0 0 0
69 1 3 31.1018 -1146 0 0 0 0 0
70 1 3 31.1018 -1143 0 0 0 0 0
71 1 3 31.1018 -1140 0 0 0 0 0
72 1 3 31.1018 -1137 0 0 0 0 0
73 1 3 31.1018 -1134 0 0 0 0 0
74 1 3 31.1018 -1131 0 0 0 0 0
75 1 3 31.1018 -1128 0 0 0 0 0
76 1 3 31.1018 -1125 0 0 0 0 0
77 1 3 31.1018 -1122 0 0 0 0 0
78 1 3 31.1018 -1119 0 0 0 0 0
79 1 3 31.1018 -1116 0 0 0 0 0
80 1 3 31.1018 -1113 0 0 0 0 0
81 1 3 31.1018 -1110 0 0 0 0 0
82 1 3 31.1018 -1107 0 0 0 0 0
83 1 3 31.1018 -1104 0 0 0 0 0
84 1 3 31.1018 -1101 0 0 0 0 0
85 1 3 31.1018 -1098 0 0 0 0 0
86 1 3 31.1018 -1095 0 0 0 0 0
87 1 3 31.1018 -1092 0 0 0 0 0
88 1 3 31.1018 -1089 0 0 0 0 0
89 1 3 31.1018 -1086 0 0 0 0 0
90 1 3 31.1018 -1083 0 0 0 0 0
91 1 3 31.1018 -1080 0 0 0 0 0
92 1 3 31.1018 -1077 0 0 0 0 0
93 1 3 31.1018 -1074 0 0 0 0 0
94 1 3 31.1018 -1071 0 0 0 0 0
95 1 3 31.1018 -1068 0 0 0 0 0
96 1 3 31.1018 -1065 0 0 0 0 0
97 1 3 31.1018 -1062 0 0 0 0 0
98 1 3 31.1018 -1059 0 0 0 0 0
99 1 3 31.1018 -1056 0 0 0 0 0
100 1 3 31.1018 -1053 0 0 0 0 0
101 1 3 31.1018 -1050 0 0 0 0 0
102 1 3 31.1018 -1047 0 0 0 0 0
103 1 3 31.1018 -1044 0 0 0 0 0
104 1 3 31.1018 -1041 0 0 0 0 0
105 1 3 31.1018 -1038 0 0 0 0 0
106 1 3 31.1018 -1035 0 0 0 0 0
107 1 3 31.1018 -1032 0 0 0 0 0
108 1 3 31.1018 -1029 0 0 0 0 0
109 1 3 31.1018 -1026 0 0 0 0 0
110 1 3 31.1018 -1023 0 0 0 0 0
111 1 3 31.1018 -1020 0 0 0 0 0
112 1 3 31.1018 -1017 0 0 0 0 0
113 1 3 31.1018 -1014 0 0 0 0 0
114 1 3 31.1018 -1011 0 0 0 0 0
115 1 3 31.1018 -1008 0 0 0 0 0
116 1 3 31.1018 -1005 0 0 0 0 0
117 1 3 31.1018 -1002 0 0 0 0 0
118 1 3 31.1018 -999 0 0 0 0 0
119 1 3 31.1018 -996 0 0 0 0 0
120 1 3 31.1018 -993 0 0 0 0 0
121 1 3 31.1018 -990 0 0 0 0 0
122 1 3 31.1018 -987 0 0 0 0 0
123 1 3 31.1018 -984 0 0 0 0 0
124 1 3 31.1018 -981 0 0 0 0 0
125 1 3 31.1018 -978 0 0 0 0 0
126 1 3 31.1018 -975 0 0 0 0 0
127 1 3 31.1018 -972 0 0 0 0 0
128 1 3 31.1018 -969 0 0 0 0 0
129 1 3 31.1018 -966 0 0 0 0 0
130 1 3 31.1018 -963 0 0 0 0 0
131 1 3 31.1018 -960 0 0 0 0 0
132 1 3 31.1018 -957 0 0 0 0 0
133 1 3 31.1018 -954 0 0 0 0 0
134 1 3 31.1018 -951 0 0 0 0 0
135 1 3 31.1018 -948 0 0 0 0 0
136 1 3 31.1018 -945 0 0 0 0 0
137 1 3 31.1018 -942 0 0 0 0 0
138 1 3 31.1018 -939 0 0 0 0 0
139 1 3 31.1018 -936 0 0 0 0 0
140 1 3 31.1018 -933 0 0 0 0 0
141 1 3 31.1018 -930 0 0 0 0 0
142 1 3 31.1018 -927 0 0 0 0 0
143 1 3 31.1018 -924 0 0 0 0 0
144 1 3 31.1018 -921 0 0 0 0 0
145 1 3 31.1018 -918 0 0 0 0 0
146 1 3 31.1018 -915 0 0 0 0 0
147 1 3 31.1018 -912 0 0 0 0 0
148 1 3 31.1018 -909 0 0 0 0 0
149 1 3 31.1018 -906 0 0 0 0 0
150 1 3 31.1018 -903 0 0 0 0 0
151 1 3 31.1018 -900 0 0 0 0 0
152 1 3 31.1018 -897 0 0 0 0 0
153 1 3 31.1018 -894 0 0 0 0 0
154 1 3 31.1018 -891 0 0 0 0 0
155 1 3 31.1018 -888 0 0 0 0 0
156 1 3 31.1018 -885 0 0 0 0 0
157 1 3 31.1018 -882 0 0 0 0 0
158 1 3 31.1018 -879 0 0 0 0 0
159 1 3 31.1018 -876 0 0 0 0 0
160 1 3 31.1018 -873 0 0 0 0 0
161 1 3 31.1018 -870 0 0 0 0 0
162 1 3 31.1018 -867 0 0 0 0 0
163 1 3 31.1018 -864 0 0 0 0 0
164 1 3 31.1018 -861 0 0 0 0 0
165 1 3 31.1018 -858 0 0 0 0 0
166 1 3 31.1018 -855 0 0 0 0 0
167 1 3 31.1018 -852 0 0 0 0 0
168 1 3 31.1018 -849 0 0 0 0 0
169 1 3 31.1018 -846 0 0 0 0 0
170 1 3 31.1018 -843 0 0 0 0 0
171 1 3 31.1018 -840 0 0 0 0 0
172 1 3 31.1018 -837 0 0 0 0 0
173 1 3 31.1018 -834 0 0 0 0 0
174 1 3 31.1018 -831 0 0 0 0 0
175 1 3 31.1018 -828 0 0 0 0 0
176 1 3 31.1018 -825 0 0 0 0 0
177 1 3 31.1018 -822 0 0 0 0 0
178 1 3 31.1018 -819 0 0 0 0 0
179 1 3 31.1018 -816 0 0 0 0 0
180 1 3 31.1018 -813 0 0 0 0 0
181 1 3 31.1018 -810 0 0 0 0 0
182 1 3 31.1018 -807 0 0 0 0 0
183 1 3 31.1018 -804 0 0 0 0 0
184 1 3 31.1018 -801 0 0 0 0 0
185 1 3 31.1018 -798 0 0 0 0 0
186 1 3 31.1018 -795 0 0 0 0 0
187 1 3 31.1018 -792 0 0 0 0 0
188 1 3 31.1018 -789 0 0 0 0 0
189 1 3 31.1018 -786 0 0 0 0 0
190 1 3 31.1018 -783 0 0 0 0 0
191 1 3 31.1018 -780 0 0 0 0 0
192 1 3 31.1018 -777 0 0 0 0 0
193 1 3 31.1018 -774 0 0 0 0 0
194 1 3 31.1018 -771 0 0 0 0 0
195 1 3 31.1018 -768 0 0 0 0 0
196 1 3 31.1018 -765 0 0 0 0 0
197 1 3 31.1018 -762 0 0 0 0 0
198 1 3 31.1018 -759 0 0 0 0 0
199 1 3 31.1018 -756 0 0 0 0 0
200 1 3 31.1018 -753 0 0 0 0 0
201 1 3 31.1018 -750 0 0 0 0 0
202 1 3 31.1018 -747 0 0 0 0 0
203 1 3 31.1018 -744 0 0 0 0 0
204 1 3 31.1018 -741 0 0 0 0 0
205 1 3 31.1018 -738 0 0 0 0 0
206 1 3 31.1018 -735 0 0 0 0 0
207 1 3 31.1018 -732 0 0 0 0 0
208 1 3 31.1018 -729 0 0 0 0 0
209 1 3 31.1018 -726 0 0 0 0 0
210 1 3 31.1018 -723 0 0 0 0 0
211 1 3 31.1018 -720 0 0 0 0 0
212 1 3 31.1018 -717 0 0 0 0 0
213 1 3 31.1018 -714 0 0 0 0 0
214 1 3 31.1018 -711 0 0 0 0 0
215 1 3 31.1018 -708 0 0 0 0 0
216 1 3 31.1018 -705 0 0 0 0 0
217 1 3 31.1018 -702 0 0 0 0 0
218 1 3 31.1018 -699 0 0 0 0 0
219 1 3 31.1018 -696 0 0 0 0 0
220 1 3 31.1018 -693 0 0 0 0 0
221 1 3 31.1018 -690 0 0 0 0 0
222 1 3 31.1018 -687 0 0 0 0 0
223 1 3 31.1018 -684 0 0 0 0 0
224 1 3 31.1018 -681 0 0 0 0 0
225 1 3 31.1018 -678 0 0 0 0 0
901 2 3 31.1018 -904.50010137362267 4.92547e-20 2.59757461943767698 0.198162 0 0.0166224
902 2 3 31.1018 -901.50010137362267 4.90905e-20 2.59757461937490453 0.197595 0 0.0166256
903 2 3 31.1018 -898.500101373622783 4.89264e-20 2.59757461931213207 0.197028 0 0.0166287
904 2 3 31.1018 -895.500101373622783 4.87622e-20 2.59757461924935962 0.196461 0 0.0166319
905 2 3 31.1018 -892.500101373622897 4.8598e-20 2.59757461918658716 0.195894 0 0.0166351
906 2 3 31.1018 -889.500101373622897 4.84338e-20 2.59757461912381471 0.195327 0 0.0166382
907 2 3 31.1018 -886.500101373623011 4.82696e-20 2.59757461906104226 0.19476 0 0.0166414
908 2 3 31.1018 -883.500101373623011 4.81055e-20 2.5975746189982698 0.194192 0 0.0166445
909 2 3 31.1018 -880.500101373623124 4.79413e-20 2.59757461893549735 0.193625 0 0.0166477
910 2 3 31.1018 -877.500101373623124 4.77771e-20 2.59757461887272489 0.193058 0 0.0166509
911 2 3 31.1018 -874.500101373623124 4.76129e-20 2.59757461880995244 0.192491 0 0.016654
912 2 3 31.1018 -871.500101373623238 4.74487e-20 2.59757461874717999 0.191924 0 0.0166572
913 2 3 31.1018 -868.500101373623238 4.72845e-20 2.59757461868440753 0.191357 0 0.0166604
914 2 3 31.1018 -865.500101373623352 4.71204e-20 2.59757461862163508 0.19079 0 0.0166635
915 2 3 31.1018 -862.500101373623352 4.69562e-20 2.59757461855886262 0.190222 0 0.0166667
916 2 3 31.1018 -859.500101373623465 4.6792e-20 2.59757461849609017 0.189655 0 0.0166699
917 2 3 31.1018 -856.500101373623465 4.66278e-20 2.59757461843331772 0.189088 0 0.016673
918 2 3 31.1018 -853.500101373623579 4.64636e-20 2.59757461837054526 0.188521 0 0.0166762
919 2 3 31.1018 -850.500101373623579 4.62994e-20 2.59757461830777281 0.187954 0 0.0166793
920 2 3 31.1018 -847.500101373623693 4.61353e-20 2.59757461824500036 0.187387 0 0.0166825
921 2 3 31.1018 -844.500101373623693 4.59711e-20 2.5975746181822279 0.18682 0 0.0166857
922 2 3 31.1018 -841.500101373623693 4.58069e-20 2.59757461811945545 0.186253 0 0.0166888
923 2 3 31.1018 -838.500101373623806 4.56427e-20 2.59757461805668299 0.185685 0 0.016692
924 2 3 31.1018 -835.500101373623806 4.54785e-20 2.59757461799391054 0.185118 0 0.0166951
925 2 3 31.1018 -832.50010137362392 4.53144e-20 2.59757461793113809 0.184551 0 0.0166983
926 2 3 31.1018 -829.50010137362392 4.51502e-20 2.59757461786836563 0.183984 0 0.0167015
927 2 3 31.1018 -826.500101373624034 4.4986e-20 2.59757461780559318 0.183417 0 0.0167046
928 2 3 31.1018 -823.500101373624034 4.48218e-20 2.59757461774282072 0.18285 0 0.0167078
929 2 3 31.1018 -820.500101373624148 4.46576e-20 2.59757461768004827 0.182283 0 0.016711
930 2 3 31.1018 -817.500101373624148 4.44934e-20 2.59757461761727582 0.181716 0 0.0167141
931 2 3 31.1018 -814.500101373624261 4.43293e-20 2.59757461755450336 0.181149 0 0.0167173
932 2 3 31.1018 -811.500101373624261 4.41651e-20 2.59757461749173091 0.180581 0 0.0167205
933 2 3 31.1018 -808.500101373624375 4.40009e-20 2.59757461742895845 0.180014 0 0.0167236
934 2 3 31.1018 -805.500101373624375 4.38367e-20 2.597574617366186 0.179447 0 0.0167268
935 2 3 31.1018 -802.500101373624375 4.36725e-20 2.59757461730341355 0.17888 0 0.0167299
936 2 3 31.1018 -799.500101373624489 4.35083e-20 2.59757461724064109 0.178313 0 0.0167331
937 2 3 31.1018 -796.500101373624489 4.33442e-20 2.59757461717786864 0.177746 0 0.0167363
938 2 3 31.1018 -793.500101373624602 4.318e-20 2.59757461711509618 0.177179 0 0.0167394
939 2 3 31.1018 -790.500101373624602 4.30158e-20 2.59757461705232373 0.176611 0 0.0167426
940 2 3 31.1018 -787.500101373624716 4.28516e-20 2.59757461698955128 0.176044 0 0.0167458
941 2 3 31.1018 -784.500101373624716 4.26874e-20 2.59757461692677882 0.175477 0 0.0167489
942 2 3 31.1018 -781.50010137362483 4.25232e-20 2.59757461686400637 0.17491 0 0.0167521
943 2 3 31.1018 -778.50010137362483 4.23591e-20 2.59757461680123392 0.174343 0 0.0167552
944 2 3 31.1018 -775.500101373624943 4.21949e-20 2.59757461673846146 0.173776 0 0.0167584
945 2 3 31.1018 -772.500101373624943 4.20307e-20 2.59757461667568901 0.173209 0 0.0167616
946 2 3 31.1018 -769.500101373624943 4.18665e-20 2.59757461661291655 0.172642 0 0.0167647
947 2 3 31.1018 -766.500101373625057 4.17023e-20 2.5975746165501441 0.172074 0 0.0167679
948 2 3 31.1018 -763.500101373625057 4.15382e-20 2.59757461648737165 0.171507 0 0.016771
949 2 3 31.1018 -760.500101373625171 4.1374e-20 2.59757461642459919 0.17094 0 0.0167742
950 2 3 31.1018 -757.500101373625171 4.12098e-20 2.59757461636182674 0.170373 0 0.0167774
951 2 3 31.1018 -754.500101373625284 4.10456e-20 2.59757461629905428 0.169806 0 0.0167805
952 2 3 31.1018 -751.500101373625284 4.08814e-20 2.59757461623628183 0.169239 0 0.0167837
953 2 3 31.1018 -748.500101373625398 4.07172e-20 2.59757461617350938 0.168672 0 0.0167869
954 2 3 31.1018 -745.500101373625398 4.05531e-20 2.59757461611073692 0.168105 0 0.01679
955 2 3 31.1018 -742.500101373625512 4.03889e-20 2.59757461604796447 0.167538 0 0.0167932
956 2 3 31.1018 -739.500101373625512 4.02247e-20 2.59757461598519201 0.16697 0 0.0167964
957 2 3 31.1018 -736.500101373625512 4.00605e-20 2.59757461592241956 0.166403 0 0.0167995
958 2 3 31.1018 -733.500101373625625 3.98963e-20 2.59757461585964711 0.165836 0 0.0168027
959 2 3 31.1018 -730.500101373625625 3.97321e-20 2.59757461579687465 0.165269 0 0.0168058
960 2 3 31.1018 -727.500101373625739 3.9568e-20 2.5975746157341022 0.164702 0 0.016809
961 2 3 31.1018 -724.500101373625739 3.94038e-20 2.59757461567132975 0.164135 0 0.0168122
962 2 3 31.1018 -721.500101373625853 3.92396e-20 2.59757461560855729 0.163568 0 0.0168153
963 2 3 31.1018 -718.500101373625853 3.90754e-20 2.59757461554578484 0.163 0 0.0168185
964 2 3 31.1018 -715.500101373625967 3.89112e-20 2.59757461548301238 0.162433 0 0.0168218
965 2 3 31.1018 -712.500101373625967 3.87471e-20 2.59757461542023993 0.161866 0 0.0168251
966 2 3 31.1018 -709.50010137362608 3.85829e-20 2.59757461535746748 0.161298 0 0.0168284
967 2 3 31.1018 -706.50010137362608 3.84187e-20 2.59757461529469502 0.160731 0 0.0168317
968 2 3 31.1018 -703.500101373626194 3.82545e-20 2.59757461523192257 0.160164 0 0.016835
969 2 3 31.1018 -700.500101373626194 3.80903e-20 2.59757461516915011 0.159596 0 0.0168383
970 2 3 31.1018 -697.500101373626194 3.79261e-20 2.59757461510637766 0.159029 0 0.0168416
971 2 3 31.1018 -694.500101373626308 3.7762e-20 2.59757461504360521 0.158461 0 0.0168449
972 2 3 31.1018 -691.500101373626308 3.75978e-20 2.59757461498083275 0.157894 0 0.0168482
973 2 3 31.1018 -688.500101373626421 3.74336e-20 2.5975746149180603 0.157327 0 0.0168516
974 2 3 31.1018 -685.500101373626421 3.72694e-20 2.59757461485528784 0.156759 0 0.0168549
975 2 3 31.1018 -682.500101373626535 3.71052e-20 2.59757461479251539 0.156192 0 0.0168582
976 2 3 31.1018 -679.500101373626535 3.6941e-20 2.59757461472974294 0.155625 0 0.0168615
977 2 3 31.1018 -676.500101373626649 3.67769e-20 2.59757461466697048 0.155057 0 0.0168648
226 1 3 31.1018 -675 0 0 0 0 0
227 1 3 31.1018 -672 0 0 0 0 0
228 1 3 31.1018 -669 0 0 0 0 0
229 1 3 31.1018 -666 0 0 0 0 0
230 1 3 31.1018 -663 0 0 0 0 0
231 1 3 31.1018 -660 0 0 0 0 0
232 1 3 31.1018 -657 0 0 0 0 0
233 1 3 31.1018 -654 0 0 0 0 0
234 1 3 31.1018 -651 0 0 0 0 0
235 1 3 31.1018 -648 0 0 0 0 0
236 1 3 31.1018 -645 0 0 0 0 0
237 1 3 31.1018 -642 0 0 0 0 0
238 1 3 31.1018 -639 0 0 0 0 0
239 1 3 31.1018 -636 0 0 0 0 0
240 1 3 31.1018 -633 0 0 0 0 0
241 1 3 31.1018 -630 0 0 0 0 0
242 1 3 31.1018 -627 0 0 0 0 0
243 1 3 31.1018 -624 0 0 0 0 0
244 1 3 31.1018 -621 0 0 0 0 0
245 1 3 31.1018 -618 0 0 0 0 0
246 1 3 31.1018 -615 0 0 0 0 0
247 1 3 31.1018 -612 0 0 0 0 0
248 1 3 31.1018 -609 0 0 0 0 0
249 1 3 31.1018 -606 0 0 0 0 0
250 1 3 31.1018 -603 0 0 0 0 0
251 1 3 31.1018 -600 0 0 0 0 0
252 1 3 31.1018 -597 0 0 0 0 0
253 1 3 31.1018 -594 0 0 0 0 0
254 1 3 31.1018 -591 0 0 0 0 0
255 1 3 31.1018 -588 0 0 0 0 0
256 1 3 31.1018 -585 0 0 0 0 0
257 1 3 31.1018 -582 0 0 0 0 0
258 1 3 31.1018 -579 0 0 0 0 0
259 1 3 31.1018 -576 0 0 0 0 0
260 1 3 31.1018 -573 0 0 0 0 0
261 1 3 31.1018 -570 0 0 0 0 0
262 1 3 31.1018 -567 0 0 0 0 0
263 1 3 31.1018 -564 0 0 0 0 0
264 1 3 31.1018 -561 0 0 0 0 0
265 1 3 31.1018 -558 0 0 0 0 0
266 1 3 31.1018 -555 0 0 0 0 0
267 1 3 31.1018 -552 0 0 0 0 0
268 1 3 31.1018 -549 0 0 0 0 0
269 1 3 31.1018 -546 0 0 0 0 0
270 1 3 31.1018 -543 0 0 0 0 0
271 1 3 31.1018 -540 0 0 0 0 0
272 1 3 31.1018 -537 0 0 0 0 0
273 1 3 31.1018 -534 0 0 0 0 0
274 1 3 31.1018 -531 0 0 0 0 0
275 1 3 31.1018 -528 0 0 0 0 0
276 1 3 31.1018 -525 0 0 0 0 0
277 1 3 31.1018 -522 0 0 0 0 0
278 1 3 31.1018 -519 0 0 0 0 0
279 1 3 31.1018 -516 0 0 0 0 0
280 1 3 31.1018 -513 0 0 0 0 0
281 1 3 31.1018 -510 0 0 0 0 0
282 1 3 31.1018 -507 0 0 0 0 0
283 1 3 31.1018 -504 0 0 0 0 0
284 1 3 31.1018 -501 0 0 0 0 0
285 1 3 31.1018 -498 0 0 0 0 0
286 1 3 31.1018 -495 0 0 0 0 0
287 1 3 31.1018 -492 0 0 0 0 0
288 1 3 31.1018 -489 0 0 0 0 0
289 1 3 31.1018 -486 0 0 0 0 0
290 1 3 31.1018 -483 0 0 0 0 0
291 1 3 31.1018 -480 0 0 0 0 0
292 1 3 31.1018 -477 0 0 0 0 0
293 1 3 31.1018 -474 0 0 0 0 0
294 1 3 31.1018 -471 0 0 0 0 0
295 1 3 31.1018 -468 0 0 0 0 0
296 1 3 31.1018 -465 0 0 0 0 0
297 1 3 31.1018 -462 0 0 0 0 0
298 1 3 31.1018 -459 0 0 0 0 0
299 1 3 31.1018 -456 0 0 0 0 0
300 1 3 31.1018 -453 0 0 0 0 0
301 1 3 31.1018 -450 0 0 0 0 0
302 1 3 31.1018 -447 0 0 0 0 0
303 1 3 31.1018 -444 0 0 0 0 0
304 1 3 31.1018 -441 0 0 0 0 0
305 1 3 31.1018 -438 0 0 0 0 0
306 1 3 31.1018 -435 0 0 0 0 0
307 1 3 31.1018 -432 0 0 0 0 0
308 1 3 31.1018 -429 0 0 0 0 0
309 1 3 31.1018 -426 0 0 0 0 0
310 1 3 31.1018 -423 0 0 0 0 0
311 1 3 31.1018 -420 0 0 0 0 0
312 1 3 31.1018 -417 0 0 0 0 0
313 1 3 31.1018 -414 0 0 0 0 0
314 1 3 31.1018 -411 0 0 0 0 0
315 1 3 31.1018 -408 0 0 0 0 0
316 1 3 31.1018 -405 0 0 0 0 0
317 1 3 31.1018 -402 0 0 0 0 0
318 1 3 31.1018 -399 0 0 0 0 0
319 1 3 31.1018 -396 0 0 0 0 0
320 1 3 31.1018 -393 0 0 0 0 0
321 1 3 31.1018 -390 0 0 0 0 0
322 1 3 31.1018 -387 0 0 0 0 0
323 1 3 31.1018 -384 0 0 0 0 0
324 1 3 31.1018 -381 0 0 0 0 0
325 1 3 31.1018 -378 0 0 0 0 0
326 1 3 31.1018 -375 0 0 0 0 0
327 1 3 31.1018 -372 0 0 0 0 0
328 1 3 31.1018 -369 0 0 0 0 0
329 1 3 31.1018 -366 0 0 0 0 0
330 1 3 31.1018 -363 0 0 0 0 0
331 1 3 31.1018 -360 0 0 0 0 0
332 1 3 31.1018 -357 0 0 0 0 0
333 1 3 31.1018 -354 0 0 0 0 0
334 1 3 31.1018 -351 0 0 0 0 0
335 1 3 31.1018 -348 0 0 0 0 0
336 1 3 31.1018 -345 0 0 0 0 0
337 1 3 31.1018 -342 0 0 0 0 0
338 1 3 31.1018 -339 0 0 0 0 0
339 1 3 31.1018 -336 0 0 0 0 0
340 1 3 31.1018 -333 0 0 0 0 0
341 1 3 31.1018 -330 0 0 0 0 0
342 1 3 31.1018 -327 0 0 0 0 0
343 1 3 31.1018 -324 0 0 0 0 0
344 1 3 31.1018 -321 0 0 0 0 0
345 1 3 31.1018 -318 0 0 0 0 0
346 1 3 31.1018 -315 0 0 0 0 0
347 1 3 31.1018 -312 0 0 0 0 0
348 1 3 31.1018 -309 0 0 0 0 0
349 1 3 31.1018 -306 0 0 0 0 0
350 1 3 31.1018 -303 0 0 0 0 0
351 1 3 31.1018 -300 0 0 0 0 0
352 1 3 31.1018 -297 0 0 0 0 0
353 1 3 31.1018 -294 0 0 0 0 0
354 1 3 31.1018 -291 0 0 0 0 0
355 1 3 31.1018 -288 0 0 0 0 0
356 1 3 31.1018 -285 0 0 0 0 0
357 1 3 31.1018 -282 0 0 0 0 0
358 1 3 31.1018 -279 0 0 0 0 0
359 1 3 31.1018 -276 0 0 0 0 0
360 1 3 31.1018 -273 0 0 0 0 0
361 1 3 31.1018 -270 0 0 0 0 0
362 1 3 31.1018 -267 0 0 0 0 0
363 1 3 31.1018 -264 0 0 0 0 0
364 1 3 31.1018 -261 0 0 0 0 0
365 1 3 31.1018 -258 0 0 0 0 0
366 1 3 31.1018 -255 0 0 0 0 0
367 1 3 31.1018 -252 0 0 0 0 0
368 1 3 31.1018 -249 0 0 0 0 0
369 1 3 31.1018 -246 0 0 0 0 0
370 1 3 31.1018 -243 0 0 0 0 0
371 1 3 31.1018 -240 0 0 0 0 0
372 1 3 31.1018 -237 0 0 0 0 0
373 1 3 31.1018 -234 0 0 0 0 0
374 1 3 31.1018 -231 0 0 0 0 0
375 1 3 31.1018 -228 0 0 0 0 0
376 1 3 31.1018 -225 0 0 0 0 0
377 1 3 31.1018 -222 0 0 0 0 0
378 1 3 31.1018 -219 0 0 0 0 0
379 1 3 31.1018 -216 0 0 0 0 0
380 1 3 31.1018 -213 0 0 0 0 0
381 1 3 31.1018 -210 0 0 0 0 0
382 1 3 31.1018 -207 0 0 0 0 0
383 1 3 31.1018 -204 0 0 0 0 0
384 1 3 31.1018 -201 0 0 0 0 0
385 1 3 31.1018 -198 0 0 0 0 0
386 1 3 31.1018 -195 0 0 0 0 0
387 1 3 31.1018 -192 0 0 0 0 0
388 1 3 31.1018 -189 0 0 0 0 0
389 1 3 31.1018 -186 0 0 0 0 0
390 1 3 31.1018 -183 0 0 0 0 0
391 1 3 31.1018 -180 0 0 0 0 0
392 1 3 31.1018 -177 0 0 0 0 0
393 1 3 31.1018 -174 0 0 0 0 0
394 1 3 31.1018 -171 0 0 0 0 0
395 1 3 31.1018 -168 0 0 0 0 0
396 1 3 31.1018 -165 0 0 0 0 0
397 1 3 31.1018 -162 0 0 0 0 0
398 1 3 31.1018 -159 0 0 0 0 0
399 1 3 31.1018 -156 0 0 0 0 0
400 1 3 31.1018 -153 0 0 0 0 0
401 1 3 31.1018 -150 0 0 0 0 0
402 1 3 31.1018 -147 0 0 0 0 0
403 1 3 31.1018 -144 0 0 0 0 0
404 1 3 31.1018 -141 0 0 0 0 0
405 1 3 31.1018 -138 0 0 0 0 0
406 1 3 31.1018 -135 0 0 0 0 0
407 1 3 31.1018 -132 0 0 0 0 0
408 1 3 31.1018 -129 0 0 0 0 0
409 1 3 31.1018 -126 0 0 0 0 0
410 1 3 31.1018 -123 0 0 0 0 0
411 1 3 31.1018 -120 0 0 0 0 0
412 1 3 31.1018 -117 0 0 0 0 0
413 1 3 31.1018 -114 0 0 0 0 0
414 1 3 31.1018 -111 0 0 0 0 0
415 1 3 31.1018 -108 0 0 0 0 0
416 1 3 31.1018 -105 0 0 0 0 0
417 1 3 31.1018 -102 0 0 0 0 0
418 1 3 31.1018 -99 0 0 0 0 0
419 1 3 31.1018 -96 0 0 0 0 0
420 1 3 31.1018 -93 0 0 0 0 0
421 1 3 31.1018 -90 0 0 0 0 0
422 1 3 31.1018 -87 0 0 0 0 0
423 1 3 31.1018 -84 0 0 0 0 0
424 1 3 31.1018 -81 0 0 0 0 0
425 1 3 31.1018 -78 0 0 0 0 0
426 1 3 31.1018 -75 0 0 0 0 0
427 1 3 31.1018 -72 0 0 0 0 0
428 1 3 31.1018 -69 0 0 0 0 0
429 1 3 31.1018 -66 0 0 0 0 0
430 1 3 31.1018 -63 0 0 0 0 0
431 1 3 31.1018 -60 0 0 0 0 0
432 1 3 31.1018 -57 0 0 0 0 0
433 1 3 31.1018 -54 0 0 0 0 0
434 1 3 31.1018 -51 0 0 0 0 0
435 1 3 31.1018 -48 0 0 0 0 0
436 1 3 31.1018 -45 0 0 0 0 0
437 1 3 31.1018 -42 0 0 0 0 0
438 1 3 31.1018 -39 0 0 0 0 0
439 1 3 31.1018 -36 0 0 0 0 0
440 1 3 31.1018 -33 0 0 0 0 0
441 1 3 31.1018 -30 0 0 0 0 0
442 1 3 31.1018 -27 0 0 0 0 0
443 1 3 31.1018 -24 0 0 0 0 0
444 1 3 31.1018 -21 0 0 0 0 0
445 1 3 31.1018 -18 0 0 0 0 0
446 1 3 31.1018 -15 0 0 0 0 0
447 1 3 31.1018 -12 0 0 0 0 0
448 1 3 31.1018 -9 0 0 0 0 0
449 1 3 31.1018 -6 0 0 0 0 0
450 1 3 31.1018 -3 0 0 0 0 0
978 2 3 31.1018 -673.500101373626649 3.66127e-20 2.59757461460419803 0.15449 0 0.0168681
979 2 3 31.1018 -670.500101373626762 3.64485e-20 2.59757461454142557 0.153922 0 0.0168714
980 2 3 31.1018 -667.500101373626762 3.62843e-20 2.59757461447865312 0.153355 0 0.0168747
981 2 3 31.1018 -664.500101373626762 3.61201e-20 2.59757461441588067 0.152788 0 0.016878
982 2 3 31.1018 -661.500101373626876 3.5956e-20 2.59757461435310821 0.15222 0 0.0168813
983 2 3 31.1018 -658.500101373626876 3.57918e-20 2.59757461429033576 0.151653 0 0.0168846
984 2 3 31.1018 -655.50010137362699 3.56276e-20 2.59757461422756331 0.151086 0 0.0168879
985 2 3 31.1018 -652.50010137362699 3.54634e-20 2.59757461416479085 0.150518 0 0.0168912
986 2 3 31.1018 -649.500101373627103 3.52992e-20 2.5975746141020184 0.149951 0 0.0168945
987 2 3 31.1018 -646.500101373627103 3.5135e-20 2.59757461403924594 0.149383 0 0.0168978
988 2 3 31.1018 -643.500101373627217 3.49709e-20 2.59757461397647349 0.148816 0 0.0169012
989 2 3 31.1018 -640.500101373627217 3.48067e-20 2.59757461391370104 0.148249 0 0.0169045
990 2 3 31.1018 -637.500101373627331 3.46425e-20 2.59757461385092858 0.147681 0 0.0169078
991 2 3 31.1018 -634.500101373627331 3.44783e-20 2.59757461378815613 0.147114 0 0.0169111
992 2 3 31.1018 -631.500101373627331 3.43141e-20 2.59757461372538367 0.146546 0 0.0169144
993 2 3 31.1018 -628.500101373627444 3.41499e-20 2.59757461366261122 0.145979 0 0.0169177
994 2 3 31.1018 -625.500101373627444 3.39858e-20 2.59757461359983877 0.145412 0 0.016921
995 2 3 31.1018 -622.500101373627558 3.38216e-20 2.59757461353706631 0.144844 0 0.0169243
996 2 3 31.1018 -619.500101373627558 3.36574e-20 2.59757461347429386 0.144277 0 0.0169276
997 2 3 31.1018 -616.500101373627672 3.34932e-20 2.5975746134115214 0.14371 0 0.0169309
998 2 3 31.1018 -613.500101373627672 3.3329e-20 2.59757461334874895 0.143142 0 0.0169342
999 2 3 31.1018 -610.500101373627786 3.31649e-20 2.5975746132859765 0.142575 0 0.0169375
1000 2 3 31.1018 -607.500101373627786 3.30007e-20 2.59757461322320404 0.142007 0 0.0169408
1001 2 3 31.1018 -604.500101373627899 3.28365e-20 2.59757461316043159 0.14144 0 0.0169441
1002 2 3 31.1018 -601.500101373627899 3.26723e-20 2.59757461309765914 0.140873 0 0.0169474
1003 2 3 31.1018 -598.500101373628013 3.25081e-20 2.59757461303488668 0.140305 0 0.0169508
1004 2 3 31.1018 -595.500101373628013 3.23439e-20 2.59757461297211423 0.139738 0 0.0169541
1005 2 3 31.1018 -592.500101373628013 3.21798e-20 2.59757461290934177 0.13917 0 0.0169574
1006 2 3 31.1018 -589.500101373628127 3.20156e-20 2.59757461284656932 0.138603 0 0.0169607
1007 2 3 31.1018 -586.500101373628127 3.18514e-20 2.59757461278379687 0.138036 0 0.016964
1008 2 3 31.1018 -583.50010137362824 3.16872e-20 2.59757461272102441 0.137468 0 0.0169673
1009 2 3 31.1018 -580.50010137362824 3.1523e-20 2.59757461265825196 0.136901 0 0.0169706
1010 2 3 31.1018 -577.500101373628354 3.13588e-20 2.5975746125954795 0.136334 0 0.0169739
1011 2 3 31.1018 -574.500101373628354 3.11947e-20 2.59757461253270705 0.135766 0 0.0169772
1012 2 3 31.1018 -571.500101373628468 3.10305e-20 2.5975746124699346 0.135199 0 0.0169805
1013 2 3 31.1018 -568.500101373628468 3.08663e-20 2.59757461240716214 0.134631 0 0.0169838
1014 2 3 31.1018 -565.500101373628581 3.07021e-20 2.59757461234438969 0.134064 0 0.0169871
1015 2 3 31.1018 -562.500101373628581 3.05379e-20 2.59757461228161723 0.133497 0 0.0169904
1016 2 3 31.1018 -559.500101373628581 3.03737e-20 2.59757461221884478 0.132929 0 0.0169937
1017 2 3 31.1018 -556.500101373628695 3.02096e-20 2.59757461215607233 0.132362 0 0.016997
1018 2 3 31.1018 -553.500101373628695 3.00454e-20 2.59757461209329987 0.131794 0 0.0170003
1019 2 3 31.1018 -550.500101373628809 2.98812e-20 2.59757461203052742 0.131227 0 0.0170037
1020 2 3 31.1018 -547.500101373628809 2.9717e-20 2.59757461196775497 0.13066 0 0.017007
1021 2 3 31.1018 -544.500101373628922 2.95528e-20 2.59757461190498251 0.130092 0 0.0170103
1022 2 3 31.1018 -541.500101373628922 2.93887e-20 2.59757461184221006 0.129525 0 0.0170136
1023 2 3 31.1018 -538.500101373629036 2.92245e-20 2.5975746117794376 0.128958 0 0.0170169
1024 2 3 31.1018 -535.500101373629036 2.90603e-20 2.59757461171666515 0.12839 0 0.0170202
1025 2 3 31.1018 -532.50010137362915 2.88961e-20 2.5975746116538927 0.127823 0 0.0170235
1026 2 3 31.1018 -529.50010137362915 2.87319e-20 2.59757461159112024 0.127255 0 0.0170268
1027 2 3 31.1018 -526.50010137362915 2.85677e-20 2.59757461152834779 0.126688 0 0.0170301
1028 2 3 31.1018 -523.500101373629263 2.84036e-20 2.59757461146557533 0.126121 0 0.0170334
1029 2 3 31.1018 -520.500101373629263 2.82394e-20 2.59757461140280288 0.125553 0 0.0170367
1030 2 3 31.1018 -517.500101373629377 2.80752e-20 2.59757461134003043 0.124986 0 0.01704
1031 2 3 31.1018 -514.500101373629491 2.7911e-20 2.59757461127725797 0.124419 0 0.0170433
1032 2 3 31.1018 -511.500101373629491 2.77468e-20 2.59757461121448552 0.123851 0 0.0170466
1033 2 3 31.1018 -508.500101373629491 2.75826e-20 2.59757461115171306 0.123284 0 0.0170499
1034 2 3 31.1018 -505.500101373629548 2.74185e-20 2.59757461108894061 0.122716 0 0.0170532
1035 2 3 31.1018 -502.500101373629604 2.72543e-20 2.59757461102616816 0.122149 0 0.0170565
1036 2 3 31.1018 -499.500101373629661 2.70901e-20 2.5975746109633957 0.121582 0 0.0170599
1037 2 3 31.1018 -496.500101373629718 2.69259e-20 2.59757461090062325 0.121014 0 0.0170632
1038 2 3 31.1018 -493.500101373629775 2.67617e-20 2.59757461083785079 0.120447 0 0.0170665
1039 2 3 31.1018 -490.500101373629832 2.65976e-20 2.59757461077507834 0.119879 0 0.0170698
1040 2 3 31.1018 -487.500101373629889 2.64334e-20 2.59757461071230589 0.119312 0 0.0170731
1041 2 3 31.1018 -484.500101373629946 2.62692e-20 2.59757461064953343 0.118745 0 0.0170764
1042 2 3 31.1018 -481.500101373630002 2.6105e-20 2.59757461058676098 0.118177 0 0.0170797
1043 2 3 31.1018 -478.500101373630059 2.59408e-20 2.59757461052398853 0.11761 0 0.017083
1044 2 3 31.1018 -475.500101373630059 2.57766e-20 2.59757461046121607 0.117043 0 0.0170863
1045 2 3 31.1018 -472.500101373630116 2.56125e-20 2.59757461039844362 0.116475 0 0.0170896
1046 2 3 31.1018 -469.500101373630173 2.54483e-20 2.59757461033567116 0.115908 0 0.0170929
1047 2 3 31.1018 -466.50010137363023 2.52841e-20 2.59757461027289871 0.11534 0 0.0170962
1048 2 3 31.1018 -463.500101373630287 2.51199e-20 2.59757461021012626 0.114773 0 0.0170995
1049 2 3 31.1018 -460.500101373630343 2.49557e-20 2.5975746101473538 0.114206 0 0.0171028
1050 2 3 31.1018 -457.5001013736304 2.47915e-20 2.59757461008458135 0.113638 0 0.0171061
1051 2 3 31.1018 -454.500101373630457 2.46274e-20 2.59757461002180889 0.113071 0 0.0171094
1052 2 3 31.1018 -451.500101373630514 2.44632e-20 2.59757460995903644 0.112503 0 0.0171127
1053 2 3 31.1018 -448.500101373630571 2.4299e-20 2.59757460989626399 0.111936 0 0.0171161
1054 2 3 31.1018 -445.500101373630628 2.41348e-20 2.59757460983349153 0.111369 0 0.0171194
1055 2 3 31.1018 -442.500101373630685 2.39706e-20 2.59757460977071908 0.110802 0 0.0171228
1056 2 3 31.1018 -439.500101373630685 2.38065e-20 2.59757460970794662 0.110234 0 0.0171261
1057 2 3 31.1018 -436.500101373630741 2.36423e-20 2.59757460964517417 0.109667 0 0.0171295
1058 2 3 31.1018 -433.500101373630798 2.34781e-20 2.59757460958240172 0.1091 0 0.0171328
1059 2 3 31.1018 -430.500101373630855 2.33139e-20 2.59757460951962926 0.108532 0 0.0171362
1060 2 3 31.1018 -427.500101373630912 2.31497e-20 2.59757460945685681 0.107965 0 0.0171395
1061 2 3 31.1018 -424.500101373630969 2.29855e-20 2.59757460939408436 0.107398 0 0.0171429
1062 2 3 31.1018 -421.500101373631026 2.28214e-20 2.5975746093313119 0.10683 0 0.0171463
1063 2 3 31.1018 -418.500101373631082 2.26572e-20 2.59757460926853945 0.106263 0 0.0171496
1064 2 3 31.1018 -415.500101373631139 2.2493e-20 2.59757460920576699 0.105696 0 0.017153
1065 2 3 31.1018 -412.500101373631196 2.23288e-20 2.59757460914299454 0.105129 0 0.0171563
1066 2 3 31.1018 -409.500101373631253 2.21646e-20 2.59757460908022209 0.104561 0 0.0171597
1067 2 3 31.1018 -406.50010137363131 2.20004e-20 2.59757460901744963 0.103994 0 0.0171631
1068 2 3 31.1018 -403.50010137363131 2.18363e-20 2.59757460895467718 0.103427 0 0.0171664
1069 2 3 31.1018 -400.500101373631367 2.16721e-20 2.59757460889190472 0.102859 0 0.0171698
1070 2 3 31.1018 -397.500101373631423 2.15079e-20 2.59757460882913227 0.102292 0 0.0171731
1071 2 3 31.1018 -394.50010137363148 2.13437e-20 2.59757460876635982 0.101725 0 0.0171765
1072 2 3 31.1018 -391.500101373631537 2.11795e-20 2.59757460870358736 0.101157 0 0.0171799
1073 2 3 31.1018 -388.500101373631594 2.10154e-20 2.59757460864081491 0.10059 0 0.0171832
1074 2 3 31.1018 -385.500101373631651 2.08512e-20 2.59757460857804245 0.100023 0 0.0171866
1075 2 3 31.1018 -382.500101373631708 2.0687e-20 2.59757460851527 0.0994556 0 0.0171899