ITEM: TIMESTEP
3700000
ITEM: NUMBER OF ATOMS
3751
ITEM: BOX BOUNDS pp pp pp
-3.3750000000000000e+03 3.3750000000000000e+03
-1.0000000000000000e+02 1.0000000000000000e+02
-1.0000000000000000e+02 1.0000000000000000e+02
ITEM: ATOMS id type diameter mass xu yu zu fx fy fz
1 1 3 31.1018 -3375 0 0 0 0 0
2 1 3 31.1018 -3372 0 0 0 0 0
3 1 3 31.1018 -3369 0 0 0 0 0
4 1 3 31.1018 -3366 0 0 0 0 0
5 1 3 31.1018 -3363 0 0 0 0 0
6 1 3 31.1018 -3360 0 0 0 0 0
7 1 3 31.1018 -3357 0 0 0 0 0
8 1 3 31.1018 -3354 0 0 0 0 0
9 1 3 31.1018 -3351 0 0 0 0 0
10 1 3 31.1018 -3348 0 0 0 0 0
11 1 3 31.1018 -3345 0 0 0 0 0
12 1 3 31.1018 -3342 0 0 0 0 0
13 1 3 31.1018 -3339 0 0 0 0 0
14 1 3 31.1018 -3336 0 0 0 0 0
15 1 3 31.1018 -3333 0 0 0 0 0
16 1 3 31.1018 -3330 0 0 0 0 0
17 1 3 31.1018 -3327 0 0 0 0 0
18 1 3 31.1018 -3324 0 0 0 0 0
19 1 3 31.1018 -3321 0 0 0 0 0
20 1 3 31.1018 -3318 0 0 0 0 0
21 1 3 31.1018 -3315 0 0 0 0 0
22 1 3 31.1018 -3312 0 0 0 0 0
23 1 3 31.1018 -3309 0 0 0 0 0
24 1 3 31.1018 -3306 0 0 0 0 0
25 1 3 31.1018 -3303 0 0 0 0 0
26 1 3 31.1018 -3300 0 0 0 0 0
27 1 3 31.1018 -3297 0 0 0 0 0
28 1 3 31.1018 -3294 0 0 0 0 0
29 1 3 31.1018 -3291 0 0 0 0 0
30 1 3 31.1018 -3288 0 0 0 0 0
31 1 3 31.1018 -3285 0 0 0 0 0
32 1 3 31.1018 -3282 0 0 0 0 0
33 1 3 31.1018 -3279 0 0 0 0 0
34 1 3 31.1018 -3276 0 0 0 0 0
35 1 3 31.1018 -3273 0 0 0 0 0
36 1 3 31.1018 -3270 0 0 0 0 0
37 1 3 31.1018 -3267 0 0 0 0 0
38 1 3 31.1018 -3264 0 0 0 0 0
39 1 3 31.1018 -3261 0 0 0 0 0
40 1 3 31.1018 -3258 0 0 0 0 0
41 1 3 31.1018 -3255 0 0 0 0 0
42 1 3 31.1018 -3252 0 0 0 0 0
43 1 3 31.1018 -3249 0 0 0 0 0
44 1 3 31.1018 -3246 0 0 0 0 0
45 1 3 31.1018 -3243 0 0 0 0 0
46 1 3 31.1018 -3240 0 0 0 0 0
47 1 3 31.1018 -3237 0 0 0 0 0
48 1 3 31.1018 -3234 0 0 0 0 0
49 1 3 31.1018 -3231 0 0 0 0 0
50 1 3 31.1018 -3228 0 0 0 0 0
51 1 3 31.1018 -3225 0 0 0 0 0
52 1 3 31.1018 -3222 0 0 0 0 0
53 1 3 31.1018 -3219 0 0 0 0 0
54 1 3 31.1018 -3216 0 0 0 0 0
55 1 3 31.1018 -3213 0 0 0 0 0
56 1 3 31.1018 -3210 0 0 0 0 0
57 1 3 31.1018 -3207 0 0 0 0 0
58 1 3 31.1018 -3204 0 0 0 0 0
59 1 3 31.1018 -3201 0 0 0 0 0
60 1 3 31.1018 -3198 0 0 0 0 0
61 1 3 31.1018 -3195 0 0 0 0 0
62 1 3 31.1018 -3192 0 0 0 0 0
63 1 3 31.1018 -3189 0 0 0 0 0
64 1 3 31.1018 -3186 0 0 0 0 0
65 1 3 31.1018 -3183 0 0 0 0 0
66 1 3 31.1018 -3180 0 0 0 0 0
67 1 3 31.1018 -3177 0 0 0 0 0
68 1 3 31.1018 -3174 0 0 0 0 0
69 1 3 31.1018 -3171 0 0 0 0 0
70 1 3 31.1018 -3168 0 0 0 0 0
71 1 3 31.1018 -3165 0 0 0 0 0
72 1 3 31.1018 -3162 0 0 0 0 0
73 1 3 31.1018 -3159 0 0 0 0 0
74 1 3 31.1018 -3156 0 0 0 0 0
75 1 3 31.1018 -3153 0 0 0 0 0
76 1 3 31.1018 -3150 0 0 0 0 0
77 1 3 31.1018 -3147 0 0 0 0 0
78 1 3 31.1018 -3144 0 0 0 0 0
79 1 3 31.1018 -3141 0 0 0 0 0
80 1 3 31.1018 -3138 0 0 0 0 0
81 1 3 31.1018 -3135 0 0 0 0 0
82 1 3 31.1018 -3132 0 0 0 0 0
83 1 3 31.1018 -3129 0 0 0 0 0
84 1 3 31.1018 -3126 0 0 0 0 0
85 1 3 31.1018 -3123 0 0 0 0 0
86 1 3 31.1018 -3120 0 0 0 0 0
87 1 3 31.1018 -3117 0 0 0 0 0
88 1 3 31.1018 -3114 0 0 0 0 0
89 1 3 31.1018 -3111 0 0 0 0 0
90 1 3 31.1018 -3108 0 0 0 0 0
91 1 3 31.1018 -3105 0 0 0 0 0
92 1 3 31.1018 -3102 0 0 0 0 0
93 1 3 31.1018 -3099 0 0 0 0 0
94 1 3 31.1018 -3096 0 0 0 0 0
95 1 3 31.1018 -3093 0 0 0 0 0
96 1 3 31.1018 -3090 0 0 0 0 0
97 1 3 31.1018 -3087 0 0 0 0 0
98 1 3 31.1018 -3084 0 0 0 0 0
99 1 3 31.1018 -3081 0 0 0 0 0
100 1 3 31.1018 -3078 0 0 0 0 0
101 1 3 31.1018 -3075 0 0 0 0 0
102 1 3 31.1018 -3072 0 0 0 0 0
103 1 3 31.1018 -3069 0 0 0 0 0
104 1 3 31.1018 -3066 0 0 0 0 0
105 1 3 31.1018 -3063 0 0 0 0 0
106 1 3 31.1018 -3060 0 0 0 0 0
107 1 3 31.1018 -3057 0 0 0 0 0
108 1 3 31.1018 -3054 0 0 0 0 0
109 1 3 31.1018 -3051 0 0 0 0 0
110 1 3 31.1018 -3048 0 0 0 0 0
111 1 3 31.1018 -3045 0 0 0 0 0
112 1 3 31.1018 -3042 0 0 0 0 0
113 1 3 31.1018 -3039 0 0 0 0 0
114 1 3 31.1018 -3036 0 0 0 0 0
115 1 3 31.1018 -3033 0 0 0 0 0
116 1 3 31.1018 -3030 0 0 0 0 0
117 1 3 31.1018 -3027 0 0 0 0 0
118 1 3 31.1018 -3024 0 0 0 0 0
119 1 3 31.1018 -3021 0 0 0 0 0
120 1 3 31.1018 -3018 0 0 0 0 0
121 1 3 31.1018 -3015 0 0 0 0 0
122 1 3 31.1018 -3012 0 0 0 0 0
123 1 3 31.1018 -3009 0 0 0 0 0
124 1 3 31.1018 -3006 0 0 0 0 0
125 1 3 31.1018 -3003 0 0 0 0 0
126 1 3 31.1018 -3000 0 0 0 0 0
127 1 3 31.1018 -2997 0 0 0 0 0
128 1 3 31.1018 -2994 0 0 0 0 0
129 1 3 31.1018 -2991 0 0 0 0 0
130 1 3 31.1018 -2988 0 0 0 0 0
131 1 3 31.1018 -2985 0 0 0 0 0
132 1 3 31.1018 -2982 0 0 0 0 0
133 1 3 31.1018 -2979 0 0 0 0 0
134 1 3 31.1018 -2976 0 0 0 0 0
135 1 3 31.1018 -2973 0 0 0 0 0
136 1 3 31.1018 -2970 0 0 0 0 0
137 1 3 31.1018 -2967 0 0 0 0 0
138 1 3 31.1018 -2964 0 0 0 0 0
139 1 3 31.1018 -2961 0 0 0 0 0
140 1 3 31.1018 -2958 0 0 0 0 0
141 1 3 31.1018 -2955 0 0 0 0 0
142 1 3 31.1018 -2952 0 0 0 0 0
143 1 3 31.1018 -2949 0 0 0 0 0
144 1 3 31.1018 -2946 0 0 0 0 0
145 1 3 31.1018 -2943 0 0 0 0 0
146 1 3 31.1018 -2940 0 0 0 0 0
147 1 3 31.1018 -2937 0 0 0 0 0
148 1 3 31.1018 -2934 0 0 0 0 0
149 1 3 31.1018 -2931 0 0 0 0 0
150 1 3 31.1018 -2928 0 0 0 0 0
151 1 3 31.1018 -2925 0 0 0 0 0
152 1 3 31.1018 -2922 0 0 0 0 0
153 1 3 31.1018 -2919 0 0 0 0 0
154 1 3 31.1018 -2916 0 0 0 0 0
155 1 3 31.1018 -2913 0 0 0 0 0
156 1 3 31.1018 -2910 0 0 0 0 0
157 1 3 31.1018 -2907 0 0 0 0 0
158 1 3 31.1018 -2904 0 0 0 0 0
159 1 3 31.1018 -2901 0 0 0 0 0
160 1 3 31.1018 -2898 0 0 0 0 0
161 1 3 31.1018 -2895 0 0 0 0 0
162 1 3 31.1018 -2892 0 0 0 0 0
163 1 3 31.1018 -2889 0 0 0 0 0
164 1 3 31.1018 -2886 0 0 0 0 0
165 1 3 31.1018 -2883 0 0 0 0 0
166 1 3 31.1018 -2880 0 0 0 0 0
167 1 3 31.1018 -2877 0 0 0 0 0
168 1 3 31.1018 -2874 0 0 0 0 0
169 1 3 31.1018 -2871 0 0 0 0 0
170 1 3 31.1018 -2868 0 0 0 0 0
171 1 3 31.1018 -2865 0 0 0 0 0
172 1 3 31.1018 -2862 0 0 0 0 0
173 1 3 31.1018 -2859 0 0 0 0 0
174 1 3 31.1018 -2856 0 0 0 0 0
175 1 3 31.1018 -2853 0 0 0 0 0
176 1 3 31.1018 -2850 0 0 0 0 0
177 1 3 31.1018 -2847 0 0 0 0 0
178 1 3 31.1018 -2844 0 0 0 0 0
179 1 3 31.1018 -2841 0 0 0 0 0
180 1 3 31.1018 -2838 0 0 0 0 0
181 1 3 31.1018 -2835 0 0 0 0 0
182 1 3 31.1018 -2832 0 0 0 0 0
183 1 3 31.1018 -2829 0 0 0 0 0
184 1 3 31.1018 -2826 0 0 0 0 0
185 1 3 31.1018 -2823 0 0 0 0 0
186 1 3 31.1018 -2820 0 0 0 0 0
187 1 3 31.1018 -2817 0 0 0 0 0
188 1 3 31.1018 -2814 0 0 0 0 0
189 1 3 31.1018 -2811 0 0 0 0 0
190 1 3 31.1018 -2808 0 0 0 0 0
191 1 3 31.1018 -2805 0 0 0 0 0
192 1 3 31.1018 -2802 0 0 0 0 0
193 1 3 31.1018 -2799 0 0 0 0 0
194 1 3 31.1018 -2796 0 0 0 0 0
195 1 3 31.1018 -2793 0 0 0 0 0
196 1 3 31.1018 -2790 0 0 0 0 0
197 1 3 31.1018 -2787 0 0 0 0 0
198 1 3 31.1018 -2784 0 0 0 0 0
199 1 3 31.1018 -2781 0 0 0 0 0
200 1 3 31.1018 -2778 0 0 0 0 0
201 1 3 31.1018 -2775 0 0 0 0 0
202 1 3 31.1018 -2772 0 0 0 0 0
203 1 3 31.1018 -2769 0 0 0 0 0
204 1 3 31.1018 -2766 0 0 0 0 0
205 1 3 31.1018 -2763 0 0 0 0 0
206 1 3 31.1018 -2760 0 0 0 0 0
207 1 3 31.1018 -2757 0 0 0 0 0
208 1 3 31.1018 -2754 0 0 0 0 0
209 1 3 31.1018 -2751 0 0 0 0 0
210 1 3 31.1018 -2748 0 0 0 0 0
211 1 3 31.1018 -2745 0 0 0 0 0
212 1 3 31.1018 -2742 0 0 0 0 0
213 1 3 31.1018 -2739 0 0 0 0 0
214 1 3 31.1018 -2736 0 0 0 0 0
215 1 3 31.1018 -2733 0 0 0 0 0
216 1 3 31.1018 -2730 0 0 0 0 0
217 1 3 31.1018 -2727 0 0 0 0 0
218 1 3 31.1018 -2724 0 0 0 0 0
219 1 3 31.1018 -2721 0 0 0 0 0
220 1 3 31.1018 -2718 0 0 0 0 0
221 1 3 31.1018 -2715 0 0 0 0 0
222 1 3 31.1018 -2712 0 0 0 0 0
223 1 3 31.1018 -2709 0 0 0 0 0
224 1 3 31.1018 -2706 0 0 0 0 0
225 1 3 31.1018 -2703 0 0 0 0 0
226 1 3 31.1018 -2700 0 0 0 0 0
227 1 3 31.1018 -2697 0 0 0 0 0
228 1 3 31.1018 -2694 0 0 0 0 0
229 1 3 31.1018 -2691 0 0 0 0 0
230 1 3 31.1018 -2688 0 0 0 0 0
231 1 3 31.1018 -2685 0 0 0 0 0
232 1 3 31.1018 -2682 0 0 0 0 0
233 1 3 31.1018 -2679 0 0 0 0 0
234 1 3 31.1018 -2676 0 0 0 0 0
235 1 3 31.1018 -2673 0 0 0 0 0
236 1 3 31.1018 -2670 0 0 0 0 0
237 1 3 31.1018 -2667 0 0 0 0 0
238 1 3 31.1018 -2664 0 0 0 0 0
239 1 3 31.1018 -2661 0 0 0 0 0
240 1 3 31.1018 -2658 0 0 0 0 0
241 1 3 31.1018 -2655 0 0 0 0 0
242 1 3 31.1018 -2652 0 0 0 0 0
243 1 3 31.1018 -2649 0 0 0 0 0
244 1 3 31.1018 -2646 0 0 0 0 0
245 1 3 31.1018 -2643 0 0 0 0 0
246 1 3 31.1018 -2640 0 0 0 0 0
247 1 3 31.1018 -2637 0 0 0 0 0
248 1 3 31.1018 -2634 0 0 0 0 0
249 1 3 31.1018 -2631 0 0 0 0 0
250 1 3 31.1018 -2628 0 0 0 0 0
251 1 3 31.1018 -2625 0 0 0 0 0
252 1 3 31.1018 -2622 0 0 0 0 0
253 1 3 31.1018 -2619 0 0 0 0 0
254 1 3 31.1018 -2616 0 0 0 0 0
255 1 3 31.1018 -2613 0 0 0 0 0
256 1 3 31.1018 -2610 0 0 0 0 0
257 1 3 31.1018 -2607 0 0 0 0 0
258 1 3 31.1018 -2604 0 0 0 0 0
259 1 3 31.1018 -2601 0 0 0 0 0
260 1 3 31.1018 -2598 0 0 0 0 0
261 1 3 31.1018 -2595 0 0 0 0 0
262 1 3 31.1018 -2592 0 0 0 0 0
263 1 3 31.1018 -2589 0 0 0 0 0
264 1 3 31.1018 -2586 0 0 0 0 0
265 1 3 31.1018 -2583 0 0 0 0 0
266 1 3 31.1018 -2580 0 0 0 0 0
267 1 3 31.1018 -2577 0 0 0 0 0
268 1 3 31.1018 -2574 0 0 0 0 0
269 1 3 31.1018 -2571 0 0 0 0 0
270 1 3 31.1018 -2568 0 0 0 0 0
271 1 3 31.1018 -2565 0 0 0 0 0
272 1 3 31.1018 -2562 0 0 0 0 0
273 1 3 31.1018 -2559 0 0 0 0 0
274 1 3 31.1018 -2556 0 0 0 0 0
275 1 3 31.1018 -2553 0 0 0 0 0
276 1 3 31.1018 -2550 0 0 0 0 0
277 1 3 31.1018 -2547 0 0 0 0 0
278 1 3 31.1018 -2544 0 0 0 0 0
279 1 3 31.1018 -2541 0 0 0 0 0
280 1 3 31.1018 -2538 0 0 0 0 0
281 1 3 31.1018 -2535 0 0 0 0 0
282 1 3 31.1018 -2532 0 0 0 0 0
283 1 3 31.1018 -2529 0 0 0 0 0
284 1 3 31.1018 -2526 0 0 0 0 0
285 1 3 31.1018 -2523 0 0 0 0 0
286 1 3 31.1018 -2520 0 0 0 0 0
287 1 3 31.1018 -2517 0 0 0 0 0
288 1 3 31.1018 -2514 0 0 0 0 0
289 1 3 31.1018 -2511 0 0 0 0 0
290 1 3 31.1018 -2508 0 0 0 0 0
291 1 3 31.1018 -2505 0 0 0 0 0
292 1 3 31.1018 -2502 0 0 0 0 0
293 1 3 31.1018 -2499 0 0 0 0 0
294 1 3 31.1018 -2496 0 0 0 0 0
295 1 3 31.1018 -2493 0 0 0 0 0
296 1 3 31.1018 -2490 0 0 0 0 0
297 1 3 31.1018 -2487 0 0 0 0 0
298 1 3 31.1018 -2484 0 0 0 0 0
299 1 3 31.1018 -2481 0 0 0 0 0
300 1 3 31.1018 -2478 0 0 0 0 0
301 1 3 31.1018 -2475 0 0 0 0 0
302 1 3 31.1018 -2472 0 0 0 0 0
303 1 3 31.1018 -2469 0 0 0 0 0
304 1 3 31.1018 -2466 0 0 0 0 0
305 1 3 31.1018 -2463 0 0 0 0 0
306 1 3 31.1018 -2460 0 0 0 0 0
307 1 3 31.1018 -2457 0 0 0 0 0
308 1 3 31.1018 -2454 0 0 0 0 0
309 1 3 31.1018 -2451 0 0 0 0 0
310 1 3 31.1018 -2448 0 0 0 0 0
311 1 3 31.1018 -2445 0 0 0 0 0
312 1 3 31.1018 -2442 0 0 0 0 0
313 1 3 31.1018 -2439 0 0 0 0 0
314 1 3 31.1018 -2436 0 0 0 0 0
315 1 3 31.1018 -2433 0 0 0 0 0
316 1 3 31.1018 -2430 0 0 0 0 0
317 1 3 31.1018 -2427 0 0 0 0 0
318 1 3 31.1018 -2424 0 0 0 0 0
319 1 3 31.1018 -2421 0 0 0 0 0
320 1 3 31.1018 -2418 0 0 0 0 0
321 1 3 31.1018 -2415 0 0 0 0 0
322 1 3 31.1018 -2412 0 0 0 0 0
323 1 3 31.1018 -2409 0 0 0 0 0
324 1 3 31.1018 -2406 0 0 0 0 0
325 1 3 31.1018 -2403 0 0 0 0 0
326 1 3 31.1018 -2400 0 0 0 0 0
327 1 3 31.1018 -2397 0 0 0 0 0
328 1 3 31.1018 -2394 0 0 0 0 0
329 1 3 31.1018 -2391 0 0 0 0 0
330 1 3 31.1018 -2388 0 0 0 0 0
331 1 3 31.1018 -2385 0 0 0 0 0
332 1 3 31.1018 -2382 0 0 0 0 0
333 1 3 31.1018 -2379 0 0 0 0 0
334 1 3 31.1018 -2376 0 0 0 0 0
335 1 3 31.1018 -2373 0 0 0 0 0
336 1 3 31.1018 -2370 0 0 0 0 0
337 1 3 31.1018 -2367 0 0 0 0 0
338 1 3 31.1018 -2364 0 0 0 0 0
339 1 3 31.1018 -2361 0 0 0 0 0
340 1 3 31.1018 -2358 0 0 0 0 0
341 1 3 31.1018 -2355 0 0 0 0 0
342 1 3 31.1018 -2352 0 0 0 0 0
343 1 3 31.1018 -2349 0 0 0 0 0
344 1 3 31.1018 -2346 0 0 0 0 0
345 1 3 31.1018 -2343 0 0 0 0 0
346 1 3 31.1018 -2340 0 0 0 0 0
347 1 3 31.1018 -2337 0 0 0 0 0
348 1 3 31.1018 -2334 0 0 0 0 0
349 1 3 31.1018 -2331 0 0 0 0 0
350 1 3 31.1018 -2328 0 0 0 0 0
351 1 3 31.1018 -2325 0 0 0 0 0
352 1 3 31.1018 -2322 0 0 0 0 0
353 1 3 31.1018 -2319 0 0 0 0 0
354 1 3 31.1018 -2316 0 0 0 0 0
355 1 3 31.1018 -2313 0 0 0 0 0
356 1 3 31.1018 -2310 0 0 0 0 0
357 1 3 31.1018 -2307 0 0 0 0 0
358 1 3 31.1018 -2304 0 0 0 0 0
359 1 3 31.1018 -2301 0 0 0 0 0
360 1 3 31.1018 -2298 0 0 0 0 0
361 1 3 31.1018 -2295 0 0 0 0 0
362 1 3 31.1018 -2292 0 0 0 0 0
363 1 3 31.1018 -2289 0 0 0 0 0
364 1 3 31.1018 -2286 0 0 0 0 0
365 1 3 31.1018 -2283 0 0 0 0 0
366 1 3 31.1018 -2280 0 0 0 0 0
367 1 3 31.1018 -2277 0 0 0 0 0
368 1 3 31.1018 -2274 0 0 0 0 0
369 1 3 31.1018 -2271 0 0 0 0 0
370 1 3 31.1018 -2268 0 0 0 0 0
371 1 3 31.1018 -2265 0 0 0 0 0
372 1 3 31.1018 -2262 0 0 0 0 0
373 1 3 31.1018 -2259 0 0 0 0 0
374 1 3 31.1018 -2256 0 0 0 0 0
375 1 3 31.1018 -2253 0 0 0 0 0
376 1 3 31.1018 -2250 0 0 0 0 0
377 1 3 31.1018 -2247 0 0 0 0 0
378 1 3 31.1018 -2244 0 0 0 0 0
379 1 3 31.1018 -2241 0 0 0 0 0
380 1 3 31.1018 -2238 0 0 0 0 0
381 1 3 31.1018 -2235 0 0 0 0 0
382 1 3 31.1018 -2232 0 0 0 0 0
383 1 3 31.1018 -2229 0 0 0 0 0
384 1 3 31.1018 -2226 0 0 0 0 0
385 1 3 31.1018 -2223 0 0 0 0 0
386 1 3 31.1018 -2220 0 0 0 0 0
387 1 3 31.1018 -2217 0 0 0 0 0
388 1 3 31.1018 -2214 0 0 0 0 0
389 1 3 31.1018 -2211 0 0 0 0 0
390 1 3 31.1018 -2208 0 0 0 0 0
391 1 3 31.1018 -2205 0 0 0 0 0
392 1 3 31.1018 -2202 0 0 0 0 0
393 1 3 31.1018 -2199 0 0 0 0 0
394 1 3 31.1018 -2196 0 0 0 0 0
395 1 3 31.1018 -2193 0 0 0 0 0
396 1 3 31.1018 -2190 0 0 0 0 0
397 1 3 31.1018 -2187 0 0 0 0 0
398 1 3 31.1018 -2184 0 0 0 0 0
399 1 3 31.1018 -2181 0 0 0 0 0
400 1 3 31.1018 -2178 0 0 0 0 0
401 1 3 31.1018 -2175 0 0 0 0 0
402 1 3 31.1018 -2172 0 0 0 0 0
403 1 3 31.1018 -2169 0 0 0 0 0
404 1 3 31.1018 -2166 0 0 0 0 0
405 1 3 31.1018 -2163 0 0 0 0 0
406 1 3 31.1018 -2160 0 0 0 0 0
407 1 3 31.1018 -2157 0 0 0 0 0
408 1 3 31.1018 -2154 0 0 0 0 0
409 1 3 31.1018 -2151 0 0 0 0 0
410 1 3 31.1018 -2148 0 0 0 0 0
411 1 3 31.1018 -2145 0 0 0 0 0
412 1 3 31.1018 -2142 0 0 0 0 0
413 1 3 31.1018 -2139 0 0 0 0 0
414 1 3 31.1018 -2136 0 0 0 0 0
415 1 3 31.1018 -2133 0 0 0 0 0
416 1 3 31.1018 -2130 0 0 0 0 0
417 1 3 31.1018 -2127 0 0 0 0 0
418 1 3 31.1018 -2124 0 0 0 0 0
419 1 3 31.1018 -2121 0 0 0 0 0
420 1 3 31.1018 -2118 0 0 0 0 0
421 1 3 31.1018 -2115 0 0 0 0 0
422 1 3 31.1018 -2112 0 0 0 0 0
423 1 3 31.1018 -2109 0 0 0 0 0
424 1 3 31.1018 -2106 0 0 0 0 0
425 1 3 31.1018 -2103 0 0 0 0 0
426 1 3 31.1018 -2100 0 0 0 0 0
427 1 3 31.1018 -2097 0 0 0 0 0
428 1 3 31.1018 -2094 0 0 0 0 0
429 1 3 31.1018 -2091 0 0 0 0 0
430 1 3 31.1018 -2088 0 0 0 0 0
431 1 3 31.1018 -2085 0 0 0 0 0
432 1 3 31.1018 -2082 0 0 0 0 0
433 1 3 31.1018 -2079 0 0 0 0 0
434 1 3 31.1018 -2076 0 0 0 0 0
435 1 3 31.1018 -2073 0 0 0 0 0
436 1 3 31.1018 -2070 0 0 0 0 0
437 1 3 31.1018 -2067 0 0 0 0 0
438 1 3 31.1018 -2064 0 0 0 0 0
439 1 3 31.1018 -2061 0 0 0 0 0
440 1 3 31.1018 -2058 0 0 0 0 0
441 1 3 31.1018 -2055 0 0 0 0 0
442 1 3 31.1018 -2052 0 0 0 0 0
443 1 3 31.1018 -2049 0 0 0 0 0
444 1 3 31.1018 -2046 0 0 0 0 0
445 1 3 31.1018 -2043 0 0 0 0 0
446 1 3 31.1018 -2040 0 0 0 0 0
447 1 3 31.1018 -2037 0 0 0 0 0
448 1 3 31.1018 -2034 0 0 0 0 0
449 1 3 31.1018 -2031 0 0 0 0 0
450 1 3 31.1018 -2028 0 0 0 0 0
451 1 3 31.1018 -2025 0 0 0 0 0
452 1 3 31.1018 -2022 0 0 0 0 0
453 1 3 31.1018 -2019 0 0 0 0 0
454 1 3 31.1018 -2016 0 0 0 0 0
455 1 3 31.1018 -2013 0 0 0 0 0
456 1 3 31.1018 -2010 0 0 0 0 0
457 1 3 31.1018 -2007 0 0 0 0 0
458 1 3 31.1018 -2004 0 0 0 0 0
459 1 3 31.1018 -2001 0 0 0 0 0
460 1 3 31.1018 -1998 0 0 0 0 0
461 1 3 31.1018 -1995 0 0 0 0 0
462 1 3 31.1018 -1992 0 0 0 0 0
463 1 3 31.1018 -1989 0 0 0 0 0
464 1 3 31.1018 -1986 0 0 0 0 0
465 1 3 31.1018 -1983 0 0 0 0 0
466 1 3 31.1018 -1980 0 0 0 0 0
467 1 3 31.1018 -1977 0 0 0 0 0
468 1 3 31.1018 -1974 0 0 0 0 0
469 1 3 31.1018 -1971 0 0 0 0 0
470 1 3 31.1018 -1968 0 0 0 0 0
471 1 3 31.1018 -1965 0 0 0 0 0
472 1 3 31.1018 -1962 0 0 0 0 0
473 1 3 31.1018 -1959 0 0 0 0 0
474 1 3 31.1018 -1956 0 0 0 0 0
475 1 3 31.1018 -1953 0 0 0 0 0
476 1 3 31.1018 -1950 0 0 0 0 0
477 1 3 31.1018 -1947 0 0 0 0 0
478 1 3 31.1018 -1944 0 0 0 0 0
479 1 3 31.1018 -1941 0 0 0 0 0
480 1 3 31.1018 -1938 0 0 0 0 0
481 1 3 31.1018 -1935 0 0 0 0 0
482 1 3 31.1018 -1932 0 0 0 0 0
483 1 3 31.1018 -1929 0 0 0 0 0
484 1 3 31.1018 -1926 0 0 0 0 0
485 1 3 31.1018 -1923 0 0 0 0 0
486 1 3 31.1018 -1920 0 0 0 0 0
487 1 3 31.1018 -1917 0 0 0 0 0
488 1 3 31.1018 -1914 0 0 0 0 0
489 1 3 31.1018 -1911 0 0 0 0 0
490 1 3 31.1018 -1908 0 0 0 0 0
491 1 3 31.1018 -1905 0 0 0 0 0
492 1 3 31.1018 -1902 0 0 0 0 0
493 1 3 31.1018 -1899 0 0 0 0 0
494 1 3 31.1018 -1896 0 0 0 0 0
495 1 3 31.1018 -1893 0 0 0 0 0
496 1 3 31.1018 -1890 0 0 0 0 0
497 1 3 31.1018 -1887 0 0 0 0 0
498 1 3 31.1018 -1884 0 0 0 0 0
499 1 3 31.1018 -1881 0 0 0 0 0
500 1 3 31.1018 -1878 0 0 0 0 0
501 1 3 31.1018 -1875 0 0 0 0 0
502 1 3 31.1018 -1872 0 0 0 0 0
503 1 3 31.1018 -1869 0 0 0 0 0
504 1 3 31.1018 -1866 0 0 0 0 0
505 1 3 31.1018 -1863 0 0 0 0 0
506 1 3 31.1018 -1860 0 0 0 0 0
507 1 3 31.1018 -1857 0 0 0 0 0
508 1 3 31.1018 -1854 0 0 0 0 0
509 1 3 31.1018 -1851 0 0 0 0 0
510 1 3 31.1018 -1848 0 0 0 0 0
511 1 3 31.1018 -1845 0 0 0 0 0
512 1 3 31.1018 -1842 0 0 0 0 0
513 1 3 31.1018 -1839 0 0 0 0 0
514 1 3 31.1018 -1836 0 0 0 0 0
515 1 3 31.1018 -1833 0 0 0 0 0
516 1 3 31.1018 -1830 0 0 0 0 0
517 1 3 31.1018 -1827 0 0 0 0 0
518 1 3 31.1018 -1824 0 0 0 0 0
519 1 3 31.1018 -1821 0 0 0 0 0
520 1 3 31.1018 -1818 0 0 0 0 0
521 1 3 31.1018 -1815 0 0 0 0 0
522 1 3 31.1018 -1812 0 0 0 0 0
523 1 3 31.1018 -1809 0 0 0 0 0
524 1 3 31.1018 -1806 0 0 0 0 0
525 1 3 31.1018 -1803 0 0 0 0 0
526 1 3 31.1018 -1800 0 0 0 0 0
527 1 3 31.1018 -1797 0 0 0 0 0
528 1 3 31.1018 -1794 0 0 0 0 0
529 1 3 31.1018 -1791 0 0 0 0 0
530 1 3 31.1018 -1788 0 0 0 0 0
531 1 3 31.1018 -1785 0 0 0 0 0
532 1 3 31.1018 -1782 0 0 0 0 0
533 1 3 31.1018 -1779 0 0 0 0 0
534 1 3 31.1018 -1776 0 0 0 0 0
535 1 3 31.1018 -1773 0 0 0 0 0
536 1 3 31.1018 -1770 0 0 0 0 0
537 1 3 31.1018 -1767 0 0 0 0 0
538 1 3 31.1018 -1764 0 0 0 0 0
539 1 3 31.1018 -1761 0 0 0 0 0
540 1 3 31.1018 -1758 0 0 0 0 0
541 1 3 31.1018 -1755 0 0 0 0 0
542 1 3 31.1018 -1752 0 0 0 0 0
543 1 3 31.1018 -1749 0 0 0 0 0
544 1 3 31.1018 -1746 0 0 0 0 0
545 1 3 31.1018 -1743 0 0 0 0 0
546 1 3 31.1018 -1740 0 0 0 0 0
547 1 3 31.1018 -1737 0 0 0 0 0
548 1 3 31.1018 -1734 0 0 0 0 0
549 1 3 31.1018 -1731 0 0 0 0 0
550 1 3 31.1018 -1728 0 0 0 0 0
551 1 3 31.1018 -1725 0 0 0 0 0
552 1 3 31.1018 -1722 0 0 0 0 0
553 1 3 31.1018 -1719 0 0 0 0 0
554 1 3 31.1018 -1716 0 0 0 0 0
555 1 3 31.1018 -1713 0 0 0 0 0
556 1 3 31.1018 -1710 0 0 0 0 0
557 1 3 31.1018 -1707 0 0 0 0 0
558 1 3 31.1018 -1704 0 0 0 0 0
559 1 3 31.1018 -1701 0 0 0 0 0
560 1 3 31.1018 -1698 0 0 0 0 0
561 1 3 31.1018 -1695 0 0 0 0 0
562 1 3 31.1018 -1692 0 0 0 0 0
563 1 3 31.1018 -1689 0 0 0 0 0
2251 2 3 31.1018 -2254.50010136645096 3.29448e-21 2.59757461388204058 0.0743694 0 -0.00779058
2252 2 3 31.1018 -2251.50010136645051 3.29009e-21 2.59757461387176747 0.0742782 0 -0.00778889
2253 2 3 31.1018 -2248.50010136645005 3.28569e-21 2.59757461386149435 0.074187 0 -0.00778719
2254 2 3 31.1018 -2245.50010136645005 3.2813e-21 2.59757461385122124 0.0740962 0 -0.00778545
2255 2 3 31.1018 -2242.5001013664496 3.27691e-21 2.59757461384094812 0.074005 0 -0.00778375
2256 2 3 31.1018 -2239.50010136644914 3.27251e-21 2.59757461383067501 0.0739138 0 -0.00778205
2257 2 3 31.1018 -2236.50010136644869 3.26812e-21 2.59757461382040189 0.0738226 0 -0.00778036
2258 2 3 31.1018 -2233.50010136644869 3.26373e-21 2.59757461381012877 0.0737318 0 -0.00777861
2259 2 3 31.1018 -2230.50010136644823 3.25934e-21 2.59757461379985566 0.0736406 0 -0.00777692
2260 2 3 31.1018 -2227.50010136644778 3.25494e-21 2.59757461378958254 0.0735494 0 -0.00777522
2261 2 3 31.1018 -2224.50010136644732 3.25055e-21 2.59757461377930943 0.0734582 0 -0.00777352
2262 2 3 31.1018 -2221.50010136644732 3.24616e-21 2.59757461376903631 0.0733674 0 -0.00777178
2263 2 3 31.1018 -2218.50010136644687 3.24177e-21 2.5975746137587632 0.0732762 0 -0.00777008
2264 2 3 31.1018 -2215.50010136644642 3.23737e-21 2.59757461374849008 0.073185 0 -0.00776839
2265 2 3 31.1018 -2212.50010136644642 3.23298e-21 2.59757461373821696 0.0730942 0 -0.00776664
2266 2 3 31.1018 -2209.50010136644596 3.22859e-21 2.59757461372794385 0.073003 0 -0.00776495
2267 2 3 31.1018 -2206.50010136644551 3.2242e-21 2.59757461371767073 0.0729118 0 -0.00776325
2268 2 3 31.1018 -2203.50010136644505 3.2198e-21 2.59757461370739762 0.0728206 0 -0.00776155
2269 2 3 31.1018 -2200.50010136644505 3.21541e-21 2.5975746136971245 0.0727298 0 -0.00775981
2270 2 3 31.1018 -2197.5001013664446 3.21102e-21 2.59757461368685139 0.0726386 0 -0.00775812
2271 2 3 31.1018 -2194.50010136644414 3.20663e-21 2.59757461367657827 0.0725474 0 -0.00775642
2272 2 3 31.1018 -2191.50010136644369 3.20223e-21 2.59757461366630515 0.0724562 0 -0.00775472
2273 2 3 31.1018 -2188.50010136644369 3.19784e-21 2.59757461365603204 0.0723654 0 -0.00775298
2274 2 3 31.1018 -2185.50010136644323 3.19345e-21 2.59757461364575892 0.0722742 0 -0.00775128
2275 2 3 31.1018 -2182.50010136644278 3.18905e-21 2.59757461363548581 0.072183 0 -0.00774958
2276 2 3 31.1018 -2179.50010136644232 3.18466e-21 2.59757461362521269 0.0720918 0 -0.00774789
2277 2 3 31.1018 -2176.50010136644232 3.18027e-21 2.59757461361493958 0.072001 0 -0.00774615
2278 2 3 31.1018 -2173.50010136644187 3.17588e-21 2.59757461360466646 0.0719098 0 -0.00774445
2279 2 3 31.1018 -2170.50010136644141 3.17148e-21 2.59757461359439334 0.0718186 0 -0.00774275
2280 2 3 31.1018 -2167.50010136644096 3.16709e-21 2.59757461358412023 0.0717274 0 -0.00774106
2281 2 3 31.1018 -2164.50010136644096 3.1627e-21 2.59757461357384711 0.0716366 0 -0.00773932
2282 2 3 31.1018 -2161.5001013664405 3.15831e-21 2.597574613563574 0.0715454 0 -0.00773762
2283 2 3 31.1018 -2158.50010136644005 3.15391e-21 2.59757461355330088 0.0714542 0 -0.00773592
2284 2 3 31.1018 -2155.50010136643959 3.14952e-21 2.59757461354302777 0.071363 0 -0.00773422
2285 2 3 31.1018 -2152.50010136643959 3.14513e-21 2.59757461353275465 0.0712722 0 -0.00773248
2286 2 3 31.1018 -2149.50010136643914 3.14074e-21 2.59757461352248153 0.071181 0 -0.00773078
2287 2 3 31.1018 -2146.50010136643868 3.13634e-21 2.59757461351220842 0.0710898 0 -0.00772909
2288 2 3 31.1018 -2143.50010136643823 3.13195e-21 2.5975746135019353 0.0709986 0 -0.00772739
2289 2 3 31.1018 -2140.50010136643823 3.12756e-21 2.59757461349166219 0.0709078 0 -0.00772565
2290 2 3 31.1018 -2137.50010136643778 3.12317e-21 2.59757461348138907 0.0708166 0 -0.00772395
2291 2 3 31.1018 -2134.50010136643732 3.11877e-21 2.59757461347111596 0.0707254 0 -0.00772226
2292 2 3 31.1018 -2131.50010136643732 3.11438e-21 2.59757461346084284 0.0706346 0 -0.00772051
2293 2 3 31.1018 -2128.50010136643687 3.10999e-21 2.59757461345056972 0.0705434 0 -0.00771881
2294 2 3 31.1018 -2125.50010136643641 3.10559e-21 2.59757461344029661 0.0704522 0 -0.00771712
2295 2 3 31.1018 -2122.50010136643596 3.1012e-21 2.59757461343002349 0.070361 0 -0.00771542
2296 2 3 31.1018 -2119.50010136643596 3.09681e-21 2.59757461341975038 0.0702702 0 -0.00771368
2297 2 3 31.1018 -2116.5001013664355 3.09242e-21 2.59757461340947726 0.070179 0 -0.00771198
2298 2 3 31.1018 -2113.50010136643505 3.08802e-21 2.59757461339920415 0.0700878 0 -0.00771029
2299 2 3 31.1018 -2110.50010136643459 3.08363e-21 2.59757461338893103 0.0699966 0 -0.00770859
2300 2 3 31.1018 -2107.50010136643459 3.07924e-21 2.59757461337865792 0.0699058 0 -0.00770685
2301 2 3 31.1018 -2104.50010136643414 3.07485e-21 2.5975746133683848 0.0698146 0 -0.00770515
2302 2 3 31.1018 -2101.50010136643368 3.07045e-21 2.59757461335811168 0.0697234 0 -0.00770345
2303 2 3 31.1018 -2098.50010136643323 3.06606e-21 2.59757461334783857 0.0696322 0 -0.00770176
2304 2 3 31.1018 -2095.50010136643323 3.06167e-21 2.59757461333756545 0.0695414 0 -0.00770001
2305 2 3 31.1018 -2092.50010136643277 3.05728e-21 2.59757461332729234 0.0694502 0 -0.00769832
2306 2 3 31.1018 -2089.50010136643232 3.05288e-21 2.59757461331701922 0.069359 0 -0.00769662
2307 2 3 31.1018 -2086.50010136643186 3.04849e-21 2.59757461330674611 0.0692678 0 -0.00769492
2308 2 3 31.1018 -2083.50010136643186 3.0441e-21 2.59757461329647299 0.069177 0 -0.00769318
2309 2 3 31.1018 -2080.50010136643141 3.0397e-21 2.59757461328619987 0.0690858 0 -0.00769149
2310 2 3 31.1018 -2077.50010136643095 3.03531e-21 2.59757461327592676 0.0689946 0 -0.00768979
2311 2 3 31.1018 -2074.5001013664305 3.03092e-21 2.59757461326565364 0.0689034 0 -0.00768809
2312 2 3 31.1018 -2071.5001013664305 3.02653e-21 2.59757461325538053 0.0688126 0 -0.00768635
2313 2 3 31.1018 -2068.50010136643004 3.02213e-21 2.59757461324510741 0.0687214 0 -0.00768465
2314 2 3 31.1018 -2065.50010136642959 3.01774e-21 2.5975746132348343 0.0686302 0 -0.00768296
2315 2 3 31.1018 -2062.50010136642913 3.01335e-21 2.59757461322456118 0.068539 0 -0.00768126
2316 2 3 31.1018 -2059.50010136642913 3.00896e-21 2.59757461321428806 0.0684482 0 -0.00767952
2317 2 3 31.1018 -2056.50010136642868 3.00456e-21 2.59757461320401495 0.068357 0 -0.00767782
2318 2 3 31.1018 -2053.50010136642823 3.00017e-21 2.59757461319374183 0.0682658 0 -0.00767612
2319 2 3 31.1018 -2050.50010136642823 2.99578e-21 2.59757461318346872 0.068175 0 -0.00767438
2320 2 3 31.1018 -2047.500101366428 2.99139e-21 2.5975746131731956 0.068084 0 -0.00767266
2321 2 3 31.1018 -2044.50010136642754 2.98699e-21 2.59757461316292249 0.0679928 0 -0.00767096
2322 2 3 31.1018 -2041.50010136642732 2.9826e-21 2.59757461315264937 0.0679018 0 -0.00766924
2323 2 3 31.1018 -2038.50010136642686 2.97821e-21 2.59757461314237625 0.0678106 0 -0.00766755
2324 2 3 31.1018 -2035.50010136642663 2.97382e-21 2.59757461313210314 0.0677196 0 -0.00766583
2325 2 3 31.1018 -2032.50010136642618 2.96942e-21 2.59757461312183002 0.0676284 0 -0.00766413
2326 2 3 31.1018 -2029.50010136642595 2.96503e-21 2.59757461311155691 0.0675374 0 -0.00766241
2327 2 3 31.1018 -2026.5001013664255 2.96064e-21 2.59757461310128379 0.0674462 0 -0.00766071
2328 2 3 31.1018 -2023.50010136642527 2.95624e-21 2.59757461309101068 0.0673552 0 -0.007659
2329 2 3 31.1018 -2020.50010136642481 2.95185e-21 2.59757461308073756 0.067264 0 -0.0076573
2330 2 3 31.1018 -2017.50010136642459 2.94746e-21 2.59757461307046444 0.067173 0 -0.00765558
2331 2 3 31.1018 -2014.50010136642413 2.94307e-21 2.59757461306019133 0.0670818 0 -0.00765388
2332 2 3 31.1018 -2011.50010136642391 2.93867e-21 2.59757461304991821 0.0669908 0 -0.00765216
2333 2 3 31.1018 -2008.50010136642345 2.93428e-21 2.5975746130396451 0.0668996 0 -0.00765047
2334 2 3 31.1018 -2005.50010136642322 2.92989e-21 2.59757461302937198 0.0668086 0 -0.00764875
2335 2 3 31.1018 -2002.50010136642277 2.9255e-21 2.59757461301909887 0.0667174 0 -0.00764705
2336 2 3 31.1018 -1999.50010136642254 2.9211e-21 2.59757461300882575 0.0666264 0 -0.00764533
2337 2 3 31.1018 -1996.50010136642209 2.91671e-21 2.59757461299855263 0.0665352 0 -0.00764363
2338 2 3 31.1018 -1993.50010136642186 2.91232e-21 2.59757461298827952 0.0664442 0 -0.00764191
2339 2 3 31.1018 -1990.5001013664214 2.90793e-21 2.5975746129780064 0.066353 0 -0.00764022
2340 2 3 31.1018 -1987.50010136642118 2.90353e-21 2.59757461296773329 0.066262 0 -0.0076385
2341 2 3 31.1018 -1984.50010136642072 2.89914e-21 2.59757461295746017 0.0661708 0 -0.0076368
2342 2 3 31.1018 -1981.50010136642049 2.89475e-21 2.59757461294718706 0.0660798 0 -0.00763508
2343 2 3 31.1018 -1978.50010136642004 2.89036e-21 2.59757461293691394 0.0659886 0 -0.00763338
2344 2 3 31.1018 -1975.50010136641981 2.88596e-21 2.59757461292664082 0.0658976 0 -0.00763166
2345 2 3 31.1018 -1972.50010136641936 2.88157e-21 2.59757461291636771 0.0658064 0 -0.00762997
2346 2 3 31.1018 -1969.50010136641913 2.87718e-21 2.59757461290609459 0.0657154 0 -0.00762825
2347 2 3 31.1018 -1966.5001013664189 2.87278e-21 2.59757461289582148 0.0656244 0 -0.00762653
2348 2 3 31.1018 -1963.50010136641845 2.86839e-21 2.59757461288554836 0.0655332 0 -0.00762483
2349 2 3 31.1018 -1960.50010136641822 2.864e-21 2.59757461287527525 0.0654422 0 -0.00762311
2350 2 3 31.1018 -1957.50010136641777 2.85961e-21 2.59757461286500213 0.065351 0 -0.00762142
2351 2 3 31.1018 -1954.50010136641754 2.85521e-21 2.59757461285472901 0.06526 0 -0.0076197
2352 2 3 31.1018 -1951.50010136641708 2.85082e-21 2.5975746128444559 0.0651688 0 -0.007618
2353 2 3 31.1018 -1948.50010136641686 2.84643e-21 2.59757461283418278 0.0650778 0 -0.00761628
2354 2 3 31.1018 -1945.5001013664164 2.84204e-21 2.59757461282390967 0.0649866 0 -0.00761458
2355 2 3 31.1018 -1942.50010136641617 2.83764e-21 2.59757461281363655 0.0648956 0 -0.00761286
2356 2 3 31.1018 -1939.50010136641572 2.83325e-21 2.59757461280336344 0.0648044 0 -0.00761117
2357 2 3 31.1018 -1936.50010136641549 2.82886e-21 2.59757461279309032 0.0647134 0 -0.00760945
2358 2 3 31.1018 -1933.50010136641504 2.82447e-21 2.5975746127828172 0.0646222 0 -0.00760775
2359 2 3 31.1018 -1930.50010136641481 2.82007e-21 2.59757461277254409 0.0645312 0 -0.00760603
2360 2 3 31.1018 -1927.50010136641436 2.81568e-21 2.59757461276227097 0.06444 0 -0.00760433
2361 2 3 31.1018 -1924.50010136641413 2.81129e-21 2.59757461275199786 0.064349 0 -0.00760261
2362 2 3 31.1018 -1921.50010136641367 2.8069e-21 2.59757461274172474 0.0642578 0 -0.00760092
2363 2 3 31.1018 -1918.50010136641345 2.8025e-21 2.59757461273145163 0.0641668 0 -0.0075992
2364 2 3 31.1018 -1915.50010136641299 2.79811e-21 2.59757461272117851 0.0640756 0 -0.0075975
2365 2 3 31.1018 -1912.50010136641276 2.79372e-21 2.5975746127109054 0.0639846 0 -0.00759578
2366 2 3 31.1018 -1909.50010136641231 2.78932e-21 2.59757461270063228 0.0638934 0 -0.00759409
2367 2 3 31.1018 -1906.50010136641208 2.78493e-21 2.59757461269035916 0.0638024 0 -0.00759236
2368 2 3 31.1018 -1903.50010136641163 2.78054e-21 2.59757461268008605 0.0637112 0 -0.00759067
2369 2 3 31.1018 -1900.5001013664114 2.77615e-21 2.59757461266981293 0.0636202 0 -0.00758895
2370 2 3 31.1018 -1897.50010136641095 2.77175e-21 2.59757461265953982 0.063529 0 -0.00758725
2371 2 3 31.1018 -1894.50010136641072 2.76736e-21 2.5975746126492667 0.063438 0 -0.00758553
2372 2 3 31.1018 -1891.50010136641026 2.76297e-21 2.59757461263899359 0.0633468 0 -0.00758383
2373 2 3 31.1018 -1888.50010136641004 2.75858e-21 2.59757461262872047 0.0632558 0 -0.00758212
2374 2 3 31.1018 -1885.50010136640958 2.75418e-21 2.59757461261844735 0.0631646 0 -0.00758042
2375 2 3 31.1018 -1882.50010136640935 2.74979e-21 2.59757461260817424 0.0630736 0 -0.0075787
2376 2 3 31.1018 -1879.50010136640913 2.7454e-21 2.59757461259790112 0.0629826 0 -0.00757698