ITEM: TIMESTEP
4700000
ITEM: NUMBER OF ATOMS
1751
ITEM: BOX BOUNDS pp pp pp
-1.5750000000000000e+03 1.5750000000000000e+03
-1.0000000000000000e+02 1.0000000000000000e+02
-1.0000000000000000e+02 1.0000000000000000e+02
ITEM: ATOMS id type diameter mass xu yu zu fx fy fz
1 1 3 31.1018 -1575 0 0 0 0 0
2 1 3 31.1018 -1572 0 0 0 0 0
3 1 3 31.1018 -1569 0 0 0 0 0
4 1 3 31.1018 -1566 0 0 0 0 0
5 1 3 31.1018 -1563 0 0 0 0 0
6 1 3 31.1018 -1560 0 0 0 0 0
7 1 3 31.1018 -1557 0 0 0 0 0
8 1 3 31.1018 -1554 0 0 0 0 0
9 1 3 31.1018 -1551 0 0 0 0 0
10 1 3 31.1018 -1548 0 0 0 0 0
11 1 3 31.1018 -1545 0 0 0 0 0
12 1 3 31.1018 -1542 0 0 0 0 0
13 1 3 31.1018 -1539 0 0 0 0 0
14 1 3 31.1018 -1536 0 0 0 0 0
15 1 3 31.1018 -1533 0 0 0 0 0
16 1 3 31.1018 -1530 0 0 0 0 0
17 1 3 31.1018 -1527 0 0 0 0 0
18 1 3 31.1018 -1524 0 0 0 0 0
19 1 3 31.1018 -1521 0 0 0 0 0
20 1 3 31.1018 -1518 0 0 0 0 0
21 1 3 31.1018 -1515 0 0 0 0 0
22 1 3 31.1018 -1512 0 0 0 0 0
23 1 3 31.1018 -1509 0 0 0 0 0
24 1 3 31.1018 -1506 0 0 0 0 0
25 1 3 31.1018 -1503 0 0 0 0 0
26 1 3 31.1018 -1500 0 0 0 0 0
27 1 3 31.1018 -1497 0 0 0 0 0
28 1 3 31.1018 -1494 0 0 0 0 0
29 1 3 31.1018 -1491 0 0 0 0 0
30 1 3 31.1018 -1488 0 0 0 0 0
31 1 3 31.1018 -1485 0 0 0 0 0
32 1 3 31.1018 -1482 0 0 0 0 0
33 1 3 31.1018 -1479 0 0 0 0 0
34 1 3 31.1018 -1476 0 0 0 0 0
35 1 3 31.1018 -1473 0 0 0 0 0
36 1 3 31.1018 -1470 0 0 0 0 0
37 1 3 31.1018 -1467 0 0 0 0 0
38 1 3 31.1018 -1464 0 0 0 0 0
39 1 3 31.1018 -1461 0 0 0 0 0
40 1 3 31.1018 -1458 0 0 0 0 0
41 1 3 31.1018 -1455 0 0 0 0 0
42 1 3 31.1018 -1452 0 0 0 0 0
43 1 3 31.1018 -1449 0 0 0 0 0
44 1 3 31.1018 -1446 0 0 0 0 0
45 1 3 31.1018 -1443 0 0 0 0 0
46 1 3 31.1018 -1440 0 0 0 0 0
47 1 3 31.1018 -1437 0 0 0 0 0
48 1 3 31.1018 -1434 0 0 0 0 0
49 1 3 31.1018 -1431 0 0 0 0 0
50 1 3 31.1018 -1428 0 0 0 0 0
51 1 3 31.1018 -1425 0 0 0 0 0
52 1 3 31.1018 -1422 0 0 0 0 0
53 1 3 31.1018 -1419 0 0 0 0 0
54 1 3 31.1018 -1416 0 0 0 0 0
55 1 3 31.1018 -1413 0 0 0 0 0
56 1 3 31.1018 -1410 0 0 0 0 0
57 1 3 31.1018 -1407 0 0 0 0 0
58 1 3 31.1018 -1404 0 0 0 0 0
59 1 3 31.1018 -1401 0 0 0 0 0
60 1 3 31.1018 -1398 0 0 0 0 0
61 1 3 31.1018 -1395 0 0 0 0 0
62 1 3 31.1018 -1392 0 0 0 0 0
63 1 3 31.1018 -1389 0 0 0 0 0
64 1 3 31.1018 -1386 0 0 0 0 0
65 1 3 31.1018 -1383 0 0 0 0 0
66 1 3 31.1018 -1380 0 0 0 0 0
67 1 3 31.1018 -1377 0 0 0 0 0
68 1 3 31.1018 -1374 0 0 0 0 0
69 1 3 31.1018 -1371 0 0 0 0 0
70 1 3 31.1018 -1368 0 0 0 0 0
71 1 3 31.1018 -1365 0 0 0 0 0
72 1 3 31.1018 -1362 0 0 0 0 0
73 1 3 31.1018 -1359 0 0 0 0 0
74 1 3 31.1018 -1356 0 0 0 0 0
75 1 3 31.1018 -1353 0 0 0 0 0
76 1 3 31.1018 -1350 0 0 0 0 0
77 1 3 31.1018 -1347 0 0 0 0 0
78 1 3 31.1018 -1344 0 0 0 0 0
79 1 3 31.1018 -1341 0 0 0 0 0
80 1 3 31.1018 -1338 0 0 0 0 0
81 1 3 31.1018 -1335 0 0 0 0 0
82 1 3 31.1018 -1332 0 0 0 0 0
83 1 3 31.1018 -1329 0 0 0 0 0
84 1 3 31.1018 -1326 0 0 0 0 0
85 1 3 31.1018 -1323 0 0 0 0 0
86 1 3 31.1018 -1320 0 0 0 0 0
87 1 3 31.1018 -1317 0 0 0 0 0
88 1 3 31.1018 -1314 0 0 0 0 0
89 1 3 31.1018 -1311 0 0 0 0 0
90 1 3 31.1018 -1308 0 0 0 0 0
91 1 3 31.1018 -1305 0 0 0 0 0
92 1 3 31.1018 -1302 0 0 0 0 0
93 1 3 31.1018 -1299 0 0 0 0 0
94 1 3 31.1018 -1296 0 0 0 0 0
95 1 3 31.1018 -1293 0 0 0 0 0
96 1 3 31.1018 -1290 0 0 0 0 0
97 1 3 31.1018 -1287 0 0 0 0 0
98 1 3 31.1018 -1284 0 0 0 0 0
99 1 3 31.1018 -1281 0 0 0 0 0
100 1 3 31.1018 -1278 0 0 0 0 0
101 1 3 31.1018 -1275 0 0 0 0 0
102 1 3 31.1018 -1272 0 0 0 0 0
103 1 3 31.1018 -1269 0 0 0 0 0
104 1 3 31.1018 -1266 0 0 0 0 0
105 1 3 31.1018 -1263 0 0 0 0 0
106 1 3 31.1018 -1260 0 0 0 0 0
107 1 3 31.1018 -1257 0 0 0 0 0
108 1 3 31.1018 -1254 0 0 0 0 0
109 1 3 31.1018 -1251 0 0 0 0 0
110 1 3 31.1018 -1248 0 0 0 0 0
111 1 3 31.1018 -1245 0 0 0 0 0
112 1 3 31.1018 -1242 0 0 0 0 0
113 1 3 31.1018 -1239 0 0 0 0 0
114 1 3 31.1018 -1236 0 0 0 0 0
115 1 3 31.1018 -1233 0 0 0 0 0
116 1 3 31.1018 -1230 0 0 0 0 0
117 1 3 31.1018 -1227 0 0 0 0 0
118 1 3 31.1018 -1224 0 0 0 0 0
119 1 3 31.1018 -1221 0 0 0 0 0
120 1 3 31.1018 -1218 0 0 0 0 0
121 1 3 31.1018 -1215 0 0 0 0 0
122 1 3 31.1018 -1212 0 0 0 0 0
123 1 3 31.1018 -1209 0 0 0 0 0
124 1 3 31.1018 -1206 0 0 0 0 0
125 1 3 31.1018 -1203 0 0 0 0 0
126 1 3 31.1018 -1200 0 0 0 0 0
127 1 3 31.1018 -1197 0 0 0 0 0
128 1 3 31.1018 -1194 0 0 0 0 0
129 1 3 31.1018 -1191 0 0 0 0 0
130 1 3 31.1018 -1188 0 0 0 0 0
131 1 3 31.1018 -1185 0 0 0 0 0
132 1 3 31.1018 -1182 0 0 0 0 0
133 1 3 31.1018 -1179 0 0 0 0 0
134 1 3 31.1018 -1176 0 0 0 0 0
135 1 3 31.1018 -1173 0 0 0 0 0
136 1 3 31.1018 -1170 0 0 0 0 0
137 1 3 31.1018 -1167 0 0 0 0 0
138 1 3 31.1018 -1164 0 0 0 0 0
139 1 3 31.1018 -1161 0 0 0 0 0
140 1 3 31.1018 -1158 0 0 0 0 0
141 1 3 31.1018 -1155 0 0 0 0 0
142 1 3 31.1018 -1152 0 0 0 0 0
143 1 3 31.1018 -1149 0 0 0 0 0
144 1 3 31.1018 -1146 0 0 0 0 0
145 1 3 31.1018 -1143 0 0 0 0 0
146 1 3 31.1018 -1140 0 0 0 0 0
147 1 3 31.1018 -1137 0 0 0 0 0
148 1 3 31.1018 -1134 0 0 0 0 0
149 1 3 31.1018 -1131 0 0 0 0 0
150 1 3 31.1018 -1128 0 0 0 0 0
151 1 3 31.1018 -1125 0 0 0 0 0
152 1 3 31.1018 -1122 0 0 0 0 0
153 1 3 31.1018 -1119 0 0 0 0 0
154 1 3 31.1018 -1116 0 0 0 0 0
155 1 3 31.1018 -1113 0 0 0 0 0
156 1 3 31.1018 -1110 0 0 0 0 0
157 1 3 31.1018 -1107 0 0 0 0 0
158 1 3 31.1018 -1104 0 0 0 0 0
159 1 3 31.1018 -1101 0 0 0 0 0
160 1 3 31.1018 -1098 0 0 0 0 0
161 1 3 31.1018 -1095 0 0 0 0 0
162 1 3 31.1018 -1092 0 0 0 0 0
163 1 3 31.1018 -1089 0 0 0 0 0
164 1 3 31.1018 -1086 0 0 0 0 0
165 1 3 31.1018 -1083 0 0 0 0 0
166 1 3 31.1018 -1080 0 0 0 0 0
167 1 3 31.1018 -1077 0 0 0 0 0
168 1 3 31.1018 -1074 0 0 0 0 0
169 1 3 31.1018 -1071 0 0 0 0 0
170 1 3 31.1018 -1068 0 0 0 0 0
171 1 3 31.1018 -1065 0 0 0 0 0
172 1 3 31.1018 -1062 0 0 0 0 0
173 1 3 31.1018 -1059 0 0 0 0 0
174 1 3 31.1018 -1056 0 0 0 0 0
175 1 3 31.1018 -1053 0 0 0 0 0
176 1 3 31.1018 -1050 0 0 0 0 0
177 1 3 31.1018 -1047 0 0 0 0 0
178 1 3 31.1018 -1044 0 0 0 0 0
179 1 3 31.1018 -1041 0 0 0 0 0
180 1 3 31.1018 -1038 0 0 0 0 0
181 1 3 31.1018 -1035 0 0 0 0 0
182 1 3 31.1018 -1032 0 0 0 0 0
183 1 3 31.1018 -1029 0 0 0 0 0
184 1 3 31.1018 -1026 0 0 0 0 0
185 1 3 31.1018 -1023 0 0 0 0 0
186 1 3 31.1018 -1020 0 0 0 0 0
187 1 3 31.1018 -1017 0 0 0 0 0
188 1 3 31.1018 -1014 0 0 0 0 0
189 1 3 31.1018 -1011 0 0 0 0 0
190 1 3 31.1018 -1008 0 0 0 0 0
191 1 3 31.1018 -1005 0 0 0 0 0
192 1 3 31.1018 -1002 0 0 0 0 0
193 1 3 31.1018 -999 0 0 0 0 0
194 1 3 31.1018 -996 0 0 0 0 0
195 1 3 31.1018 -993 0 0 0 0 0
196 1 3 31.1018 -990 0 0 0 0 0
197 1 3 31.1018 -987 0 0 0 0 0
198 1 3 31.1018 -984 0 0 0 0 0
199 1 3 31.1018 -981 0 0 0 0 0
200 1 3 31.1018 -978 0 0 0 0 0
201 1 3 31.1018 -975 0 0 0 0 0
202 1 3 31.1018 -972 0 0 0 0 0
203 1 3 31.1018 -969 0 0 0 0 0
204 1 3 31.1018 -966 0 0 0 0 0
205 1 3 31.1018 -963 0 0 0 0 0
206 1 3 31.1018 -960 0 0 0 0 0
207 1 3 31.1018 -957 0 0 0 0 0
208 1 3 31.1018 -954 0 0 0 0 0
209 1 3 31.1018 -951 0 0 0 0 0
210 1 3 31.1018 -948 0 0 0 0 0
211 1 3 31.1018 -945 0 0 0 0 0
212 1 3 31.1018 -942 0 0 0 0 0
213 1 3 31.1018 -939 0 0 0 0 0
214 1 3 31.1018 -936 0 0 0 0 0
215 1 3 31.1018 -933 0 0 0 0 0
216 1 3 31.1018 -930 0 0 0 0 0
217 1 3 31.1018 -927 0 0 0 0 0
218 1 3 31.1018 -924 0 0 0 0 0
219 1 3 31.1018 -921 0 0 0 0 0
220 1 3 31.1018 -918 0 0 0 0 0
221 1 3 31.1018 -915 0 0 0 0 0
222 1 3 31.1018 -912 0 0 0 0 0
223 1 3 31.1018 -909 0 0 0 0 0
224 1 3 31.1018 -906 0 0 0 0 0
225 1 3 31.1018 -903 0 0 0 0 0
226 1 3 31.1018 -900 0 0 0 0 0
227 1 3 31.1018 -897 0 0 0 0 0
228 1 3 31.1018 -894 0 0 0 0 0
229 1 3 31.1018 -891 0 0 0 0 0
230 1 3 31.1018 -888 0 0 0 0 0
231 1 3 31.1018 -885 0 0 0 0 0
232 1 3 31.1018 -882 0 0 0 0 0
233 1 3 31.1018 -879 0 0 0 0 0
234 1 3 31.1018 -876 0 0 0 0 0
235 1 3 31.1018 -873 0 0 0 0 0
236 1 3 31.1018 -870 0 0 0 0 0
237 1 3 31.1018 -867 0 0 0 0 0
238 1 3 31.1018 -864 0 0 0 0 0
239 1 3 31.1018 -861 0 0 0 0 0
240 1 3 31.1018 -858 0 0 0 0 0
241 1 3 31.1018 -855 0 0 0 0 0
242 1 3 31.1018 -852 0 0 0 0 0
243 1 3 31.1018 -849 0 0 0 0 0
244 1 3 31.1018 -846 0 0 0 0 0
245 1 3 31.1018 -843 0 0 0 0 0
246 1 3 31.1018 -840 0 0 0 0 0
247 1 3 31.1018 -837 0 0 0 0 0
248 1 3 31.1018 -834 0 0 0 0 0
249 1 3 31.1018 -831 0 0 0 0 0
250 1 3 31.1018 -828 0 0 0 0 0
251 1 3 31.1018 -825 0 0 0 0 0
252 1 3 31.1018 -822 0 0 0 0 0
253 1 3 31.1018 -819 0 0 0 0 0
254 1 3 31.1018 -816 0 0 0 0 0
255 1 3 31.1018 -813 0 0 0 0 0
256 1 3 31.1018 -810 0 0 0 0 0
257 1 3 31.1018 -807 0 0 0 0 0
258 1 3 31.1018 -804 0 0 0 0 0
259 1 3 31.1018 -801 0 0 0 0 0
260 1 3 31.1018 -798 0 0 0 0 0
261 1 3 31.1018 -795 0 0 0 0 0
262 1 3 31.1018 -792 0 0 0 0 0
263 1 3 31.1018 -789 0 0 0 0 0
1051 2 3 31.1018 -1054.50010136573246 3.23277e-20 2.59757462167562903 0.146037 0 -0.00233169
1052 2 3 31.1018 -1051.50010136573178 3.22354e-20 2.59757462162854269 0.14562 0 -0.00232512
1053 2 3 31.1018 -1048.50010136573133 3.2143e-20 2.59757462158145636 0.145203 0 -0.00231853
1054 2 3 31.1018 -1045.50010136573064 3.20506e-20 2.59757462153437002 0.144786 0 -0.00231197
1055 2 3 31.1018 -1042.50010136572996 3.19583e-20 2.59757462148728369 0.144369 0 -0.0023054
1056 2 3 31.1018 -1039.50010136572951 3.18659e-20 2.59757462144019735 0.143952 0 -0.00229881
1057 2 3 31.1018 -1036.50010136572882 3.17735e-20 2.59757462139311102 0.143534 0 -0.00229225
1058 2 3 31.1018 -1033.50010136572814 3.16812e-20 2.59757462134602468 0.143117 0 -0.00228568
1059 2 3 31.1018 -1030.50010136572769 3.15888e-20 2.59757462129893835 0.1427 0 -0.00227909
1060 2 3 31.1018 -1027.50010136572701 3.14964e-20 2.59757462125185201 0.142283 0 -0.00227253
1061 2 3 31.1018 -1024.50010136572655 3.14041e-20 2.59757462120476568 0.141866 0 -0.00226594
1062 2 3 31.1018 -1021.50010136572587 3.13117e-20 2.59757462115767934 0.141449 0 -0.00225937
1063 2 3 31.1018 -1018.50010136572519 3.12194e-20 2.59757462111059301 0.141032 0 -0.00225281
1064 2 3 31.1018 -1015.50010136572462 3.1127e-20 2.59757462106350667 0.140614 0 -0.00224623
1065 2 3 31.1018 -1012.50010136572405 3.10346e-20 2.59757462101642034 0.140197 0 -0.00223965
1066 2 3 31.1018 -1009.50010136572337 3.09423e-20 2.597574620969334 0.13978 0 -0.00223309
1067 2 3 31.1018 -1006.5001013657228 3.08499e-20 2.59757462092224767 0.139363 0 -0.00222651
1068 2 3 31.1018 -1003.50010136572223 3.07575e-20 2.59757462087516133 0.138946 0 -0.00221993
1069 2 3 31.1018 -1000.50010136572155 3.06652e-20 2.597574620828075 0.138529 0 -0.00221337
1070 2 3 31.1018 -997.50010136572098 3.05728e-20 2.59757462078098866 0.138112 0 -0.00220679
1071 2 3 31.1018 -994.500101365720411 3.04804e-20 2.59757462073390233 0.137694 0 -0.00220022
1072 2 3 31.1018 -991.500101365719843 3.03881e-20 2.59757462068681599 0.137277 0 -0.00219364
1073 2 3 31.1018 -988.500101365719161 3.02957e-20 2.59757462063972966 0.13686 0 -0.00218707
1074 2 3 31.1018 -985.500101365718592 3.02033e-20 2.59757462059264332 0.136443 0 -0.0021805
1075 2 3 31.1018 -982.500101365718024 3.0111e-20 2.59757462054555699 0.136026 0 -0.00217392
1076 2 3 31.1018 -979.500101365717342 3.00186e-20 2.59757462049847065 0.135609 0 -0.00216735
1077 2 3 31.1018 -976.500101365716773 2.99262e-20 2.59757462045138432 0.135192 0 -0.00216078
1078 2 3 31.1018 -973.500101365716205 2.98339e-20 2.59757462040429798 0.134775 0 -0.0021542
1079 2 3 31.1018 -970.500101365715523 2.97415e-20 2.59757462035721165 0.134357 0 -0.00214764
1080 2 3 31.1018 -967.500101365714954 2.96491e-20 2.59757462031012532 0.13394 0 -0.00214106
1081 2 3 31.1018 -964.500101365714386 2.95568e-20 2.59757462026303898 0.133523 0 -0.00213448
1082 2 3 31.1018 -961.500101365713704 2.94644e-20 2.59757462021595265 0.133106 0 -0.00212792
1083 2 3 31.1018 -958.500101365713135 2.93721e-20 2.59757462016886631 0.132689 0 -0.00212134
1084 2 3 31.1018 -955.500101365712567 2.92797e-20 2.59757462012177998 0.132272 0 -0.00211476
1085 2 3 31.1018 -952.500101365711998 2.91873e-20 2.59757462007469364 0.131855 0 -0.00210819
1086 2 3 31.1018 -949.500101365711316 2.9095e-20 2.59757462002760731 0.131437 0 -0.00210162
1087 2 3 31.1018 -946.500101365710748 2.90026e-20 2.59757461998052097 0.13102 0 -0.00209504
1088 2 3 31.1018 -943.500101365710179 2.89102e-20 2.59757461993343464 0.130603 0 -0.00208847
1089 2 3 31.1018 -940.500101365709497 2.88179e-20 2.5975746198863483 0.130186 0 -0.0020819
1090 2 3 31.1018 -937.500101365708929 2.87255e-20 2.59757461983926197 0.129769 0 -0.00207532
1091 2 3 31.1018 -934.50010136570836 2.86331e-20 2.59757461979217563 0.129352 0 -0.00206875
1092 2 3 31.1018 -931.500101365707678 2.85408e-20 2.5975746197450893 0.128935 0 -0.00206218
1093 2 3 31.1018 -928.50010136570711 2.84484e-20 2.59757461969800296 0.128517 0 -0.00205561
1094 2 3 31.1018 -925.500101365706541 2.8356e-20 2.59757461965091663 0.1281 0 -0.00204903
1095 2 3 31.1018 -922.500101365705859 2.82637e-20 2.59757461960383029 0.127683 0 -0.00204247
1096 2 3 31.1018 -919.500101365705291 2.81713e-20 2.59757461955674396 0.127266 0 -0.00203589
1097 2 3 31.1018 -916.500101365704722 2.80789e-20 2.59757461950965762 0.126849 0 -0.00202931
1098 2 3 31.1018 -913.500101365704154 2.79866e-20 2.59757461946257129 0.126432 0 -0.00202274
1099 2 3 31.1018 -910.500101365703472 2.78942e-20 2.59757461941548495 0.126015 0 -0.00201617
1100 2 3 31.1018 -907.500101365702903 2.78018e-20 2.59757461936839862 0.125597 0 -0.00200959
1101 2 3 31.1018 -904.500101365702335 2.77095e-20 2.59757461932131228 0.12518 0 -0.00200302
1102 2 3 31.1018 -901.500101365701653 2.76171e-20 2.59757461927422595 0.124763 0 -0.00199645
1103 2 3 31.1018 -898.500101365701084 2.75248e-20 2.59757461922713961 0.124346 0 -0.00198988
1104 2 3 31.1018 -895.500101365700516 2.74324e-20 2.59757461918005328 0.123929 0 -0.0019833
1105 2 3 31.1018 -892.500101365699834 2.734e-20 2.59757461913296694 0.123512 0 -0.00197673
1106 2 3 31.1018 -889.500101365699265 2.72477e-20 2.59757461908588061 0.123095 0 -0.00197016
1107 2 3 31.1018 -886.500101365698697 2.71553e-20 2.59757461903879427 0.122677 0 -0.00196358
1108 2 3 31.1018 -883.500101365698015 2.70629e-20 2.59757461899170794 0.12226 0 -0.00195702
1109 2 3 31.1018 -880.500101365697446 2.69706e-20 2.59757461894462161 0.121843 0 -0.00195044
1110 2 3 31.1018 -877.500101365696878 2.68782e-20 2.59757461889753527 0.121426 0 -0.00194386
1111 2 3 31.1018 -874.500101365696196 2.67858e-20 2.59757461885044894 0.121009 0 -0.0019373
1112 2 3 31.1018 -871.500101365695627 2.66935e-20 2.5975746188033626 0.120592 0 -0.00193066
1113 2 3 31.1018 -868.500101365695059 2.66011e-20 2.59757461875627627 0.120174 0 -0.00192398
1114 2 3 31.1018 -865.500101365694491 2.65087e-20 2.59757461870918993 0.119757 0 -0.0019173
1115 2 3 31.1018 -862.500101365693808 2.64164e-20 2.5975746186621036 0.11934 0 -0.00191063
1116 2 3 31.1018 -859.50010136569324 2.6324e-20 2.59757461861501726 0.118922 0 -0.00190394
1117 2 3 31.1018 -856.500101365692672 2.62316e-20 2.59757461856793093 0.118505 0 -0.00189726
1118 2 3 31.1018 -853.500101365691989 2.61393e-20 2.59757461852084459 0.118088 0 -0.00189059
1119 2 3 31.1018 -850.500101365691421 2.60469e-20 2.59757461847375826 0.11767 0 -0.00188391
1120 2 3 31.1018 -847.500101365690853 2.59545e-20 2.59757461842667192 0.117253 0 -0.00187722
1121 2 3 31.1018 -844.50010136569017 2.58622e-20 2.59757461837958559 0.116836 0 -0.00187055
1122 2 3 31.1018 -841.500101365689602 2.57698e-20 2.59757461833249925 0.116418 0 -0.00186387
1123 2 3 31.1018 -838.500101365689034 2.56775e-20 2.59757461828541292 0.116001 0 -0.00185719
1124 2 3 31.1018 -835.500101365688352 2.55851e-20 2.59757461823832658 0.115584 0 -0.00185051
1125 2 3 31.1018 -832.500101365687783 2.54927e-20 2.59757461819124025 0.115166 0 -0.00184383
1126 2 3 31.1018 -829.500101365687215 2.54004e-20 2.59757461814415391 0.114749 0 -0.00183715
1127 2 3 31.1018 -826.500101365686646 2.5308e-20 2.59757461809706758 0.114332 0 -0.00183047
1128 2 3 31.1018 -823.500101365685964 2.52156e-20 2.59757461804998124 0.113914 0 -0.00182379
1129 2 3 31.1018 -820.500101365685396 2.51233e-20 2.59757461800289491 0.113497 0 -0.00181711
1130 2 3 31.1018 -817.500101365684827 2.50309e-20 2.59757461795580857 0.11308 0 -0.00181043
1131 2 3 31.1018 -814.500101365684145 2.49385e-20 2.59757461790872224 0.112662 0 -0.00180376
1132 2 3 31.1018 -811.500101365683577 2.48462e-20 2.5975746178616359 0.112245 0 -0.00179707
1133 2 3 31.1018 -808.500101365683008 2.47538e-20 2.59757461781454957 0.111828 0 -0.00179039
1134 2 3 31.1018 -805.500101365682326 2.46614e-20 2.59757461776746323 0.11141 0 -0.00178372
1135 2 3 31.1018 -802.500101365681758 2.45691e-20 2.5975746177203769 0.110993 0 -0.00177704
1136 2 3 31.1018 -799.500101365681189 2.44767e-20 2.59757461767329056 0.110576 0 -0.00177035
1137 2 3 31.1018 -796.500101365680507 2.43843e-20 2.59757461762620423 0.110158 0 -0.00176368
1138 2 3 31.1018 -793.500101365679939 2.4292e-20 2.59757461757911789 0.109741 0 -0.001757
1139 2 3 31.1018 -790.50010136567937 2.41996e-20 2.59757461753203156 0.109324 0 -0.00175032
264 1 3 31.1018 -786 0 0 0 0 0
265 1 3 31.1018 -783 0 0 0 0 0
266 1 3 31.1018 -780 0 0 0 0 0
267 1 3 31.1018 -777 0 0 0 0 0
268 1 3 31.1018 -774 0 0 0 0 0
269 1 3 31.1018 -771 0 0 0 0 0
270 1 3 31.1018 -768 0 0 0 0 0
271 1 3 31.1018 -765 0 0 0 0 0
272 1 3 31.1018 -762 0 0 0 0 0
273 1 3 31.1018 -759 0 0 0 0 0
274 1 3 31.1018 -756 0 0 0 0 0
275 1 3 31.1018 -753 0 0 0 0 0
276 1 3 31.1018 -750 0 0 0 0 0
277 1 3 31.1018 -747 0 0 0 0 0
278 1 3 31.1018 -744 0 0 0 0 0
279 1 3 31.1018 -741 0 0 0 0 0
280 1 3 31.1018 -738 0 0 0 0 0
281 1 3 31.1018 -735 0 0 0 0 0
282 1 3 31.1018 -732 0 0 0 0 0
283 1 3 31.1018 -729 0 0 0 0 0
284 1 3 31.1018 -726 0 0 0 0 0
285 1 3 31.1018 -723 0 0 0 0 0
286 1 3 31.1018 -720 0 0 0 0 0
287 1 3 31.1018 -717 0 0 0 0 0
288 1 3 31.1018 -714 0 0 0 0 0
289 1 3 31.1018 -711 0 0 0 0 0
290 1 3 31.1018 -708 0 0 0 0 0
291 1 3 31.1018 -705 0 0 0 0 0
292 1 3 31.1018 -702 0 0 0 0 0
293 1 3 31.1018 -699 0 0 0 0 0
294 1 3 31.1018 -696 0 0 0 0 0
295 1 3 31.1018 -693 0 0 0 0 0
296 1 3 31.1018 -690 0 0 0 0 0
297 1 3 31.1018 -687 0 0 0 0 0
298 1 3 31.1018 -684 0 0 0 0 0
299 1 3 31.1018 -681 0 0 0 0 0
300 1 3 31.1018 -678 0 0 0 0 0
301 1 3 31.1018 -675 0 0 0 0 0
302 1 3 31.1018 -672 0 0 0 0 0
303 1 3 31.1018 -669 0 0 0 0 0
304 1 3 31.1018 -666 0 0 0 0 0
305 1 3 31.1018 -663 0 0 0 0 0
306 1 3 31.1018 -660 0 0 0 0 0
307 1 3 31.1018 -657 0 0 0 0 0
308 1 3 31.1018 -654 0 0 0 0 0
309 1 3 31.1018 -651 0 0 0 0 0
310 1 3 31.1018 -648 0 0 0 0 0
311 1 3 31.1018 -645 0 0 0 0 0
312 1 3 31.1018 -642 0 0 0 0 0
313 1 3 31.1018 -639 0 0 0 0 0
314 1 3 31.1018 -636 0 0 0 0 0
315 1 3 31.1018 -633 0 0 0 0 0
316 1 3 31.1018 -630 0 0 0 0 0
317 1 3 31.1018 -627 0 0 0 0 0
318 1 3 31.1018 -624 0 0 0 0 0
319 1 3 31.1018 -621 0 0 0 0 0
320 1 3 31.1018 -618 0 0 0 0 0
321 1 3 31.1018 -615 0 0 0 0 0
322 1 3 31.1018 -612 0 0 0 0 0
323 1 3 31.1018 -609 0 0 0 0 0
324 1 3 31.1018 -606 0 0 0 0 0
325 1 3 31.1018 -603 0 0 0 0 0
326 1 3 31.1018 -600 0 0 0 0 0
327 1 3 31.1018 -597 0 0 0 0 0
328 1 3 31.1018 -594 0 0 0 0 0
329 1 3 31.1018 -591 0 0 0 0 0
330 1 3 31.1018 -588 0 0 0 0 0
331 1 3 31.1018 -585 0 0 0 0 0
332 1 3 31.1018 -582 0 0 0 0 0
333 1 3 31.1018 -579 0 0 0 0 0
334 1 3 31.1018 -576 0 0 0 0 0
335 1 3 31.1018 -573 0 0 0 0 0
336 1 3 31.1018 -570 0 0 0 0 0
337 1 3 31.1018 -567 0 0 0 0 0
338 1 3 31.1018 -564 0 0 0 0 0
339 1 3 31.1018 -561 0 0 0 0 0
340 1 3 31.1018 -558 0 0 0 0 0
341 1 3 31.1018 -555 0 0 0 0 0
342 1 3 31.1018 -552 0 0 0 0 0
343 1 3 31.1018 -549 0 0 0 0 0
344 1 3 31.1018 -546 0 0 0 0 0
345 1 3 31.1018 -543 0 0 0 0 0
346 1 3 31.1018 -540 0 0 0 0 0
347 1 3 31.1018 -537 0 0 0 0 0
348 1 3 31.1018 -534 0 0 0 0 0
349 1 3 31.1018 -531 0 0 0 0 0
350 1 3 31.1018 -528 0 0 0 0 0
351 1 3 31.1018 -525 0 0 0 0 0
352 1 3 31.1018 -522 0 0 0 0 0
353 1 3 31.1018 -519 0 0 0 0 0
354 1 3 31.1018 -516 0 0 0 0 0
355 1 3 31.1018 -513 0 0 0 0 0
356 1 3 31.1018 -510 0 0 0 0 0
357 1 3 31.1018 -507 0 0 0 0 0
358 1 3 31.1018 -504 0 0 0 0 0
359 1 3 31.1018 -501 0 0 0 0 0
360 1 3 31.1018 -498 0 0 0 0 0
361 1 3 31.1018 -495 0 0 0 0 0
362 1 3 31.1018 -492 0 0 0 0 0
363 1 3 31.1018 -489 0 0 0 0 0
364 1 3 31.1018 -486 0 0 0 0 0
365 1 3 31.1018 -483 0 0 0 0 0
366 1 3 31.1018 -480 0 0 0 0 0
367 1 3 31.1018 -477 0 0 0 0 0
368 1 3 31.1018 -474 0 0 0 0 0
369 1 3 31.1018 -471 0 0 0 0 0
370 1 3 31.1018 -468 0 0 0 0 0
371 1 3 31.1018 -465 0 0 0 0 0
372 1 3 31.1018 -462 0 0 0 0 0
373 1 3 31.1018 -459 0 0 0 0 0
374 1 3 31.1018 -456 0 0 0 0 0
375 1 3 31.1018 -453 0 0 0 0 0
376 1 3 31.1018 -450 0 0 0 0 0
377 1 3 31.1018 -447 0 0 0 0 0
378 1 3 31.1018 -444 0 0 0 0 0
379 1 3 31.1018 -441 0 0 0 0 0
380 1 3 31.1018 -438 0 0 0 0 0
381 1 3 31.1018 -435 0 0 0 0 0
382 1 3 31.1018 -432 0 0 0 0 0
383 1 3 31.1018 -429 0 0 0 0 0
384 1 3 31.1018 -426 0 0 0 0 0
385 1 3 31.1018 -423 0 0 0 0 0
386 1 3 31.1018 -420 0 0 0 0 0
387 1 3 31.1018 -417 0 0 0 0 0
388 1 3 31.1018 -414 0 0 0 0 0
389 1 3 31.1018 -411 0 0 0 0 0
390 1 3 31.1018 -408 0 0 0 0 0
391 1 3 31.1018 -405 0 0 0 0 0
392 1 3 31.1018 -402 0 0 0 0 0
393 1 3 31.1018 -399 0 0 0 0 0
394 1 3 31.1018 -396 0 0 0 0 0
395 1 3 31.1018 -393 0 0 0 0 0
396 1 3 31.1018 -390 0 0 0 0 0
397 1 3 31.1018 -387 0 0 0 0 0
398 1 3 31.1018 -384 0 0 0 0 0
399 1 3 31.1018 -381 0 0 0 0 0
400 1 3 31.1018 -378 0 0 0 0 0
401 1 3 31.1018 -375 0 0 0 0 0
402 1 3 31.1018 -372 0 0 0 0 0
403 1 3 31.1018 -369 0 0 0 0 0
404 1 3 31.1018 -366 0 0 0 0 0
405 1 3 31.1018 -363 0 0 0 0 0
406 1 3 31.1018 -360 0 0 0 0 0
407 1 3 31.1018 -357 0 0 0 0 0
408 1 3 31.1018 -354 0 0 0 0 0
409 1 3 31.1018 -351 0 0 0 0 0
410 1 3 31.1018 -348 0 0 0 0 0
411 1 3 31.1018 -345 0 0 0 0 0
412 1 3 31.1018 -342 0 0 0 0 0
413 1 3 31.1018 -339 0 0 0 0 0
414 1 3 31.1018 -336 0 0 0 0 0
415 1 3 31.1018 -333 0 0 0 0 0
416 1 3 31.1018 -330 0 0 0 0 0
417 1 3 31.1018 -327 0 0 0 0 0
418 1 3 31.1018 -324 0 0 0 0 0
419 1 3 31.1018 -321 0 0 0 0 0
420 1 3 31.1018 -318 0 0 0 0 0
421 1 3 31.1018 -315 0 0 0 0 0
422 1 3 31.1018 -312 0 0 0 0 0
423 1 3 31.1018 -309 0 0 0 0 0
424 1 3 31.1018 -306 0 0 0 0 0
425 1 3 31.1018 -303 0 0 0 0 0
426 1 3 31.1018 -300 0 0 0 0 0
427 1 3 31.1018 -297 0 0 0 0 0
428 1 3 31.1018 -294 0 0 0 0 0
429 1 3 31.1018 -291 0 0 0 0 0
430 1 3 31.1018 -288 0 0 0 0 0
431 1 3 31.1018 -285 0 0 0 0 0
432 1 3 31.1018 -282 0 0 0 0 0
433 1 3 31.1018 -279 0 0 0 0 0
434 1 3 31.1018 -276 0 0 0 0 0
435 1 3 31.1018 -273 0 0 0 0 0
436 1 3 31.1018 -270 0 0 0 0 0
437 1 3 31.1018 -267 0 0 0 0 0
438 1 3 31.1018 -264 0 0 0 0 0
439 1 3 31.1018 -261 0 0 0 0 0
440 1 3 31.1018 -258 0 0 0 0 0
441 1 3 31.1018 -255 0 0 0 0 0
442 1 3 31.1018 -252 0 0 0 0 0
443 1 3 31.1018 -249 0 0 0 0 0
444 1 3 31.1018 -246 0 0 0 0 0
445 1 3 31.1018 -243 0 0 0 0 0
446 1 3 31.1018 -240 0 0 0 0 0
447 1 3 31.1018 -237 0 0 0 0 0
448 1 3 31.1018 -234 0 0 0 0 0
449 1 3 31.1018 -231 0 0 0 0 0
450 1 3 31.1018 -228 0 0 0 0 0
451 1 3 31.1018 -225 0 0 0 0 0
452 1 3 31.1018 -222 0 0 0 0 0
453 1 3 31.1018 -219 0 0 0 0 0
454 1 3 31.1018 -216 0 0 0 0 0
455 1 3 31.1018 -213 0 0 0 0 0
456 1 3 31.1018 -210 0 0 0 0 0
457 1 3 31.1018 -207 0 0 0 0 0
458 1 3 31.1018 -204 0 0 0 0 0
459 1 3 31.1018 -201 0 0 0 0 0
460 1 3 31.1018 -198 0 0 0 0 0
461 1 3 31.1018 -195 0 0 0 0 0
462 1 3 31.1018 -192 0 0 0 0 0
463 1 3 31.1018 -189 0 0 0 0 0
464 1 3 31.1018 -186 0 0 0 0 0
465 1 3 31.1018 -183 0 0 0 0 0
466 1 3 31.1018 -180 0 0 0 0 0
467 1 3 31.1018 -177 0 0 0 0 0
468 1 3 31.1018 -174 0 0 0 0 0
469 1 3 31.1018 -171 0 0 0 0 0
470 1 3 31.1018 -168 0 0 0 0 0
471 1 3 31.1018 -165 0 0 0 0 0
472 1 3 31.1018 -162 0 0 0 0 0
473 1 3 31.1018 -159 0 0 0 0 0
474 1 3 31.1018 -156 0 0 0 0 0
475 1 3 31.1018 -153 0 0 0 0 0
476 1 3 31.1018 -150 0 0 0 0 0
477 1 3 31.1018 -147 0 0 0 0 0
478 1 3 31.1018 -144 0 0 0 0 0
479 1 3 31.1018 -141 0 0 0 0 0
480 1 3 31.1018 -138 0 0 0 0 0
481 1 3 31.1018 -135 0 0 0 0 0
482 1 3 31.1018 -132 0 0 0 0 0
483 1 3 31.1018 -129 0 0 0 0 0
484 1 3 31.1018 -126 0 0 0 0 0
485 1 3 31.1018 -123 0 0 0 0 0
486 1 3 31.1018 -120 0 0 0 0 0
487 1 3 31.1018 -117 0 0 0 0 0
488 1 3 31.1018 -114 0 0 0 0 0
489 1 3 31.1018 -111 0 0 0 0 0
490 1 3 31.1018 -108 0 0 0 0 0
491 1 3 31.1018 -105 0 0 0 0 0
492 1 3 31.1018 -102 0 0 0 0 0
493 1 3 31.1018 -99 0 0 0 0 0
494 1 3 31.1018 -96 0 0 0 0 0
495 1 3 31.1018 -93 0 0 0 0 0
496 1 3 31.1018 -90 0 0 0 0 0
497 1 3 31.1018 -87 0 0 0 0 0
498 1 3 31.1018 -84 0 0 0 0 0
499 1 3 31.1018 -81 0 0 0 0 0
500 1 3 31.1018 -78 0 0 0 0 0
501 1 3 31.1018 -75 0 0 0 0 0
502 1 3 31.1018 -72 0 0 0 0 0
503 1 3 31.1018 -69 0 0 0 0 0
504 1 3 31.1018 -66 0 0 0 0 0
505 1 3 31.1018 -63 0 0 0 0 0
506 1 3 31.1018 -60 0 0 0 0 0
507 1 3 31.1018 -57 0 0 0 0 0
508 1 3 31.1018 -54 0 0 0 0 0
509 1 3 31.1018 -51 0 0 0 0 0
510 1 3 31.1018 -48 0 0 0 0 0
511 1 3 31.1018 -45 0 0 0 0 0
512 1 3 31.1018 -42 0 0 0 0 0
513 1 3 31.1018 -39 0 0 0 0 0
514 1 3 31.1018 -36 0 0 0 0 0
515 1 3 31.1018 -33 0 0 0 0 0
516 1 3 31.1018 -30 0 0 0 0 0
517 1 3 31.1018 -27 0 0 0 0 0
518 1 3 31.1018 -24 0 0 0 0 0
519 1 3 31.1018 -21 0 0 0 0 0
520 1 3 31.1018 -18 0 0 0 0 0
521 1 3 31.1018 -15 0 0 0 0 0
522 1 3 31.1018 -12 0 0 0 0 0
523 1 3 31.1018 -9 0 0 0 0 0
524 1 3 31.1018 -6 0 0 0 0 0
525 1 3 31.1018 -3 0 0 0 0 0
1140 2 3 31.1018 -787.500101365678802 2.41073e-20 2.59757461748494523 0.108907 0 -0.00174364
1141 2 3 31.1018 -784.50010136567812 2.40149e-20 2.59757461743785889 0.108489 0 -0.00173696
1142 2 3 31.1018 -781.500101365677551 2.39225e-20 2.59757461739077256 0.108072 0 -0.00173028
1143 2 3 31.1018 -778.500101365676983 2.38302e-20 2.59757461734368622 0.107655 0 -0.0017236
1144 2 3 31.1018 -775.500101365676301 2.37378e-20 2.59757461729659989 0.107237 0 -0.00171693
1145 2 3 31.1018 -772.500101365675732 2.36454e-20 2.59757461724951355 0.10682 0 -0.00171024
1146 2 3 31.1018 -769.500101365675164 2.35531e-20 2.59757461720242722 0.106403 0 -0.00170356
1147 2 3 31.1018 -766.500101365674482 2.34607e-20 2.59757461715534088 0.105985 0 -0.00169689
1148 2 3 31.1018 -763.500101365673913 2.33683e-20 2.59757461710825455 0.105568 0 -0.00169021
1149 2 3 31.1018 -760.500101365673345 2.3276e-20 2.59757461706116821 0.105151 0 -0.00168352
1150 2 3 31.1018 -757.500101365672663 2.31836e-20 2.59757461701408188 0.104733 0 -0.00167685
1151 2 3 31.1018 -754.500101365672094 2.30912e-20 2.59757461696699554 0.104316 0 -0.00167017
1152 2 3 31.1018 -751.500101365671526 2.29989e-20 2.59757461691990921 0.103899 0 -0.00166349
1153 2 3 31.1018 -748.500101365670957 2.29065e-20 2.59757461687282287 0.103481 0 -0.0016568
1154 2 3 31.1018 -745.500101365670275 2.28141e-20 2.59757461682573654 0.103064 0 -0.00165013
1155 2 3 31.1018 -742.500101365669707 2.27218e-20 2.5975746167786502 0.102647 0 -0.00164345
1156 2 3 31.1018 -739.500101365669138 2.26294e-20 2.59757461673156387 0.102229 0 -0.00163677
1157 2 3 31.1018 -736.500101365668456 2.2537e-20 2.59757461668447753 0.101812 0 -0.0016301
1158 2 3 31.1018 -733.500101365667888 2.24447e-20 2.5975746166373912 0.101395 0 -0.00162341
1159 2 3 31.1018 -730.500101365667319 2.23523e-20 2.59757461659030486 0.100977 0 -0.00161673
1160 2 3 31.1018 -727.500101365666637 2.226e-20 2.59757461654321853 0.10056 0 -0.00161006
1161 2 3 31.1018 -724.500101365666069 2.21676e-20 2.59757461649613219 0.100143 0 -0.00160338
1162 2 3 31.1018 -721.5001013656655 2.20752e-20 2.59757461644904586 0.0997254 0 -0.0015967
1163 2 3 31.1018 -718.500101365664818 2.19829e-20 2.59757461640195952 0.099308 0 -0.00159002
1164 2 3 31.1018 -715.50010136566425 2.18905e-20 2.59757461635487319 0.0988907 0 -0.00158334
1165 2 3 31.1018 -712.500101365663681 2.17981e-20 2.59757461630778685 0.0984735 0 -0.00157666
1166 2 3 31.1018 -709.500101365663113 2.17058e-20 2.59757461626070052 0.0980562 0 -0.00156998
1167 2 3 31.1018 -706.500101365662431 2.16134e-20 2.59757461621361418 0.0976388 0 -0.00156331
1168 2 3 31.1018 -703.500101365661862 2.1521e-20 2.59757461616652785 0.0972215 0 -0.00155662
1169 2 3 31.1018 -700.500101365661294 2.14287e-20 2.59757461611944152 0.0968042 0 -0.00154994
1170 2 3 31.1018 -697.500101365660612 2.13363e-20 2.59757461607235518 0.0963868 0 -0.00154327
1171 2 3 31.1018 -694.500101365660043 2.12439e-20 2.59757461602526885 0.0959695 0 -0.00153659
1172 2 3 31.1018 -691.500101365659475 2.11516e-20 2.59757461597818251 0.0955522 0 -0.00152991
1173 2 3 31.1018 -688.500101365658793 2.10592e-20 2.59757461593109618 0.0951348 0 -0.00152323
1174 2 3 31.1018 -685.500101365658224 2.09668e-20 2.59757461588400984 0.0947175 0 -0.00151655
1175 2 3 31.1018 -682.500101365657656 2.08745e-20 2.59757461583692351 0.0943002 0 -0.00150987
1176 2 3 31.1018 -679.500101365656974 2.07821e-20 2.59757461578983717 0.0938828 0 -0.0015032
1177 2 3 31.1018 -676.500101365656406 2.06897e-20 2.59757461574275084 0.0934655 0 -0.00149652
1178 2 3 31.1018 -673.500101365655837 2.05974e-20 2.5975746156956645 0.0930482 0 -0.00148983
1179 2 3 31.1018 -670.500101365655269 2.0505e-20 2.59757461564857817 0.0926309 0 -0.00148315
1180 2 3 31.1018 -667.500101365654587 2.04127e-20 2.59757461560149183 0.0922135 0 -0.00147648
1181 2 3 31.1018 -664.500101365654018 2.03203e-20 2.5975746155544055 0.0917962 0 -0.0014698
1182 2 3 31.1018 -661.50010136565345 2.02279e-20 2.59757461550731916 0.0913789 0 -0.00146311
1183 2 3 31.1018 -658.500101365652768 2.01356e-20 2.59757461546023283 0.0909615 0 -0.00145644
1184 2 3 31.1018 -655.500101365652199 2.00432e-20 2.59757461541314649 0.0905442 0 -0.00144976
1185 2 3 31.1018 -652.500101365651631 1.99508e-20 2.59757461536606016 0.0901269 0 -0.00144308
1186 2 3 31.1018 -649.500101365650949 1.98585e-20 2.59757461531897382 0.0897095 0 -0.00143641
1187 2 3 31.1018 -646.50010136565038 1.97661e-20 2.59757461527188749 0.0892922 0 -0.00142973
1188 2 3 31.1018 -643.500101365649812 1.96737e-20 2.59757461522480115 0.0888749 0 -0.00142304
1189 2 3 31.1018 -640.50010136564913 1.95814e-20 2.59757461517771482 0.0884575 0 -0.00141637
1190 2 3 31.1018 -637.500101365648561 1.9489e-20 2.59757461513062848 0.0880403 0 -0.00140969
1191 2 3 31.1018 -634.500101365647993 1.93966e-20 2.59757461508354215 0.087623 0 -0.00140301
1192 2 3 31.1018 -631.500101365647311 1.93043e-20 2.59757461503645581 0.0872056 0 -0.00139634
1193 2 3 31.1018 -628.500101365646742 1.92119e-20 2.59757461498936948 0.0867883 0 -0.00138966
1194 2 3 31.1018 -625.500101365646174 1.91195e-20 2.59757461494228314 0.086371 0 -0.00138297