ITEM: TIMESTEP
3300000
ITEM: NUMBER OF ATOMS
2501
ITEM: BOX BOUNDS pp pp pp
-2.2500000000000000e+03 2.2500000000000000e+03
-1.0000000000000000e+02 1.0000000000000000e+02
-1.0000000000000000e+02 1.0000000000000000e+02
ITEM: ATOMS id type diameter mass xu yu zu fx fy fz
1 1 3 31.1018 -2250 0 0 0 0 0
2 1 3 31.1018 -2247 0 0 0 0 0
3 1 3 31.1018 -2244 0 0 0 0 0
4 1 3 31.1018 -2241 0 0 0 0 0
5 1 3 31.1018 -2238 0 0 0 0 0
6 1 3 31.1018 -2235 0 0 0 0 0
7 1 3 31.1018 -2232 0 0 0 0 0
8 1 3 31.1018 -2229 0 0 0 0 0
9 1 3 31.1018 -2226 0 0 0 0 0
10 1 3 31.1018 -2223 0 0 0 0 0
11 1 3 31.1018 -2220 0 0 0 0 0
12 1 3 31.1018 -2217 0 0 0 0 0
13 1 3 31.1018 -2214 0 0 0 0 0
14 1 3 31.1018 -2211 0 0 0 0 0
15 1 3 31.1018 -2208 0 0 0 0 0
16 1 3 31.1018 -2205 0 0 0 0 0
17 1 3 31.1018 -2202 0 0 0 0 0
18 1 3 31.1018 -2199 0 0 0 0 0
19 1 3 31.1018 -2196 0 0 0 0 0
20 1 3 31.1018 -2193 0 0 0 0 0
21 1 3 31.1018 -2190 0 0 0 0 0
22 1 3 31.1018 -2187 0 0 0 0 0
23 1 3 31.1018 -2184 0 0 0 0 0
24 1 3 31.1018 -2181 0 0 0 0 0
25 1 3 31.1018 -2178 0 0 0 0 0
26 1 3 31.1018 -2175 0 0 0 0 0
27 1 3 31.1018 -2172 0 0 0 0 0
28 1 3 31.1018 -2169 0 0 0 0 0
29 1 3 31.1018 -2166 0 0 0 0 0
30 1 3 31.1018 -2163 0 0 0 0 0
31 1 3 31.1018 -2160 0 0 0 0 0
32 1 3 31.1018 -2157 0 0 0 0 0
33 1 3 31.1018 -2154 0 0 0 0 0
34 1 3 31.1018 -2151 0 0 0 0 0
35 1 3 31.1018 -2148 0 0 0 0 0
36 1 3 31.1018 -2145 0 0 0 0 0
37 1 3 31.1018 -2142 0 0 0 0 0
38 1 3 31.1018 -2139 0 0 0 0 0
39 1 3 31.1018 -2136 0 0 0 0 0
40 1 3 31.1018 -2133 0 0 0 0 0
41 1 3 31.1018 -2130 0 0 0 0 0
42 1 3 31.1018 -2127 0 0 0 0 0
43 1 3 31.1018 -2124 0 0 0 0 0
44 1 3 31.1018 -2121 0 0 0 0 0
45 1 3 31.1018 -2118 0 0 0 0 0
46 1 3 31.1018 -2115 0 0 0 0 0
47 1 3 31.1018 -2112 0 0 0 0 0
48 1 3 31.1018 -2109 0 0 0 0 0
49 1 3 31.1018 -2106 0 0 0 0 0
50 1 3 31.1018 -2103 0 0 0 0 0
51 1 3 31.1018 -2100 0 0 0 0 0
52 1 3 31.1018 -2097 0 0 0 0 0
53 1 3 31.1018 -2094 0 0 0 0 0
54 1 3 31.1018 -2091 0 0 0 0 0
55 1 3 31.1018 -2088 0 0 0 0 0
56 1 3 31.1018 -2085 0 0 0 0 0
57 1 3 31.1018 -2082 0 0 0 0 0
58 1 3 31.1018 -2079 0 0 0 0 0
59 1 3 31.1018 -2076 0 0 0 0 0
60 1 3 31.1018 -2073 0 0 0 0 0
61 1 3 31.1018 -2070 0 0 0 0 0
62 1 3 31.1018 -2067 0 0 0 0 0
63 1 3 31.1018 -2064 0 0 0 0 0
64 1 3 31.1018 -2061 0 0 0 0 0
65 1 3 31.1018 -2058 0 0 0 0 0
66 1 3 31.1018 -2055 0 0 0 0 0
67 1 3 31.1018 -2052 0 0 0 0 0
68 1 3 31.1018 -2049 0 0 0 0 0
69 1 3 31.1018 -2046 0 0 0 0 0
70 1 3 31.1018 -2043 0 0 0 0 0
71 1 3 31.1018 -2040 0 0 0 0 0
72 1 3 31.1018 -2037 0 0 0 0 0
73 1 3 31.1018 -2034 0 0 0 0 0
74 1 3 31.1018 -2031 0 0 0 0 0
75 1 3 31.1018 -2028 0 0 0 0 0
76 1 3 31.1018 -2025 0 0 0 0 0
77 1 3 31.1018 -2022 0 0 0 0 0
78 1 3 31.1018 -2019 0 0 0 0 0
79 1 3 31.1018 -2016 0 0 0 0 0
80 1 3 31.1018 -2013 0 0 0 0 0
81 1 3 31.1018 -2010 0 0 0 0 0
82 1 3 31.1018 -2007 0 0 0 0 0
83 1 3 31.1018 -2004 0 0 0 0 0
84 1 3 31.1018 -2001 0 0 0 0 0
85 1 3 31.1018 -1998 0 0 0 0 0
86 1 3 31.1018 -1995 0 0 0 0 0
87 1 3 31.1018 -1992 0 0 0 0 0
88 1 3 31.1018 -1989 0 0 0 0 0
89 1 3 31.1018 -1986 0 0 0 0 0
90 1 3 31.1018 -1983 0 0 0 0 0
91 1 3 31.1018 -1980 0 0 0 0 0
92 1 3 31.1018 -1977 0 0 0 0 0
93 1 3 31.1018 -1974 0 0 0 0 0
94 1 3 31.1018 -1971 0 0 0 0 0
95 1 3 31.1018 -1968 0 0 0 0 0
96 1 3 31.1018 -1965 0 0 0 0 0
97 1 3 31.1018 -1962 0 0 0 0 0
98 1 3 31.1018 -1959 0 0 0 0 0
99 1 3 31.1018 -1956 0 0 0 0 0
100 1 3 31.1018 -1953 0 0 0 0 0
101 1 3 31.1018 -1950 0 0 0 0 0
102 1 3 31.1018 -1947 0 0 0 0 0
103 1 3 31.1018 -1944 0 0 0 0 0
104 1 3 31.1018 -1941 0 0 0 0 0
105 1 3 31.1018 -1938 0 0 0 0 0
106 1 3 31.1018 -1935 0 0 0 0 0
107 1 3 31.1018 -1932 0 0 0 0 0
108 1 3 31.1018 -1929 0 0 0 0 0
109 1 3 31.1018 -1926 0 0 0 0 0
110 1 3 31.1018 -1923 0 0 0 0 0
111 1 3 31.1018 -1920 0 0 0 0 0
112 1 3 31.1018 -1917 0 0 0 0 0
113 1 3 31.1018 -1914 0 0 0 0 0
114 1 3 31.1018 -1911 0 0 0 0 0
115 1 3 31.1018 -1908 0 0 0 0 0
116 1 3 31.1018 -1905 0 0 0 0 0
117 1 3 31.1018 -1902 0 0 0 0 0
118 1 3 31.1018 -1899 0 0 0 0 0
119 1 3 31.1018 -1896 0 0 0 0 0
120 1 3 31.1018 -1893 0 0 0 0 0
121 1 3 31.1018 -1890 0 0 0 0 0
122 1 3 31.1018 -1887 0 0 0 0 0
123 1 3 31.1018 -1884 0 0 0 0 0
124 1 3 31.1018 -1881 0 0 0 0 0
125 1 3 31.1018 -1878 0 0 0 0 0
126 1 3 31.1018 -1875 0 0 0 0 0
127 1 3 31.1018 -1872 0 0 0 0 0
128 1 3 31.1018 -1869 0 0 0 0 0
129 1 3 31.1018 -1866 0 0 0 0 0
130 1 3 31.1018 -1863 0 0 0 0 0
131 1 3 31.1018 -1860 0 0 0 0 0
132 1 3 31.1018 -1857 0 0 0 0 0
133 1 3 31.1018 -1854 0 0 0 0 0
134 1 3 31.1018 -1851 0 0 0 0 0
135 1 3 31.1018 -1848 0 0 0 0 0
136 1 3 31.1018 -1845 0 0 0 0 0
137 1 3 31.1018 -1842 0 0 0 0 0
138 1 3 31.1018 -1839 0 0 0 0 0
139 1 3 31.1018 -1836 0 0 0 0 0
140 1 3 31.1018 -1833 0 0 0 0 0
141 1 3 31.1018 -1830 0 0 0 0 0
142 1 3 31.1018 -1827 0 0 0 0 0
143 1 3 31.1018 -1824 0 0 0 0 0
144 1 3 31.1018 -1821 0 0 0 0 0
145 1 3 31.1018 -1818 0 0 0 0 0
146 1 3 31.1018 -1815 0 0 0 0 0
147 1 3 31.1018 -1812 0 0 0 0 0
148 1 3 31.1018 -1809 0 0 0 0 0
149 1 3 31.1018 -1806 0 0 0 0 0
150 1 3 31.1018 -1803 0 0 0 0 0
151 1 3 31.1018 -1800 0 0 0 0 0
152 1 3 31.1018 -1797 0 0 0 0 0
153 1 3 31.1018 -1794 0 0 0 0 0
154 1 3 31.1018 -1791 0 0 0 0 0
155 1 3 31.1018 -1788 0 0 0 0 0
156 1 3 31.1018 -1785 0 0 0 0 0
157 1 3 31.1018 -1782 0 0 0 0 0
158 1 3 31.1018 -1779 0 0 0 0 0
159 1 3 31.1018 -1776 0 0 0 0 0
160 1 3 31.1018 -1773 0 0 0 0 0
161 1 3 31.1018 -1770 0 0 0 0 0
162 1 3 31.1018 -1767 0 0 0 0 0
163 1 3 31.1018 -1764 0 0 0 0 0
164 1 3 31.1018 -1761 0 0 0 0 0
165 1 3 31.1018 -1758 0 0 0 0 0
166 1 3 31.1018 -1755 0 0 0 0 0
167 1 3 31.1018 -1752 0 0 0 0 0
168 1 3 31.1018 -1749 0 0 0 0 0
169 1 3 31.1018 -1746 0 0 0 0 0
170 1 3 31.1018 -1743 0 0 0 0 0
171 1 3 31.1018 -1740 0 0 0 0 0
172 1 3 31.1018 -1737 0 0 0 0 0
173 1 3 31.1018 -1734 0 0 0 0 0
174 1 3 31.1018 -1731 0 0 0 0 0
175 1 3 31.1018 -1728 0 0 0 0 0
176 1 3 31.1018 -1725 0 0 0 0 0
177 1 3 31.1018 -1722 0 0 0 0 0
178 1 3 31.1018 -1719 0 0 0 0 0
179 1 3 31.1018 -1716 0 0 0 0 0
180 1 3 31.1018 -1713 0 0 0 0 0
181 1 3 31.1018 -1710 0 0 0 0 0
182 1 3 31.1018 -1707 0 0 0 0 0
183 1 3 31.1018 -1704 0 0 0 0 0
184 1 3 31.1018 -1701 0 0 0 0 0
185 1 3 31.1018 -1698 0 0 0 0 0
186 1 3 31.1018 -1695 0 0 0 0 0
187 1 3 31.1018 -1692 0 0 0 0 0
188 1 3 31.1018 -1689 0 0 0 0 0
189 1 3 31.1018 -1686 0 0 0 0 0
190 1 3 31.1018 -1683 0 0 0 0 0
191 1 3 31.1018 -1680 0 0 0 0 0
192 1 3 31.1018 -1677 0 0 0 0 0
193 1 3 31.1018 -1674 0 0 0 0 0
194 1 3 31.1018 -1671 0 0 0 0 0
195 1 3 31.1018 -1668 0 0 0 0 0
196 1 3 31.1018 -1665 0 0 0 0 0
197 1 3 31.1018 -1662 0 0 0 0 0
198 1 3 31.1018 -1659 0 0 0 0 0
199 1 3 31.1018 -1656 0 0 0 0 0
200 1 3 31.1018 -1653 0 0 0 0 0
201 1 3 31.1018 -1650 0 0 0 0 0
202 1 3 31.1018 -1647 0 0 0 0 0
203 1 3 31.1018 -1644 0 0 0 0 0
204 1 3 31.1018 -1641 0 0 0 0 0
205 1 3 31.1018 -1638 0 0 0 0 0
206 1 3 31.1018 -1635 0 0 0 0 0
207 1 3 31.1018 -1632 0 0 0 0 0
208 1 3 31.1018 -1629 0 0 0 0 0
209 1 3 31.1018 -1626 0 0 0 0 0
210 1 3 31.1018 -1623 0 0 0 0 0
211 1 3 31.1018 -1620 0 0 0 0 0
212 1 3 31.1018 -1617 0 0 0 0 0
213 1 3 31.1018 -1614 0 0 0 0 0
214 1 3 31.1018 -1611 0 0 0 0 0
215 1 3 31.1018 -1608 0 0 0 0 0
216 1 3 31.1018 -1605 0 0 0 0 0
217 1 3 31.1018 -1602 0 0 0 0 0
218 1 3 31.1018 -1599 0 0 0 0 0
219 1 3 31.1018 -1596 0 0 0 0 0
220 1 3 31.1018 -1593 0 0 0 0 0
221 1 3 31.1018 -1590 0 0 0 0 0
222 1 3 31.1018 -1587 0 0 0 0 0
223 1 3 31.1018 -1584 0 0 0 0 0
224 1 3 31.1018 -1581 0 0 0 0 0
225 1 3 31.1018 -1578 0 0 0 0 0
226 1 3 31.1018 -1575 0 0 0 0 0
227 1 3 31.1018 -1572 0 0 0 0 0
228 1 3 31.1018 -1569 0 0 0 0 0
229 1 3 31.1018 -1566 0 0 0 0 0
230 1 3 31.1018 -1563 0 0 0 0 0
231 1 3 31.1018 -1560 0 0 0 0 0
232 1 3 31.1018 -1557 0 0 0 0 0
233 1 3 31.1018 -1554 0 0 0 0 0
234 1 3 31.1018 -1551 0 0 0 0 0
235 1 3 31.1018 -1548 0 0 0 0 0
236 1 3 31.1018 -1545 0 0 0 0 0
237 1 3 31.1018 -1542 0 0 0 0 0
238 1 3 31.1018 -1539 0 0 0 0 0
239 1 3 31.1018 -1536 0 0 0 0 0
240 1 3 31.1018 -1533 0 0 0 0 0
241 1 3 31.1018 -1530 0 0 0 0 0
242 1 3 31.1018 -1527 0 0 0 0 0
243 1 3 31.1018 -1524 0 0 0 0 0
244 1 3 31.1018 -1521 0 0 0 0 0
245 1 3 31.1018 -1518 0 0 0 0 0
246 1 3 31.1018 -1515 0 0 0 0 0
247 1 3 31.1018 -1512 0 0 0 0 0
248 1 3 31.1018 -1509 0 0 0 0 0
249 1 3 31.1018 -1506 0 0 0 0 0
250 1 3 31.1018 -1503 0 0 0 0 0
251 1 3 31.1018 -1500 0 0 0 0 0
252 1 3 31.1018 -1497 0 0 0 0 0
253 1 3 31.1018 -1494 0 0 0 0 0
254 1 3 31.1018 -1491 0 0 0 0 0
255 1 3 31.1018 -1488 0 0 0 0 0
256 1 3 31.1018 -1485 0 0 0 0 0
257 1 3 31.1018 -1482 0 0 0 0 0
258 1 3 31.1018 -1479 0 0 0 0 0
259 1 3 31.1018 -1476 0 0 0 0 0
260 1 3 31.1018 -1473 0 0 0 0 0
261 1 3 31.1018 -1470 0 0 0 0 0
262 1 3 31.1018 -1467 0 0 0 0 0
263 1 3 31.1018 -1464 0 0 0 0 0
264 1 3 31.1018 -1461 0 0 0 0 0
265 1 3 31.1018 -1458 0 0 0 0 0
266 1 3 31.1018 -1455 0 0 0 0 0
267 1 3 31.1018 -1452 0 0 0 0 0
268 1 3 31.1018 -1449 0 0 0 0 0
269 1 3 31.1018 -1446 0 0 0 0 0
270 1 3 31.1018 -1443 0 0 0 0 0
271 1 3 31.1018 -1440 0 0 0 0 0
272 1 3 31.1018 -1437 0 0 0 0 0
273 1 3 31.1018 -1434 0 0 0 0 0
274 1 3 31.1018 -1431 0 0 0 0 0
275 1 3 31.1018 -1428 0 0 0 0 0
276 1 3 31.1018 -1425 0 0 0 0 0
277 1 3 31.1018 -1422 0 0 0 0 0
278 1 3 31.1018 -1419 0 0 0 0 0
279 1 3 31.1018 -1416 0 0 0 0 0
280 1 3 31.1018 -1413 0 0 0 0 0
281 1 3 31.1018 -1410 0 0 0 0 0
282 1 3 31.1018 -1407 0 0 0 0 0
283 1 3 31.1018 -1404 0 0 0 0 0
284 1 3 31.1018 -1401 0 0 0 0 0
285 1 3 31.1018 -1398 0 0 0 0 0
286 1 3 31.1018 -1395 0 0 0 0 0
287 1 3 31.1018 -1392 0 0 0 0 0
288 1 3 31.1018 -1389 0 0 0 0 0
289 1 3 31.1018 -1386 0 0 0 0 0
290 1 3 31.1018 -1383 0 0 0 0 0
291 1 3 31.1018 -1380 0 0 0 0 0
292 1 3 31.1018 -1377 0 0 0 0 0
293 1 3 31.1018 -1374 0 0 0 0 0
294 1 3 31.1018 -1371 0 0 0 0 0
295 1 3 31.1018 -1368 0 0 0 0 0
296 1 3 31.1018 -1365 0 0 0 0 0
297 1 3 31.1018 -1362 0 0 0 0 0
298 1 3 31.1018 -1359 0 0 0 0 0
299 1 3 31.1018 -1356 0 0 0 0 0
300 1 3 31.1018 -1353 0 0 0 0 0
301 1 3 31.1018 -1350 0 0 0 0 0
302 1 3 31.1018 -1347 0 0 0 0 0
303 1 3 31.1018 -1344 0 0 0 0 0
304 1 3 31.1018 -1341 0 0 0 0 0
305 1 3 31.1018 -1338 0 0 0 0 0
306 1 3 31.1018 -1335 0 0 0 0 0
307 1 3 31.1018 -1332 0 0 0 0 0
308 1 3 31.1018 -1329 0 0 0 0 0
309 1 3 31.1018 -1326 0 0 0 0 0
310 1 3 31.1018 -1323 0 0 0 0 0
311 1 3 31.1018 -1320 0 0 0 0 0
312 1 3 31.1018 -1317 0 0 0 0 0
313 1 3 31.1018 -1314 0 0 0 0 0
314 1 3 31.1018 -1311 0 0 0 0 0
315 1 3 31.1018 -1308 0 0 0 0 0
316 1 3 31.1018 -1305 0 0 0 0 0
317 1 3 31.1018 -1302 0 0 0 0 0
318 1 3 31.1018 -1299 0 0 0 0 0
319 1 3 31.1018 -1296 0 0 0 0 0
320 1 3 31.1018 -1293 0 0 0 0 0
321 1 3 31.1018 -1290 0 0 0 0 0
322 1 3 31.1018 -1287 0 0 0 0 0
323 1 3 31.1018 -1284 0 0 0 0 0
324 1 3 31.1018 -1281 0 0 0 0 0
325 1 3 31.1018 -1278 0 0 0 0 0
326 1 3 31.1018 -1275 0 0 0 0 0
327 1 3 31.1018 -1272 0 0 0 0 0
328 1 3 31.1018 -1269 0 0 0 0 0
329 1 3 31.1018 -1266 0 0 0 0 0
330 1 3 31.1018 -1263 0 0 0 0 0
331 1 3 31.1018 -1260 0 0 0 0 0
332 1 3 31.1018 -1257 0 0 0 0 0
333 1 3 31.1018 -1254 0 0 0 0 0
334 1 3 31.1018 -1251 0 0 0 0 0
335 1 3 31.1018 -1248 0 0 0 0 0
336 1 3 31.1018 -1245 0 0 0 0 0
337 1 3 31.1018 -1242 0 0 0 0 0
338 1 3 31.1018 -1239 0 0 0 0 0
339 1 3 31.1018 -1236 0 0 0 0 0
340 1 3 31.1018 -1233 0 0 0 0 0
341 1 3 31.1018 -1230 0 0 0 0 0
342 1 3 31.1018 -1227 0 0 0 0 0
343 1 3 31.1018 -1224 0 0 0 0 0
344 1 3 31.1018 -1221 0 0 0 0 0
345 1 3 31.1018 -1218 0 0 0 0 0
346 1 3 31.1018 -1215 0 0 0 0 0
347 1 3 31.1018 -1212 0 0 0 0 0
348 1 3 31.1018 -1209 0 0 0 0 0
349 1 3 31.1018 -1206 0 0 0 0 0
350 1 3 31.1018 -1203 0 0 0 0 0
351 1 3 31.1018 -1200 0 0 0 0 0
352 1 3 31.1018 -1197 0 0 0 0 0
353 1 3 31.1018 -1194 0 0 0 0 0
354 1 3 31.1018 -1191 0 0 0 0 0
355 1 3 31.1018 -1188 0 0 0 0 0
356 1 3 31.1018 -1185 0 0 0 0 0
357 1 3 31.1018 -1182 0 0 0 0 0
358 1 3 31.1018 -1179 0 0 0 0 0
359 1 3 31.1018 -1176 0 0 0 0 0
360 1 3 31.1018 -1173 0 0 0 0 0
361 1 3 31.1018 -1170 0 0 0 0 0
362 1 3 31.1018 -1167 0 0 0 0 0
363 1 3 31.1018 -1164 0 0 0 0 0
364 1 3 31.1018 -1161 0 0 0 0 0
365 1 3 31.1018 -1158 0 0 0 0 0
366 1 3 31.1018 -1155 0 0 0 0 0
367 1 3 31.1018 -1152 0 0 0 0 0
368 1 3 31.1018 -1149 0 0 0 0 0
369 1 3 31.1018 -1146 0 0 0 0 0
370 1 3 31.1018 -1143 0 0 0 0 0
371 1 3 31.1018 -1140 0 0 0 0 0
372 1 3 31.1018 -1137 0 0 0 0 0
373 1 3 31.1018 -1134 0 0 0 0 0
374 1 3 31.1018 -1131 0 0 0 0 0
375 1 3 31.1018 -1128 0 0 0 0 0
1501 2 3 31.1018 -1504.50010131722979 1.85077e-20 2.59757470176955474 -0.0660769 0 -0.325339
1502 2 3 31.1018 -1501.50010131723002 1.84707e-20 2.5975747017397488 -0.0662808 0 -0.32531
1503 2 3 31.1018 -1498.50010131723002 1.84337e-20 2.59757470170994287 -0.066485 0 -0.325282
1504 2 3 31.1018 -1495.50010131723025 1.83967e-20 2.59757470168013738 -0.0666889 0 -0.325253
1505 2 3 31.1018 -1492.50010131723025 1.83597e-20 2.59757470165033144 -0.066893 0 -0.325225
1506 2 3 31.1018 -1489.50010131723047 1.83226e-20 2.59757470162052551 -0.0670969 0 -0.325196
1507 2 3 31.1018 -1486.5001013172307 1.82856e-20 2.59757470159071957 -0.0673008 0 -0.325168
1508 2 3 31.1018 -1483.5001013172307 1.82486e-20 2.59757470156091408 -0.0675049 0 -0.325139
1509 2 3 31.1018 -1480.50010131723093 1.82116e-20 2.59757470153110814 -0.0677088 0 -0.325111
1510 2 3 31.1018 -1477.50010131723093 1.81746e-20 2.59757470150130221 -0.067913 0 -0.325082
1511 2 3 31.1018 -1474.50010131723116 1.81376e-20 2.59757470147149627 -0.0681169 0 -0.325054
1512 2 3 31.1018 -1471.50010131723116 1.81005e-20 2.59757470144169078 -0.068321 0 -0.325025
1513 2 3 31.1018 -1468.50010131723138 1.80635e-20 2.59757470141188485 -0.0685249 0 -0.324996
1514 2 3 31.1018 -1465.50010131723138 1.80265e-20 2.59757470138207891 -0.068729 0 -0.324968
1515 2 3 31.1018 -1462.50010131723161 1.79895e-20 2.59757470135227297 -0.0689329 0 -0.324939
1516 2 3 31.1018 -1459.50010131723184 1.79525e-20 2.59757470132246748 -0.0691368 0 -0.324911
1517 2 3 31.1018 -1456.50010131723184 1.79155e-20 2.59757470129266155 -0.0693409 0 -0.324882
1518 2 3 31.1018 -1453.50010131723207 1.78785e-20 2.59757470126285561 -0.0695449 0 -0.324854
1519 2 3 31.1018 -1450.50010131723207 1.78414e-20 2.59757470123304968 -0.069749 0 -0.324825
1520 2 3 31.1018 -1447.50010131723229 1.78044e-20 2.59757470120324419 -0.0699529 0 -0.324797
1521 2 3 31.1018 -1444.50010131723229 1.77674e-20 2.59757470117343825 -0.070157 0 -0.324768
1522 2 3 31.1018 -1441.50010131723252 1.77304e-20 2.59757470114363231 -0.0703609 0 -0.324739
1523 2 3 31.1018 -1438.50010131723275 1.76934e-20 2.59757470111382638 -0.0705648 0 -0.324711
1524 2 3 31.1018 -1435.50010131723275 1.76564e-20 2.59757470108402089 -0.0707689 0 -0.324682
1525 2 3 31.1018 -1432.50010131723297 1.76193e-20 2.59757470105421495 -0.0709729 0 -0.324654
1526 2 3 31.1018 -1429.50010131723297 1.75823e-20 2.59757470102440902 -0.071177 0 -0.324625
1527 2 3 31.1018 -1426.5001013172332 1.75453e-20 2.59757470099460308 -0.0713809 0 -0.324597
1528 2 3 31.1018 -1423.5001013172332 1.75083e-20 2.59757470096479759 -0.071585 0 -0.324568
1529 2 3 31.1018 -1420.50010131723343 1.74713e-20 2.59757470093499165 -0.0717889 0 -0.32454
1530 2 3 31.1018 -1417.50010131723366 1.74343e-20 2.59757470090518572 -0.0719928 0 -0.324511
1531 2 3 31.1018 -1414.50010131723366 1.73973e-20 2.59757470087537978 -0.0721969 0 -0.324483
1532 2 3 31.1018 -1411.50010131723388 1.73602e-20 2.59757470084557429 -0.0724009 0 -0.324454
1533 2 3 31.1018 -1408.50010131723388 1.73232e-20 2.59757470081576836 -0.072605 0 -0.324425
1534 2 3 31.1018 -1405.50010131723411 1.72862e-20 2.59757470078596242 -0.0728089 0 -0.324397
1535 2 3 31.1018 -1402.50010131723411 1.72492e-20 2.59757470075615648 -0.073013 0 -0.324368
1536 2 3 31.1018 -1399.50010131723434 1.72122e-20 2.59757470072635099 -0.0732169 0 -0.32434
1537 2 3 31.1018 -1396.50010131723457 1.71752e-20 2.59757470069654506 -0.0734208 0 -0.324311
1538 2 3 31.1018 -1393.50010131723457 1.71381e-20 2.59757470066673912 -0.0736249 0 -0.324283
1539 2 3 31.1018 -1390.50010131723479 1.71011e-20 2.59757470063693319 -0.0738289 0 -0.324254
1540 2 3 31.1018 -1387.50010131723479 1.70641e-20 2.5975747006071277 -0.074033 0 -0.324226
1541 2 3 31.1018 -1384.50010131723502 1.70271e-20 2.59757470057732176 -0.0742369 0 -0.324197
1542 2 3 31.1018 -1381.50010131723502 1.69901e-20 2.59757470054751582 -0.074441 0 -0.324169
1543 2 3 31.1018 -1378.50010131723525 1.69531e-20 2.59757470051770989 -0.0746449 0 -0.32414
1544 2 3 31.1018 -1375.50010131723548 1.69161e-20 2.5975747004879044 -0.0748488 0 -0.324111
1545 2 3 31.1018 -1372.50010131723548 1.6879e-20 2.59757470045809846 -0.0750529 0 -0.324083
1546 2 3 31.1018 -1369.5001013172357 1.6842e-20 2.59757470042829253 -0.0752569 0 -0.324054
1547 2 3 31.1018 -1366.5001013172357 1.6805e-20 2.59757470039848659 -0.075461 0 -0.324026
1548 2 3 31.1018 -1363.50010131723593 1.6768e-20 2.5975747003686811 -0.0756649 0 -0.323997
1549 2 3 31.1018 -1360.50010131723593 1.6731e-20 2.59757470033887516 -0.075869 0 -0.323969
1550 2 3 31.1018 -1357.50010131723616 1.6694e-20 2.59757470030906923 -0.0760729 0 -0.32394
1551 2 3 31.1018 -1354.50010131723639 1.66569e-20 2.59757470027926329 -0.0762768 0 -0.323912
1552 2 3 31.1018 -1351.50010131723639 1.66199e-20 2.5975747002494578 -0.0764809 0 -0.323883
1553 2 3 31.1018 -1348.50010131723661 1.65829e-20 2.59757470021965187 -0.0766849 0 -0.323854
1554 2 3 31.1018 -1345.50010131723661 1.65459e-20 2.59757470018984593 -0.076889 0 -0.323826
1555 2 3 31.1018 -1342.50010131723684 1.65089e-20 2.59757470016004 -0.0770929 0 -0.323797
1556 2 3 31.1018 -1339.50010131723684 1.64719e-20 2.5975747001302345 -0.077297 0 -0.323769
1557 2 3 31.1018 -1336.50010131723707 1.64349e-20 2.59757470010042857 -0.0775009 0 -0.32374
1558 2 3 31.1018 -1333.5001013172373 1.63978e-20 2.59757470007062263 -0.0777048 0 -0.323712
1559 2 3 31.1018 -1330.5001013172373 1.63608e-20 2.5975747000408167 -0.077909 0 -0.323683
1560 2 3 31.1018 -1327.50010131723752 1.63238e-20 2.59757470001101121 -0.0781129 0 -0.323655
1561 2 3 31.1018 -1324.50010131723752 1.62868e-20 2.59757469998120527 -0.078317 0 -0.323626
1562 2 3 31.1018 -1321.50010131723775 1.62498e-20 2.59757469995139934 -0.0785209 0 -0.323598
1563 2 3 31.1018 -1318.50010131723775 1.62128e-20 2.5975746999215934 -0.078725 0 -0.323569
1564 2 3 31.1018 -1315.50010131723798 1.61757e-20 2.59757469989178791 -0.0789289 0 -0.32354
1565 2 3 31.1018 -1312.5001013172382 1.61387e-20 2.59757469986198197 -0.0791328 0 -0.323512
1566 2 3 31.1018 -1309.5001013172382 1.61017e-20 2.59757469983217604 -0.079337 0 -0.323483
1567 2 3 31.1018 -1306.50010131723843 1.60647e-20 2.5975746998023701 -0.0795409 0 -0.323455
1568 2 3 31.1018 -1303.50010131723843 1.60277e-20 2.59757469977256461 -0.079745 0 -0.323426
1569 2 3 31.1018 -1300.50010131723866 1.59907e-20 2.59757469974275867 -0.0799489 0 -0.323398
1570 2 3 31.1018 -1297.50010131723866 1.59537e-20 2.59757469971295274 -0.080153 0 -0.323369
1571 2 3 31.1018 -1294.50010131723889 1.59166e-20 2.5975746996831468 -0.0803569 0 -0.323341
1572 2 3 31.1018 -1291.50010131723911 1.58796e-20 2.59757469965334131 -0.0805608 0 -0.323312
1573 2 3 31.1018 -1288.50010131723911 1.58426e-20 2.59757469962353538 -0.080765 0 -0.323283
1574 2 3 31.1018 -1285.50010131723934 1.58056e-20 2.59757469959372944 -0.0809689 0 -0.323255
1575 2 3 31.1018 -1282.50010131723934 1.57686e-20 2.59757469956392351 -0.081173 0 -0.323226
1576 2 3 31.1018 -1279.50010131723957 1.57316e-20 2.59757469953411801 -0.0813769 0 -0.323198
1577 2 3 31.1018 -1276.50010131723957 1.56945e-20 2.59757469950431208 -0.081581 0 -0.323169
1578 2 3 31.1018 -1273.5001013172398 1.56575e-20 2.59757469947450614 -0.0817849 0 -0.323141
1579 2 3 31.1018 -1270.50010131724002 1.56205e-20 2.59757469944470021 -0.0819888 0 -0.323112
1580 2 3 31.1018 -1267.50010131724002 1.55835e-20 2.59757469941489472 -0.082193 0 -0.323084
1581 2 3 31.1018 -1264.50010131724025 1.55465e-20 2.59757469938508878 -0.0823969 0 -0.323055
1582 2 3 31.1018 -1261.50010131724025 1.55095e-20 2.59757469935528285 -0.082601 0 -0.323027
1583 2 3 31.1018 -1258.50010131724048 1.54725e-20 2.59757469932547691 -0.0828049 0 -0.322998
1584 2 3 31.1018 -1255.50010131724048 1.54354e-20 2.59757469929567142 -0.083009 0 -0.322969
1585 2 3 31.1018 -1252.50010131724071 1.53984e-20 2.59757469926586548 -0.0832129 0 -0.322941
1586 2 3 31.1018 -1249.50010131724093 1.53614e-20 2.59757469923605955 -0.0834168 0 -0.322912
1587 2 3 31.1018 -1246.50010131724093 1.53244e-20 2.59757469920625361 -0.083621 0 -0.322884
1588 2 3 31.1018 -1243.50010131724116 1.52874e-20 2.59757469917644812 -0.0838249 0 -0.322855
1589 2 3 31.1018 -1240.50010131724116 1.52504e-20 2.59757469914664219 -0.084029 0 -0.322827
1590 2 3 31.1018 -1237.50010131724139 1.52133e-20 2.59757469911683625 -0.0842329 0 -0.322798
1591 2 3 31.1018 -1234.50010131724139 1.51763e-20 2.59757469908703031 -0.084437 0 -0.32277
1592 2 3 31.1018 -1231.50010131724162 1.51393e-20 2.59757469905722482 -0.0846409 0 -0.322741
1593 2 3 31.1018 -1228.50010131724184 1.51023e-20 2.59757469902741889 -0.0848448 0 -0.322712
1594 2 3 31.1018 -1225.50010131724184 1.50653e-20 2.59757469899761295 -0.085049 0 -0.322684
1595 2 3 31.1018 -1222.50010131724207 1.50283e-20 2.59757469896780702 -0.0852529 0 -0.322655
1596 2 3 31.1018 -1219.50010131724207 1.49913e-20 2.59757469893800153 -0.085457 0 -0.322627
1597 2 3 31.1018 -1216.5001013172423 1.49542e-20 2.59757469890819559 -0.0856609 0 -0.322598
1598 2 3 31.1018 -1213.5001013172423 1.49172e-20 2.59757469887838965 -0.085865 0 -0.32257
1599 2 3 31.1018 -1210.50010131724252 1.48802e-20 2.59757469884858372 -0.0860689 0 -0.322541
1600 2 3 31.1018 -1207.50010131724275 1.48432e-20 2.59757469881877823 -0.0862728 0 -0.322513
1601 2 3 31.1018 -1204.50010131724275 1.48062e-20 2.59757469878897229 -0.086477 0 -0.322484
1602 2 3 31.1018 -1201.50010131724298 1.47692e-20 2.59757469875916636 -0.0866809 0 -0.322456
1603 2 3 31.1018 -1198.50010131724298 1.47321e-20 2.59757469872936042 -0.086885 0 -0.322427
1604 2 3 31.1018 -1195.50010131724321 1.46951e-20 2.59757469869955493 -0.0870889 0 -0.322398
1605 2 3 31.1018 -1192.50010131724321 1.46581e-20 2.59757469866974899 -0.087293 0 -0.32237
1606 2 3 31.1018 -1189.50010131724343 1.46211e-20 2.59757469863994306 -0.087497 0 -0.322341
1607 2 3 31.1018 -1186.50010131724343 1.45841e-20 2.59757469861013712 -0.0877011 0 -0.322313
1608 2 3 31.1018 -1183.50010131724366 1.45471e-20 2.59757469858033163 -0.087905 0 -0.322284
1609 2 3 31.1018 -1180.50010131724389 1.451e-20 2.5975746985505257 -0.0881089 0 -0.322256
1610 2 3 31.1018 -1177.50010131724389 1.4473e-20 2.59757469852071976 -0.088313 0 -0.322227
1611 2 3 31.1018 -1174.50010131724412 1.4436e-20 2.59757469849091382 -0.0885169 0 -0.322199
1612 2 3 31.1018 -1171.50010131724412 1.4399e-20 2.59757469846110833 -0.0887211 0 -0.32217
1613 2 3 31.1018 -1168.50010131724434 1.4362e-20 2.5975746984313024 -0.088925 0 -0.322141
1614 2 3 31.1018 -1165.50010131724434 1.4325e-20 2.59757469840149646 -0.0891292 0 -0.322113
1615 2 3 31.1018 -1162.50010131724457 1.4288e-20 2.59757469837169053 -0.0893332 0 -0.322084
1616 2 3 31.1018 -1159.5001013172448 1.42509e-20 2.59757469834188504 -0.0895371 0 -0.322056
1617 2 3 31.1018 -1156.5001013172448 1.42139e-20 2.5975746983120791 -0.0897414 0 -0.322027
1618 2 3 31.1018 -1153.50010131724503 1.41769e-20 2.59757469828227316 -0.0899454 0 -0.321998
1619 2 3 31.1018 -1150.50010131724503 1.41399e-20 2.59757469825246723 -0.0901496 0 -0.32197
1620 2 3 31.1018 -1147.50010131724525 1.41029e-20 2.59757469822266174 -0.0903536 0 -0.321941
1621 2 3 31.1018 -1144.50010131724525 1.40659e-20 2.5975746981928558 -0.0905578 0 -0.321913
1622 2 3 31.1018 -1141.50010131724548 1.40288e-20 2.59757469816304987 -0.0907618 0 -0.321884
1623 2 3 31.1018 -1138.50010131724571 1.39918e-20 2.59757469813324393 -0.0909658 0 -0.321855
1624 2 3 31.1018 -1135.50010131724571 1.39548e-20 2.59757469810343844 -0.09117 0 -0.321827
1625 2 3 31.1018 -1132.50010131724594 1.39178e-20 2.5975746980736325 -0.091374 0 -0.321798
1626 2 3 31.1018 -1129.50010131724594 1.38808e-20 2.59757469804382657 -0.0915782 0 -0.32177
1627 2 3 31.1018 -1126.50010131724616 1.38438e-20 2.59757469801402063 -0.0917822 0 -0.321741
376 1 3 31.1018 -1125 0 0 0 0 0
377 1 3 31.1018 -1122 0 0 0 0 0
378 1 3 31.1018 -1119 0 0 0 0 0
379 1 3 31.1018 -1116 0 0 0 0 0
380 1 3 31.1018 -1113 0 0 0 0 0
381 1 3 31.1018 -1110 0 0 0 0 0
382 1 3 31.1018 -1107 0 0 0 0 0
383 1 3 31.1018 -1104 0 0 0 0 0
384 1 3 31.1018 -1101 0 0 0 0 0
385 1 3 31.1018 -1098 0 0 0 0 0
386 1 3 31.1018 -1095 0 0 0 0 0
387 1 3 31.1018 -1092 0 0 0 0 0
388 1 3 31.1018 -1089 0 0 0 0 0
389 1 3 31.1018 -1086 0 0 0 0 0
390 1 3 31.1018 -1083 0 0 0 0 0
391 1 3 31.1018 -1080 0 0 0 0 0
392 1 3 31.1018 -1077 0 0 0 0 0
393 1 3 31.1018 -1074 0 0 0 0 0
394 1 3 31.1018 -1071 0 0 0 0 0
395 1 3 31.1018 -1068 0 0 0 0 0
396 1 3 31.1018 -1065 0 0 0 0 0
397 1 3 31.1018 -1062 0 0 0 0 0
398 1 3 31.1018 -1059 0 0 0 0 0
399 1 3 31.1018 -1056 0 0 0 0 0
400 1 3 31.1018 -1053 0 0 0 0 0
401 1 3 31.1018 -1050 0 0 0 0 0
402 1 3 31.1018 -1047 0 0 0 0 0
403 1 3 31.1018 -1044 0 0 0 0 0
404 1 3 31.1018 -1041 0 0 0 0 0
405 1 3 31.1018 -1038 0 0 0 0 0
406 1 3 31.1018 -1035 0 0 0 0 0
407 1 3 31.1018 -1032 0 0 0 0 0
408 1 3 31.1018 -1029 0 0 0 0 0
409 1 3 31.1018 -1026 0 0 0 0 0
410 1 3 31.1018 -1023 0 0 0 0 0
411 1 3 31.1018 -1020 0 0 0 0 0
412 1 3 31.1018 -1017 0 0 0 0 0
413 1 3 31.1018 -1014 0 0 0 0 0
414 1 3 31.1018 -1011 0 0 0 0 0
415 1 3 31.1018 -1008 0 0 0 0 0
416 1 3 31.1018 -1005 0 0 0 0 0
417 1 3 31.1018 -1002 0 0 0 0 0
418 1 3 31.1018 -999 0 0 0 0 0
419 1 3 31.1018 -996 0 0 0 0 0
420 1 3 31.1018 -993 0 0 0 0 0
421 1 3 31.1018 -990 0 0 0 0 0
422 1 3 31.1018 -987 0 0 0 0 0
423 1 3 31.1018 -984 0 0 0 0 0
424 1 3 31.1018 -981 0 0 0 0 0
425 1 3 31.1018 -978 0 0 0 0 0
426 1 3 31.1018 -975 0 0 0 0 0
427 1 3 31.1018 -972 0 0 0 0 0
428 1 3 31.1018 -969 0 0 0 0 0
429 1 3 31.1018 -966 0 0 0 0 0
430 1 3 31.1018 -963 0 0 0 0 0
431 1 3 31.1018 -960 0 0 0 0 0
432 1 3 31.1018 -957 0 0 0 0 0
433 1 3 31.1018 -954 0 0 0 0 0
434 1 3 31.1018 -951 0 0 0 0 0
435 1 3 31.1018 -948 0 0 0 0 0
436 1 3 31.1018 -945 0 0 0 0 0
437 1 3 31.1018 -942 0 0 0 0 0
438 1 3 31.1018 -939 0 0 0 0 0
439 1 3 31.1018 -936 0 0 0 0 0
440 1 3 31.1018 -933 0 0 0 0 0
441 1 3 31.1018 -930 0 0 0 0 0
442 1 3 31.1018 -927 0 0 0 0 0
443 1 3 31.1018 -924 0 0 0 0 0
444 1 3 31.1018 -921 0 0 0 0 0
445 1 3 31.1018 -918 0 0 0 0 0
446 1 3 31.1018 -915 0 0 0 0 0
447 1 3 31.1018 -912 0 0 0 0 0
448 1 3 31.1018 -909 0 0 0 0 0
449 1 3 31.1018 -906 0 0 0 0 0
450 1 3 31.1018 -903 0 0 0 0 0
451 1 3 31.1018 -900 0 0 0 0 0
452 1 3 31.1018 -897 0 0 0 0 0
453 1 3 31.1018 -894 0 0 0 0 0
454 1 3 31.1018 -891 0 0 0 0 0
455 1 3 31.1018 -888 0 0 0 0 0
456 1 3 31.1018 -885 0 0 0 0 0
457 1 3 31.1018 -882 0 0 0 0 0
458 1 3 31.1018 -879 0 0 0 0 0
459 1 3 31.1018 -876 0 0 0 0 0
460 1 3 31.1018 -873 0 0 0 0 0
461 1 3 31.1018 -870 0 0 0 0 0
462 1 3 31.1018 -867 0 0 0 0 0
463 1 3 31.1018 -864 0 0 0 0 0
464 1 3 31.1018 -861 0 0 0 0 0
465 1 3 31.1018 -858 0 0 0 0 0
466 1 3 31.1018 -855 0 0 0 0 0
467 1 3 31.1018 -852 0 0 0 0 0
468 1 3 31.1018 -849 0 0 0 0 0
469 1 3 31.1018 -846 0 0 0 0 0
470 1 3 31.1018 -843 0 0 0 0 0
471 1 3 31.1018 -840 0 0 0 0 0
472 1 3 31.1018 -837 0 0 0 0 0
473 1 3 31.1018 -834 0 0 0 0 0
474 1 3 31.1018 -831 0 0 0 0 0
475 1 3 31.1018 -828 0 0 0 0 0
476 1 3 31.1018 -825 0 0 0 0 0
477 1 3 31.1018 -822 0 0 0 0 0
478 1 3 31.1018 -819 0 0 0 0 0
479 1 3 31.1018 -816 0 0 0 0 0
480 1 3 31.1018 -813 0 0 0 0 0
481 1 3 31.1018 -810 0 0 0 0 0
482 1 3 31.1018 -807 0 0 0 0 0
483 1 3 31.1018 -804 0 0 0 0 0
484 1 3 31.1018 -801 0 0 0 0 0
485 1 3 31.1018 -798 0 0 0 0 0
486 1 3 31.1018 -795 0 0 0 0 0
487 1 3 31.1018 -792 0 0 0 0 0
488 1 3 31.1018 -789 0 0 0 0 0
489 1 3 31.1018 -786 0 0 0 0 0
490 1 3 31.1018 -783 0 0 0 0 0
491 1 3 31.1018 -780 0 0 0 0 0
492 1 3 31.1018 -777 0 0 0 0 0
493 1 3 31.1018 -774 0 0 0 0 0
494 1 3 31.1018 -771 0 0 0 0 0
495 1 3 31.1018 -768 0 0 0 0 0
496 1 3 31.1018 -765 0 0 0 0 0
497 1 3 31.1018 -762 0 0 0 0 0
498 1 3 31.1018 -759 0 0 0 0 0
499 1 3 31.1018 -756 0 0 0 0 0
500 1 3 31.1018 -753 0 0 0 0 0
501 1 3 31.1018 -750 0 0 0 0 0
502 1 3 31.1018 -747 0 0 0 0 0
503 1 3 31.1018 -744 0 0 0 0 0
504 1 3 31.1018 -741 0 0 0 0 0
505 1 3 31.1018 -738 0 0 0 0 0
506 1 3 31.1018 -735 0 0 0 0 0
507 1 3 31.1018 -732 0 0 0 0 0
508 1 3 31.1018 -729 0 0 0 0 0
509 1 3 31.1018 -726 0 0 0 0 0
510 1 3 31.1018 -723 0 0 0 0 0
511 1 3 31.1018 -720 0 0 0 0 0
512 1 3 31.1018 -717 0 0 0 0 0
513 1 3 31.1018 -714 0 0 0 0 0
514 1 3 31.1018 -711 0 0 0 0 0
515 1 3 31.1018 -708 0 0 0 0 0
516 1 3 31.1018 -705 0 0 0 0 0
517 1 3 31.1018 -702 0 0 0 0 0
518 1 3 31.1018 -699 0 0 0 0 0
519 1 3 31.1018 -696 0 0 0 0 0
520 1 3 31.1018 -693 0 0 0 0 0
521 1 3 31.1018 -690 0 0 0 0 0
522 1 3 31.1018 -687 0 0 0 0 0
523 1 3 31.1018 -684 0 0 0 0 0
524 1 3 31.1018 -681 0 0 0 0 0
525 1 3 31.1018 -678 0 0 0 0 0
526 1 3 31.1018 -675 0 0 0 0 0
527 1 3 31.1018 -672 0 0 0 0 0
528 1 3 31.1018 -669 0 0 0 0 0
529 1 3 31.1018 -666 0 0 0 0 0
530 1 3 31.1018 -663 0 0 0 0 0
531 1 3 31.1018 -660 0 0 0 0 0
532 1 3 31.1018 -657 0 0 0 0 0
533 1 3 31.1018 -654 0 0 0 0 0
534 1 3 31.1018 -651 0 0 0 0 0
535 1 3 31.1018 -648 0 0 0 0 0
536 1 3 31.1018 -645 0 0 0 0 0
537 1 3 31.1018 -642 0 0 0 0 0
538 1 3 31.1018 -639 0 0 0 0 0
539 1 3 31.1018 -636 0 0 0 0 0
540 1 3 31.1018 -633 0 0 0 0 0
541 1 3 31.1018 -630 0 0 0 0 0
542 1 3 31.1018 -627 0 0 0 0 0
543 1 3 31.1018 -624 0 0 0 0 0
544 1 3 31.1018 -621 0 0 0 0 0
545 1 3 31.1018 -618 0 0 0 0 0
546 1 3 31.1018 -615 0 0 0 0 0
547 1 3 31.1018 -612 0 0 0 0 0
548 1 3 31.1018 -609 0 0 0 0 0
549 1 3 31.1018 -606 0 0 0 0 0
550 1 3 31.1018 -603 0 0 0 0 0
551 1 3 31.1018 -600 0 0 0 0 0
552 1 3 31.1018 -597 0 0 0 0 0
553 1 3 31.1018 -594 0 0 0 0 0
554 1 3 31.1018 -591 0 0 0 0 0
555 1 3 31.1018 -588 0 0 0 0 0
556 1 3 31.1018 -585 0 0 0 0 0
557 1 3 31.1018 -582 0 0 0 0 0
558 1 3 31.1018 -579 0 0 0 0 0
559 1 3 31.1018 -576 0 0 0 0 0
560 1 3 31.1018 -573 0 0 0 0 0
561 1 3 31.1018 -570 0 0 0 0 0
562 1 3 31.1018 -567 0 0 0 0 0
563 1 3 31.1018 -564 0 0 0 0 0
564 1 3 31.1018 -561 0 0 0 0 0
565 1 3 31.1018 -558 0 0 0 0 0
566 1 3 31.1018 -555 0 0 0 0 0
567 1 3 31.1018 -552 0 0 0 0 0
568 1 3 31.1018 -549 0 0 0 0 0
569 1 3 31.1018 -546 0 0 0 0 0
570 1 3 31.1018 -543 0 0 0 0 0
571 1 3 31.1018 -540 0 0 0 0 0