ITEM: TIMESTEP
4300000
ITEM: NUMBER OF ATOMS
1251
ITEM: BOX BOUNDS pp pp pp
-1.1250000000000000e+03 1.1250000000000000e+03
-1.0000000000000000e+02 1.0000000000000000e+02
-1.0000000000000000e+02 1.0000000000000000e+02
ITEM: ATOMS id type diameter mass xu yu zu fx fy fz
1 1 3 31.1018 -1125 0 0 0 0 0
2 1 3 31.1018 -1122 0 0 0 0 0
3 1 3 31.1018 -1119 0 0 0 0 0
4 1 3 31.1018 -1116 0 0 0 0 0
5 1 3 31.1018 -1113 0 0 0 0 0
6 1 3 31.1018 -1110 0 0 0 0 0
7 1 3 31.1018 -1107 0 0 0 0 0
8 1 3 31.1018 -1104 0 0 0 0 0
9 1 3 31.1018 -1101 0 0 0 0 0
10 1 3 31.1018 -1098 0 0 0 0 0
11 1 3 31.1018 -1095 0 0 0 0 0
12 1 3 31.1018 -1092 0 0 0 0 0
13 1 3 31.1018 -1089 0 0 0 0 0
14 1 3 31.1018 -1086 0 0 0 0 0
15 1 3 31.1018 -1083 0 0 0 0 0
16 1 3 31.1018 -1080 0 0 0 0 0
17 1 3 31.1018 -1077 0 0 0 0 0
18 1 3 31.1018 -1074 0 0 0 0 0
19 1 3 31.1018 -1071 0 0 0 0 0
20 1 3 31.1018 -1068 0 0 0 0 0
21 1 3 31.1018 -1065 0 0 0 0 0
22 1 3 31.1018 -1062 0 0 0 0 0
23 1 3 31.1018 -1059 0 0 0 0 0
24 1 3 31.1018 -1056 0 0 0 0 0
25 1 3 31.1018 -1053 0 0 0 0 0
26 1 3 31.1018 -1050 0 0 0 0 0
27 1 3 31.1018 -1047 0 0 0 0 0
28 1 3 31.1018 -1044 0 0 0 0 0
29 1 3 31.1018 -1041 0 0 0 0 0
30 1 3 31.1018 -1038 0 0 0 0 0
31 1 3 31.1018 -1035 0 0 0 0 0
32 1 3 31.1018 -1032 0 0 0 0 0
33 1 3 31.1018 -1029 0 0 0 0 0
34 1 3 31.1018 -1026 0 0 0 0 0
35 1 3 31.1018 -1023 0 0 0 0 0
36 1 3 31.1018 -1020 0 0 0 0 0
37 1 3 31.1018 -1017 0 0 0 0 0
38 1 3 31.1018 -1014 0 0 0 0 0
39 1 3 31.1018 -1011 0 0 0 0 0
40 1 3 31.1018 -1008 0 0 0 0 0
41 1 3 31.1018 -1005 0 0 0 0 0
42 1 3 31.1018 -1002 0 0 0 0 0
43 1 3 31.1018 -999 0 0 0 0 0
44 1 3 31.1018 -996 0 0 0 0 0
45 1 3 31.1018 -993 0 0 0 0 0
46 1 3 31.1018 -990 0 0 0 0 0
47 1 3 31.1018 -987 0 0 0 0 0
48 1 3 31.1018 -984 0 0 0 0 0
49 1 3 31.1018 -981 0 0 0 0 0
50 1 3 31.1018 -978 0 0 0 0 0
51 1 3 31.1018 -975 0 0 0 0 0
52 1 3 31.1018 -972 0 0 0 0 0
53 1 3 31.1018 -969 0 0 0 0 0
54 1 3 31.1018 -966 0 0 0 0 0
55 1 3 31.1018 -963 0 0 0 0 0
56 1 3 31.1018 -960 0 0 0 0 0
57 1 3 31.1018 -957 0 0 0 0 0
58 1 3 31.1018 -954 0 0 0 0 0
59 1 3 31.1018 -951 0 0 0 0 0
60 1 3 31.1018 -948 0 0 0 0 0
61 1 3 31.1018 -945 0 0 0 0 0
62 1 3 31.1018 -942 0 0 0 0 0
63 1 3 31.1018 -939 0 0 0 0 0
64 1 3 31.1018 -936 0 0 0 0 0
65 1 3 31.1018 -933 0 0 0 0 0
66 1 3 31.1018 -930 0 0 0 0 0
67 1 3 31.1018 -927 0 0 0 0 0
68 1 3 31.1018 -924 0 0 0 0 0
69 1 3 31.1018 -921 0 0 0 0 0
70 1 3 31.1018 -918 0 0 0 0 0
71 1 3 31.1018 -915 0 0 0 0 0
72 1 3 31.1018 -912 0 0 0 0 0
73 1 3 31.1018 -909 0 0 0 0 0
74 1 3 31.1018 -906 0 0 0 0 0
75 1 3 31.1018 -903 0 0 0 0 0
76 1 3 31.1018 -900 0 0 0 0 0
77 1 3 31.1018 -897 0 0 0 0 0
78 1 3 31.1018 -894 0 0 0 0 0
79 1 3 31.1018 -891 0 0 0 0 0
80 1 3 31.1018 -888 0 0 0 0 0
81 1 3 31.1018 -885 0 0 0 0 0
82 1 3 31.1018 -882 0 0 0 0 0
83 1 3 31.1018 -879 0 0 0 0 0
84 1 3 31.1018 -876 0 0 0 0 0
85 1 3 31.1018 -873 0 0 0 0 0
86 1 3 31.1018 -870 0 0 0 0 0
87 1 3 31.1018 -867 0 0 0 0 0
88 1 3 31.1018 -864 0 0 0 0 0
89 1 3 31.1018 -861 0 0 0 0 0
90 1 3 31.1018 -858 0 0 0 0 0
91 1 3 31.1018 -855 0 0 0 0 0
92 1 3 31.1018 -852 0 0 0 0 0
93 1 3 31.1018 -849 0 0 0 0 0
94 1 3 31.1018 -846 0 0 0 0 0
95 1 3 31.1018 -843 0 0 0 0 0
96 1 3 31.1018 -840 0 0 0 0 0
97 1 3 31.1018 -837 0 0 0 0 0
98 1 3 31.1018 -834 0 0 0 0 0
99 1 3 31.1018 -831 0 0 0 0 0
100 1 3 31.1018 -828 0 0 0 0 0
101 1 3 31.1018 -825 0 0 0 0 0
102 1 3 31.1018 -822 0 0 0 0 0
103 1 3 31.1018 -819 0 0 0 0 0
104 1 3 31.1018 -816 0 0 0 0 0
105 1 3 31.1018 -813 0 0 0 0 0
106 1 3 31.1018 -810 0 0 0 0 0
107 1 3 31.1018 -807 0 0 0 0 0
108 1 3 31.1018 -804 0 0 0 0 0
109 1 3 31.1018 -801 0 0 0 0 0
110 1 3 31.1018 -798 0 0 0 0 0
111 1 3 31.1018 -795 0 0 0 0 0
112 1 3 31.1018 -792 0 0 0 0 0
113 1 3 31.1018 -789 0 0 0 0 0
114 1 3 31.1018 -786 0 0 0 0 0
115 1 3 31.1018 -783 0 0 0 0 0
116 1 3 31.1018 -780 0 0 0 0 0
117 1 3 31.1018 -777 0 0 0 0 0
118 1 3 31.1018 -774 0 0 0 0 0
119 1 3 31.1018 -771 0 0 0 0 0
120 1 3 31.1018 -768 0 0 0 0 0
121 1 3 31.1018 -765 0 0 0 0 0
122 1 3 31.1018 -762 0 0 0 0 0
123 1 3 31.1018 -759 0 0 0 0 0
124 1 3 31.1018 -756 0 0 0 0 0
125 1 3 31.1018 -753 0 0 0 0 0
126 1 3 31.1018 -750 0 0 0 0 0
127 1 3 31.1018 -747 0 0 0 0 0
128 1 3 31.1018 -744 0 0 0 0 0
129 1 3 31.1018 -741 0 0 0 0 0
130 1 3 31.1018 -738 0 0 0 0 0
131 1 3 31.1018 -735 0 0 0 0 0
132 1 3 31.1018 -732 0 0 0 0 0
133 1 3 31.1018 -729 0 0 0 0 0
134 1 3 31.1018 -726 0 0 0 0 0
135 1 3 31.1018 -723 0 0 0 0 0
136 1 3 31.1018 -720 0 0 0 0 0
137 1 3 31.1018 -717 0 0 0 0 0
138 1 3 31.1018 -714 0 0 0 0 0
139 1 3 31.1018 -711 0 0 0 0 0
140 1 3 31.1018 -708 0 0 0 0 0
141 1 3 31.1018 -705 0 0 0 0 0
142 1 3 31.1018 -702 0 0 0 0 0
143 1 3 31.1018 -699 0 0 0 0 0
144 1 3 31.1018 -696 0 0 0 0 0
145 1 3 31.1018 -693 0 0 0 0 0
146 1 3 31.1018 -690 0 0 0 0 0
147 1 3 31.1018 -687 0 0 0 0 0
148 1 3 31.1018 -684 0 0 0 0 0
149 1 3 31.1018 -681 0 0 0 0 0
150 1 3 31.1018 -678 0 0 0 0 0
151 1 3 31.1018 -675 0 0 0 0 0
152 1 3 31.1018 -672 0 0 0 0 0
153 1 3 31.1018 -669 0 0 0 0 0
154 1 3 31.1018 -666 0 0 0 0 0
155 1 3 31.1018 -663 0 0 0 0 0
156 1 3 31.1018 -660 0 0 0 0 0
157 1 3 31.1018 -657 0 0 0 0 0
158 1 3 31.1018 -654 0 0 0 0 0
159 1 3 31.1018 -651 0 0 0 0 0
160 1 3 31.1018 -648 0 0 0 0 0
161 1 3 31.1018 -645 0 0 0 0 0
162 1 3 31.1018 -642 0 0 0 0 0
163 1 3 31.1018 -639 0 0 0 0 0
164 1 3 31.1018 -636 0 0 0 0 0
165 1 3 31.1018 -633 0 0 0 0 0
166 1 3 31.1018 -630 0 0 0 0 0
167 1 3 31.1018 -627 0 0 0 0 0
168 1 3 31.1018 -624 0 0 0 0 0
169 1 3 31.1018 -621 0 0 0 0 0
170 1 3 31.1018 -618 0 0 0 0 0
171 1 3 31.1018 -615 0 0 0 0 0
172 1 3 31.1018 -612 0 0 0 0 0
173 1 3 31.1018 -609 0 0 0 0 0
174 1 3 31.1018 -606 0 0 0 0 0
175 1 3 31.1018 -603 0 0 0 0 0
176 1 3 31.1018 -600 0 0 0 0 0
177 1 3 31.1018 -597 0 0 0 0 0
178 1 3 31.1018 -594 0 0 0 0 0
179 1 3 31.1018 -591 0 0 0 0 0
180 1 3 31.1018 -588 0 0 0 0 0
181 1 3 31.1018 -585 0 0 0 0 0
182 1 3 31.1018 -582 0 0 0 0 0
183 1 3 31.1018 -579 0 0 0 0 0
184 1 3 31.1018 -576 0 0 0 0 0
185 1 3 31.1018 -573 0 0 0 0 0
186 1 3 31.1018 -570 0 0 0 0 0
187 1 3 31.1018 -567 0 0 0 0 0
188 1 3 31.1018 -564 0 0 0 0 0
751 2 3 31.1018 -754.500101365331147 -4.16333e-14 2.59757462865390965 0.203244 0 -0.00444367
752 2 3 31.1018 -751.500101365331034 -4.14667e-14 2.59757462855915477 0.202426 0 -0.00442324
753 2 3 31.1018 -748.50010136533092 -4.13002e-14 2.59757462846439946 0.201609 0 -0.00440281
754 2 3 31.1018 -745.500101365330693 -4.11337e-14 2.59757462836964415 0.200791 0 -0.00438239
755 2 3 31.1018 -742.500101365330579 -4.09671e-14 2.59757462827488883 0.199973 0 -0.00436196
756 2 3 31.1018 -739.500101365330465 -4.08006e-14 2.59757462818013396 0.199156 0 -0.00434152
757 2 3 31.1018 -736.500101365330352 -4.06341e-14 2.59757462808537865 0.198338 0 -0.00432109
758 2 3 31.1018 -733.500101365330124 -4.04675e-14 2.59757462799062333 0.19752 0 -0.00430067
759 2 3 31.1018 -730.500101365330011 -4.0301e-14 2.59757462789586802 0.196702 0 -0.00428024
760 2 3 31.1018 -727.500101365329897 -4.01345e-14 2.59757462780111315 0.195885 0 -0.00425981
761 2 3 31.1018 -724.500101365329783 -3.99679e-14 2.59757462770635783 0.195067 0 -0.00423938
762 2 3 31.1018 -721.500101365329556 -3.98014e-14 2.59757462761160252 0.194249 0 -0.00421896
763 2 3 31.1018 -718.500101365329442 -3.96349e-14 2.5975746275168472 0.193431 0 -0.00419853
764 2 3 31.1018 -715.500101365329328 -3.94683e-14 2.59757462742209233 0.192614 0 -0.0041781
765 2 3 31.1018 -712.500101365329215 -3.93018e-14 2.59757462732733702 0.191796 0 -0.00415767
766 2 3 31.1018 -709.500101365328987 -3.91353e-14 2.5975746272325817 0.190978 0 -0.00413725
767 2 3 31.1018 -706.500101365328874 -3.89687e-14 2.59757462713782639 0.19016 0 -0.00411682
768 2 3 31.1018 -703.50010136532876 -3.88022e-14 2.59757462704307152 0.189343 0 -0.00409639
769 2 3 31.1018 -700.500101365328646 -3.86357e-14 2.5975746269483162 0.188525 0 -0.00407596
770 2 3 31.1018 -697.500101365328419 -3.84691e-14 2.59757462685356089 0.187707 0 -0.00405554
771 2 3 31.1018 -694.500101365328305 -3.83026e-14 2.59757462675880557 0.186889 0 -0.00403511
772 2 3 31.1018 -691.500101365328192 -3.81361e-14 2.5975746266640507 0.186072 0 -0.00401468
773 2 3 31.1018 -688.500101365328078 -3.79695e-14 2.59757462656929539 0.185254 0 -0.00399425
774 2 3 31.1018 -685.500101365327851 -3.7803e-14 2.59757462647454007 0.184436 0 -0.00397383
775 2 3 31.1018 -682.500101365327737 -3.76365e-14 2.59757462637978476 0.183618 0 -0.00395339
776 2 3 31.1018 -679.500101365327623 -3.74699e-14 2.59757462628502989 0.182801 0 -0.00393297
777 2 3 31.1018 -676.500101365327509 -3.73034e-14 2.59757462619027457 0.181983 0 -0.00391253
778 2 3 31.1018 -673.500101365327282 -3.71369e-14 2.59757462609551926 0.181165 0 -0.00389211
779 2 3 31.1018 -670.500101365327168 -3.69703e-14 2.59757462600076394 0.180347 0 -0.00387169
780 2 3 31.1018 -667.500101365327055 -3.68038e-14 2.59757462590600907 0.17953 0 -0.00385126
781 2 3 31.1018 -664.500101365326941 -3.66373e-14 2.59757462581125376 0.178712 0 -0.00383082
782 2 3 31.1018 -661.500101365326714 -3.64707e-14 2.59757462571649844 0.177894 0 -0.0038104
783 2 3 31.1018 -658.5001013653266 -3.63042e-14 2.59757462562174313 0.177076 0 -0.00378997
784 2 3 31.1018 -655.500101365326486 -3.61377e-14 2.59757462552698826 0.176259 0 -0.00376954
785 2 3 31.1018 -652.500101365326373 -3.59711e-14 2.59757462543223294 0.175441 0 -0.00374911
786 2 3 31.1018 -649.500101365326145 -3.58046e-14 2.59757462533747763 0.174623 0 -0.0037287
787 2 3 31.1018 -646.500101365326032 -3.56381e-14 2.59757462524272231 0.173805 0 -0.00370826
788 2 3 31.1018 -643.500101365325918 -3.54715e-14 2.59757462514796744 0.172988 0 -0.00368784
789 2 3 31.1018 -640.500101365325804 -3.5305e-14 2.59757462505321213 0.17217 0 -0.00366741
790 2 3 31.1018 -637.500101365325577 -3.51385e-14 2.59757462495845681 0.171352 0 -0.00364699
791 2 3 31.1018 -634.500101365325463 -3.49719e-14 2.5975746248637015 0.170534 0 -0.00362656
792 2 3 31.1018 -631.500101365325349 -3.48054e-14 2.59757462476894663 0.169717 0 -0.00360613
793 2 3 31.1018 -628.500101365325236 -3.46389e-14 2.59757462467419131 0.168899 0 -0.0035857
794 2 3 31.1018 -625.500101365325008 -3.44723e-14 2.597574624579436 0.168081 0 -0.00356528
795 2 3 31.1018 -622.500101365324895 -3.43058e-14 2.59757462448468068 0.167263 0 -0.00354485
796 2 3 31.1018 -619.500101365324781 -3.41393e-14 2.59757462438992581 0.166446 0 -0.00352442
797 2 3 31.1018 -616.500101365324667 -3.39727e-14 2.5975746242951705 0.165628 0 -0.00350399
798 2 3 31.1018 -613.50010136532444 -3.38062e-14 2.59757462420041518 0.16481 0 -0.00348357
799 2 3 31.1018 -610.500101365324326 -3.36397e-14 2.59757462410565987 0.163992 0 -0.00346314
800 2 3 31.1018 -607.500101365324213 -3.34731e-14 2.597574624010905 0.163175 0 -0.00344271
801 2 3 31.1018 -604.500101365324099 -3.33066e-14 2.59757462391614968 0.162357 0 -0.00342228
802 2 3 31.1018 -601.500101365323872 -3.31401e-14 2.59757462382139437 0.161539 0 -0.00340186
803 2 3 31.1018 -598.500101365323758 -3.29735e-14 2.59757462372663905 0.160721 0 -0.00338143
804 2 3 31.1018 -595.500101365323644 -3.2807e-14 2.59757462363188418 0.159904 0 -0.003361
805 2 3 31.1018 -592.50010136532353 -3.26405e-14 2.59757462353712887 0.159086 0 -0.00334057
806 2 3 31.1018 -589.500101365323303 -3.2474e-14 2.59757462344237355 0.158268 0 -0.00332016
807 2 3 31.1018 -586.500101365323189 -3.23074e-14 2.59757462334761824 0.15745 0 -0.00329973
808 2 3 31.1018 -583.500101365323076 -3.21409e-14 2.59757462325286337 0.156633 0 -0.0032793
809 2 3 31.1018 -580.500101365322962 -3.19744e-14 2.59757462315810805 0.155815 0 -0.00325887
810 2 3 31.1018 -577.500101365322735 -3.18078e-14 2.59757462306335274 0.154997 0 -0.00323845
811 2 3 31.1018 -574.500101365322621 -3.16413e-14 2.59757462296859742 0.154179 0 -0.00321802
812 2 3 31.1018 -571.500101365322507 -3.14748e-14 2.59757462287384255 0.153362 0 -0.00319759
813 2 3 31.1018 -568.500101365322394 -3.13082e-14 2.59757462277908724 0.152544 0 -0.00317716
814 2 3 31.1018 -565.500101365322166 -3.11417e-14 2.59757462268433192 0.151726 0 -0.00315674
189 1 3 31.1018 -561 0 0 0 0 0
190 1 3 31.1018 -558 0 0 0 0 0
191 1 3 31.1018 -555 0 0 0 0 0
192 1 3 31.1018 -552 0 0 0 0 0
193 1 3 31.1018 -549 0 0 0 0 0
194 1 3 31.1018 -546 0 0 0 0 0
195 1 3 31.1018 -543 0 0 0 0 0
196 1 3 31.1018 -540 0 0 0 0 0
197 1 3 31.1018 -537 0 0 0 0 0
198 1 3 31.1018 -534 0 0 0 0 0
199 1 3 31.1018 -531 0 0 0 0 0
200 1 3 31.1018 -528 0 0 0 0 0
201 1 3 31.1018 -525 0 0 0 0 0
202 1 3 31.1018 -522 0 0 0 0 0
203 1 3 31.1018 -519 0 0 0 0 0
204 1 3 31.1018 -516 0 0 0 0 0
205 1 3 31.1018 -513 0 0 0 0 0
206 1 3 31.1018 -510 0 0 0 0 0
207 1 3 31.1018 -507 0 0 0 0 0
208 1 3 31.1018 -504 0 0 0 0 0
209 1 3 31.1018 -501 0 0 0 0 0
210 1 3 31.1018 -498 0 0 0 0 0
211 1 3 31.1018 -495 0 0 0 0 0
212 1 3 31.1018 -492 0 0 0 0 0
213 1 3 31.1018 -489 0 0 0 0 0
214 1 3 31.1018 -486 0 0 0 0 0
215 1 3 31.1018 -483 0 0 0 0 0
216 1 3 31.1018 -480 0 0 0 0 0
217 1 3 31.1018 -477 0 0 0 0 0
218 1 3 31.1018 -474 0 0 0 0 0
219 1 3 31.1018 -471 0 0 0 0 0
220 1 3 31.1018 -468 0 0 0 0 0
221 1 3 31.1018 -465 0 0 0 0 0
222 1 3 31.1018 -462 0 0 0 0 0
223 1 3 31.1018 -459 0 0 0 0 0
224 1 3 31.1018 -456 0 0 0 0 0
225 1 3 31.1018 -453 0 0 0 0 0
226 1 3 31.1018 -450 0 0 0 0 0
227 1 3 31.1018 -447 0 0 0 0 0
228 1 3 31.1018 -444 0 0 0 0 0
229 1 3 31.1018 -441 0 0 0 0 0
230 1 3 31.1018 -438 0 0 0 0 0
231 1 3 31.1018 -435 0 0 0 0 0
232 1 3 31.1018 -432 0 0 0 0 0
233 1 3 31.1018 -429 0 0 0 0 0
234 1 3 31.1018 -426 0 0 0 0 0
235 1 3 31.1018 -423 0 0 0 0 0
236 1 3 31.1018 -420 0 0 0 0 0
237 1 3 31.1018 -417 0 0 0 0 0
238 1 3 31.1018 -414 0 0 0 0 0
239 1 3 31.1018 -411 0 0 0 0 0
240 1 3 31.1018 -408 0 0 0 0 0
241 1 3 31.1018 -405 0 0 0 0 0
242 1 3 31.1018 -402 0 0 0 0 0
243 1 3 31.1018 -399 0 0 0 0 0
244 1 3 31.1018 -396 0 0 0 0 0
245 1 3 31.1018 -393 0 0 0 0 0
246 1 3 31.1018 -390 0 0 0 0 0
247 1 3 31.1018 -387 0 0 0 0 0
248 1 3 31.1018 -384 0 0 0 0 0
249 1 3 31.1018 -381 0 0 0 0 0
250 1 3 31.1018 -378 0 0 0 0 0
251 1 3 31.1018 -375 0 0 0 0 0
252 1 3 31.1018 -372 0 0 0 0 0
253 1 3 31.1018 -369 0 0 0 0 0
254 1 3 31.1018 -366 0 0 0 0 0
255 1 3 31.1018 -363 0 0 0 0 0
256 1 3 31.1018 -360 0 0 0 0 0
257 1 3 31.1018 -357 0 0 0 0 0
258 1 3 31.1018 -354 0 0 0 0 0
259 1 3 31.1018 -351 0 0 0 0 0
260 1 3 31.1018 -348 0 0 0 0 0
261 1 3 31.1018 -345 0 0 0 0 0
262 1 3 31.1018 -342 0 0 0 0 0
263 1 3 31.1018 -339 0 0 0 0 0
264 1 3 31.1018 -336 0 0 0 0 0
265 1 3 31.1018 -333 0 0 0 0 0
266 1 3 31.1018 -330 0 0 0 0 0
267 1 3 31.1018 -327 0 0 0 0 0
268 1 3 31.1018 -324 0 0 0 0 0
269 1 3 31.1018 -321 0 0 0 0 0
270 1 3 31.1018 -318 0 0 0 0 0
271 1 3 31.1018 -315 0 0 0 0 0
272 1 3 31.1018 -312 0 0 0 0 0
273 1 3 31.1018 -309 0 0 0 0 0
274 1 3 31.1018 -306 0 0 0 0 0
275 1 3 31.1018 -303 0 0 0 0 0
276 1 3 31.1018 -300 0 0 0 0 0
277 1 3 31.1018 -297 0 0 0 0 0
278 1 3 31.1018 -294 0 0 0 0 0
279 1 3 31.1018 -291 0 0 0 0 0
280 1 3 31.1018 -288 0 0 0 0 0
281 1 3 31.1018 -285 0 0 0 0 0
282 1 3 31.1018 -282 0 0 0 0 0
283 1 3 31.1018 -279 0 0 0 0 0
284 1 3 31.1018 -276 0 0 0 0 0
285 1 3 31.1018 -273 0 0 0 0 0
286 1 3 31.1018 -270 0 0 0 0 0
287 1 3 31.1018 -267 0 0 0 0 0
288 1 3 31.1018 -264 0 0 0 0 0
289 1 3 31.1018 -261 0 0 0 0 0
290 1 3 31.1018 -258 0 0 0 0 0
291 1 3 31.1018 -255 0 0 0 0 0
292 1 3 31.1018 -252 0 0 0 0 0
293 1 3 31.1018 -249 0 0 0 0 0
294 1 3 31.1018 -246 0 0 0 0 0
295 1 3 31.1018 -243 0 0 0 0 0
296 1 3 31.1018 -240 0 0 0 0 0
297 1 3 31.1018 -237 0 0 0 0 0
298 1 3 31.1018 -234 0 0 0 0 0
299 1 3 31.1018 -231 0 0 0 0 0
300 1 3 31.1018 -228 0 0 0 0 0
301 1 3 31.1018 -225 0 0 0 0 0
302 1 3 31.1018 -222 0 0 0 0 0
303 1 3 31.1018 -219 0 0 0 0 0
304 1 3 31.1018 -216 0 0 0 0 0
305 1 3 31.1018 -213 0 0 0 0 0
306 1 3 31.1018 -210 0 0 0 0 0
307 1 3 31.1018 -207 0 0 0 0 0
308 1 3 31.1018 -204 0 0 0 0 0
309 1 3 31.1018 -201 0 0 0 0 0
310 1 3 31.1018 -198 0 0 0 0 0
311 1 3 31.1018 -195 0 0 0 0 0
312 1 3 31.1018 -192 0 0 0 0 0
313 1 3 31.1018 -189 0 0 0 0 0
314 1 3 31.1018 -186 0 0 0 0 0
315 1 3 31.1018 -183 0 0 0 0 0
316 1 3 31.1018 -180 0 0 0 0 0
317 1 3 31.1018 -177 0 0 0 0 0
318 1 3 31.1018 -174 0 0 0 0 0
319 1 3 31.1018 -171 0 0 0 0 0
320 1 3 31.1018 -168 0 0 0 0 0
321 1 3 31.1018 -165 0 0 0 0 0
322 1 3 31.1018 -162 0 0 0 0 0
323 1 3 31.1018 -159 0 0 0 0 0
324 1 3 31.1018 -156 0 0 0 0 0
325 1 3 31.1018 -153 0 0 0 0 0
326 1 3 31.1018 -150 0 0 0 0 0
327 1 3 31.1018 -147 0 0 0 0 0
328 1 3 31.1018 -144 0 0 0 0 0
329 1 3 31.1018 -141 0 0 0 0 0
330 1 3 31.1018 -138 0 0 0 0 0
331 1 3 31.1018 -135 0 0 0 0 0
332 1 3 31.1018 -132 0 0 0 0 0
333 1 3 31.1018 -129 0 0 0 0 0
334 1 3 31.1018 -126 0 0 0 0 0
335 1 3 31.1018 -123 0 0 0 0 0
336 1 3 31.1018 -120 0 0 0 0 0
337 1 3 31.1018 -117 0 0 0 0 0
338 1 3 31.1018 -114 0 0 0 0 0
339 1 3 31.1018 -111 0 0 0 0 0
340 1 3 31.1018 -108 0 0 0 0 0
341 1 3 31.1018 -105 0 0 0 0 0
342 1 3 31.1018 -102 0 0 0 0 0
343 1 3 31.1018 -99 0 0 0 0 0
344 1 3 31.1018 -96 0 0 0 0 0
345 1 3 31.1018 -93 0 0 0 0 0
346 1 3 31.1018 -90 0 0 0 0 0
347 1 3 31.1018 -87 0 0 0 0 0
348 1 3 31.1018 -84 0 0 0 0 0
349 1 3 31.1018 -81 0 0 0 0 0
350 1 3 31.1018 -78 0 0 0 0 0
351 1 3 31.1018 -75 0 0 0 0 0
352 1 3 31.1018 -72 0 0 0 0 0
353 1 3 31.1018 -69 0 0 0 0 0
354 1 3 31.1018 -66 0 0 0 0 0
355 1 3 31.1018 -63 0 0 0 0 0
356 1 3 31.1018 -60 0 0 0 0 0
357 1 3 31.1018 -57 0 0 0 0 0
358 1 3 31.1018 -54 0 0 0 0 0
359 1 3 31.1018 -51 0 0 0 0 0
360 1 3 31.1018 -48 0 0 0 0 0
361 1 3 31.1018 -45 0 0 0 0 0
362 1 3 31.1018 -42 0 0 0 0 0
363 1 3 31.1018 -39 0 0 0 0 0
364 1 3 31.1018 -36 0 0 0 0 0
365 1 3 31.1018 -33 0 0 0 0 0
366 1 3 31.1018 -30 0 0 0 0 0
367 1 3 31.1018 -27 0 0 0 0 0
368 1 3 31.1018 -24 0 0 0 0 0
369 1 3 31.1018 -21 0 0 0 0 0
370 1 3 31.1018 -18 0 0 0 0 0
371 1 3 31.1018 -15 0 0 0 0 0
372 1 3 31.1018 -12 0 0 0 0 0
373 1 3 31.1018 -9 0 0 0 0 0
374 1 3 31.1018 -6 0 0 0 0 0
375 1 3 31.1018 -3 0 0 0 0 0
815 2 3 31.1018 -562.500101365322053 -3.09752e-14 2.59757462258957661 0.150908 0 -0.00313631
816 2 3 31.1018 -559.500101365321939 -3.08086e-14 2.59757462249482174 0.150091 0 -0.00311585
817 2 3 31.1018 -556.500101365321825 -3.06421e-14 2.59757462240006642 0.149273 0 -0.00309534
818 2 3 31.1018 -553.500101365321598 -3.04756e-14 2.59757462230531111 0.148455 0 -0.00307482
819 2 3 31.1018 -550.500101365321484 -3.0309e-14 2.59757462221055579 0.147637 0 -0.0030541
820 2 3 31.1018 -547.50010136532137 -3.01425e-14 2.59757462211580092 0.14682 0 -0.00303339
821 2 3 31.1018 -544.500101365321257 -2.9976e-14 2.59757462202104561 0.146002 0 -0.00301268
822 2 3 31.1018 -541.500101365321029 -2.98094e-14 2.59757462192629029 0.145184 0 -0.00299197
823 2 3 31.1018 -538.500101365320916 -2.96429e-14 2.59757462183153498 0.144366 0 -0.00297126
824 2 3 31.1018 -535.500101365320802 -2.94764e-14 2.59757462173678011 0.143548 0 -0.00295055
825 2 3 31.1018 -532.500101365320688 -2.93098e-14 2.59757462164202479 0.14273 0 -0.00292983
826 2 3 31.1018 -529.500101365320461 -2.91433e-14 2.59757462154726948 0.141912 0 -0.00290913
827 2 3 31.1018 -526.500101365320347 -2.89768e-14 2.59757462145251417 0.141094 0 -0.00288841
828 2 3 31.1018 -523.500101365320234 -2.88102e-14 2.59757462135775929 0.140276 0 -0.0028677
829 2 3 31.1018 -520.50010136532012 -2.86437e-14 2.59757462126300398 0.139458 0 -0.00284699
830 2 3 31.1018 -517.500101365319892 -2.84772e-14 2.59757462116824867 0.13864 0 -0.00282629
831 2 3 31.1018 -514.500101365319665 -2.83106e-14 2.59757462107349335 0.137822 0 -0.00280558
832 2 3 31.1018 -511.500101365319551 -2.81441e-14 2.59757462097873848 0.137004 0 -0.00278487
833 2 3 31.1018 -508.500101365319381 -2.79776e-14 2.59757462088398317 0.136186 0 -0.00276416
834 2 3 31.1018 -505.500101365319267 -2.7811e-14 2.59757462078922785 0.135368 0 -0.00274345
835 2 3 31.1018 -502.500101365319097 -2.76445e-14 2.59757462069447254 0.13455 0 -0.00272274
836 2 3 31.1018 -499.500101365318983 -2.7478e-14 2.59757462059971767 0.133732 0 -0.00270203
837 2 3 31.1018 -496.500101365318812 -2.73114e-14 2.59757462050496235 0.132914 0 -0.00268132
838 2 3 31.1018 -493.500101365318699 -2.71449e-14 2.59757462041020704 0.132096 0 -0.00266061
839 2 3 31.1018 -490.500101365318528 -2.69784e-14 2.59757462031545172 0.131278 0 -0.0026399
840 2 3 31.1018 -487.500101365318415 -2.68118e-14 2.59757462022069685 0.13046 0 -0.00261919
841 2 3 31.1018 -484.500101365318244 -2.66453e-14 2.59757462012594154 0.129642 0 -0.00259848
842 2 3 31.1018 -481.50010136531813 -2.64788e-14 2.59757462003118622 0.128824 0 -0.00257777
843 2 3 31.1018 -478.50010136531796 -2.63122e-14 2.59757461993643091 0.128006 0 -0.00255706
844 2 3 31.1018 -475.500101365317846 -2.61457e-14 2.59757461984167604 0.127188 0 -0.00253635
845 2 3 31.1018 -472.500101365317676 -2.59792e-14 2.59757461974692072 0.12637 0 -0.00251564
846 2 3 31.1018 -469.500101365317562 -2.58126e-14 2.59757461965216541 0.125552 0 -0.00249492
847 2 3 31.1018 -466.500101365317391 -2.56461e-14 2.59757461955741009 0.124734 0 -0.00247422
848 2 3 31.1018 -463.500101365317278 -2.54796e-14 2.59757461946265522 0.123916 0 -0.00245351
849 2 3 31.1018 -460.500101365317107 -2.5313e-14 2.59757461936789991 0.123098 0 -0.0024328
850 2 3 31.1018 -457.500101365316993 -2.51465e-14 2.59757461927314459 0.12228 0 -0.00241208
851 2 3 31.1018 -454.500101365316823 -2.498e-14 2.59757461917838928 0.121462 0 -0.00239138
852 2 3 31.1018 -451.500101365316709 -2.48134e-14 2.59757461908363441 0.120644 0 -0.00237067
853 2 3 31.1018 -448.500101365316539 -2.46469e-14 2.59757461898887909 0.119826 0 -0.00234996
854 2 3 31.1018 -445.500101365316425 -2.44804e-14 2.59757461889412378 0.119008 0 -0.00232924
855 2 3 31.1018 -442.500101365316254 -2.43138e-14 2.59757461879936846 0.11819 0 -0.00230854
856 2 3 31.1018 -439.500101365316141 -2.41473e-14 2.59757461870461359 0.117372 0 -0.00228783
857 2 3 31.1018 -436.50010136531597 -2.39808e-14 2.59757461860985828 0.116554 0 -0.00226712
858 2 3 31.1018 -433.500101365315857 -2.38142e-14 2.59757461851510296 0.115736 0 -0.00224641
859 2 3 31.1018 -430.500101365315686 -2.36477e-14 2.59757461842034765 0.114918 0 -0.0022257
860 2 3 31.1018 -427.500101365315572 -2.34812e-14 2.59757461832559278 0.1141 0 -0.00220499
861 2 3 31.1018 -424.500101365315402 -2.33146e-14 2.59757461823083746 0.113282 0 -0.00218428
862 2 3 31.1018 -421.500101365315288 -2.31481e-14 2.59757461813608215 0.112464 0 -0.00216357
863 2 3 31.1018 -418.500101365315118 -2.29816e-14 2.59757461804132683 0.111646 0 -0.00214286
864 2 3 31.1018 -415.500101365315004 -2.2815e-14 2.59757461794657196 0.110828 0 -0.00212215
865 2 3 31.1018 -412.500101365314833 -2.26485e-14 2.59757461785181665 0.11001 0 -0.00210144
866 2 3 31.1018 -409.50010136531472 -2.2482e-14 2.59757461775706133 0.109192 0 -0.00208073
867 2 3 31.1018 -406.500101365314549 -2.23154e-14 2.59757461766230602 0.108374 0 -0.00206002
868 2 3 31.1018 -403.500101365314435 -2.21489e-14 2.59757461756755115 0.107556 0 -0.00203931
869 2 3 31.1018 -400.500101365314265 -2.19824e-14 2.59757461747279583 0.106738 0 -0.0020186
870 2 3 31.1018 -397.500101365314151 -2.18158e-14 2.59757461737804052 0.10592 0 -0.00199789
871 2 3 31.1018 -394.500101365313981 -2.16493e-14 2.5975746172832852 0.105102 0 -0.00197718
872 2 3 31.1018 -391.500101365313867 -2.14828e-14 2.59757461718853033 0.104284 0 -0.00195647
873 2 3 31.1018 -388.500101365313697 -2.13162e-14 2.59757461709377502 0.103466 0 -0.00193577
874 2 3 31.1018 -385.500101365313583 -2.11497e-14 2.5975746169990197 0.102648 0 -0.00191505
875 2 3 31.1018 -382.500101365313469 -2.09832e-14 2.59757461690426439 0.10183 0 -0.00189434
876 2 3 31.1018 -379.500101365313299 -2.08166e-14 2.59757461680950952 0.101012 0 -0.00187364
877 2 3 31.1018 -376.500101365313185 -2.06501e-14 2.5975746167147542 0.100194 0 -0.00185292
878 2 3 31.1018 -373.500101365313014 -2.04836e-14 2.59757461661999889 0.0993762 0 -0.00183222
879 2 3 31.1018 -370.500101365312901 -2.0317e-14 2.59757461652524357 0.0985583 0 -0.00181151
880 2 3 31.1018 -367.50010136531273 -2.01505e-14 2.5975746164304887 0.0977402 0 -0.0017908
881 2 3 31.1018 -364.500101365312617 -1.9984e-14 2.59757461633573339 0.0969223 0 -0.00177009
882 2 3 31.1018 -361.500101365312446 -1.98174e-14 2.59757461624097807 0.0961042 0 -0.00174938
883 2 3 31.1018 -358.500101365312332 -1.96509e-14 2.59757461614622276 0.0952863 0 -0.00172867
884 2 3 31.1018 -355.500101365312162 -1.94844e-14 2.59757461605146789 0.0944683 0 -0.00170796
885 2 3 31.1018 -352.500101365312048 -1.93178e-14 2.59757461595671257 0.0936503 0 -0.00168725
886 2 3 31.1018 -349.500101365311878 -1.91513e-14 2.59757461586195726 0.0928323 0 -0.00166655
887 2 3 31.1018 -346.500101365311764 -1.89848e-14 2.59757461576720194 0.0920143 0 -0.00164583
888 2 3 31.1018 -343.500101365311593 -1.88182e-14 2.59757461567244707 0.0911963 0 -0.00162513
889 2 3 31.1018 -340.50010136531148 -1.86517e-14 2.59757461557769176 0.0903783 0 -0.00160442
890 2 3 31.1018 -337.500101365311309 -1.84852e-14 2.59757461548293644 0.0895603 0 -0.00158371
891 2 3 31.1018 -334.500101365311195 -1.83186e-14 2.59757461538818113 0.0887423 0 -0.001563
892 2 3 31.1018 -331.500101365311025 -1.81521e-14 2.59757461529342626 0.0879243 0 -0.00154229
893 2 3 31.1018 -328.500101365310911 -1.79856e-14 2.59757461519867094 0.0871064 0 -0.00152158
894 2 3 31.1018 -325.500101365310741 -1.7819e-14 2.59757461510391563 0.0862883 0 -0.00150088
895 2 3 31.1018 -322.500101365310627 -1.76525e-14 2.59757461500916031 0.0854704 0 -0.00148017
896 2 3 31.1018 -319.500101365310456 -1.7486e-14 2.59757461491440544 0.0846523 0 -0.00145946
897 2 3 31.1018 -316.500101365310343 -1.73194e-14 2.59757461481965013 0.0838344 0 -0.00143875
898 2 3 31.1018 -313.500101365310172 -1.71529e-14 2.59757461472489481 0.0830164 0 -0.00141804
899 2 3 31.1018 -310.500101365310059 -1.69864e-14 2.5975746146301395 0.0821984 0 -0.00139733
900 2 3 31.1018 -307.500101365309888 -1.68198e-14 2.59757461453538463 0.0813804 0 -0.00137663
901 2 3 31.1018 -304.500101365309774 -1.66533e-14 2.59757461444062931 0.0805624 0 -0.00135591
902 2 3 31.1018 -301.500101365309604 -1.64868e-14 2.597574614345874 0.0797444 0 -0.00133521
903 2 3 31.1018 -298.50010136530949 -1.63202e-14 2.59757461425111869 0.0789264 0 -0.0013145
904 2 3 31.1018 -295.50010136530932 -1.61537e-14 2.59757461415636381 0.0781084 0 -0.00129379
905 2 3 31.1018 -292.500101365309206 -1.59872e-14 2.5975746140616085 0.0772904 0 -0.00127308
906 2 3 31.1018 -289.500101365309035 -1.58206e-14 2.59757461396685319 0.0764724 0 -0.00125238
907 2 3 31.1018 -286.500101365308922 -1.56541e-14 2.59757461387209787 0.0756544 0 -0.00123166
908 2 3 31.1018 -283.500101365308751 -1.54876e-14 2.597574613777343 0.0748364 0 -0.00121096
909 2 3 31.1018 -280.500101365308637 -1.5321e-14 2.59757461368258769 0.0740184 0 -0.00119025
910 2 3 31.1018 -277.500101365308467 -1.51545e-14 2.59757461358783237 0.0732004 0 -0.00116955
911 2 3 31.1018 -274.500101365308353 -1.4988e-14 2.59757461349307706 0.0723824 0 -0.00114883
912 2 3 31.1018 -271.500101365308183 -1.48214e-14 2.59757461339832219 0.0715644 0 -0.00112813
913 2 3 31.1018 -268.500101365308069 -1.46549e-14 2.59757461330356687 0.0707465 0 -0.00110742
914 2 3 31.1018 -265.500101365307899 -1.44884e-14 2.59757461320881156 0.0699284 0 -0.00108671
915 2 3 31.1018 -262.500101365307785 -1.43218e-14 2.59757461311405624 0.0691105 0 -0.001066
916 2 3 31.1018 -259.500101365307671 -1.41553e-14 2.59757461301930137 0.0682925 0 -0.00104529
917 2 3 31.1018 -256.500101365307501 -1.39888e-14 2.59757461292454606 0.0674745 0 -0.00102459
918 2 3 31.1018 -253.500101365307387 -1.38222e-14 2.59757461282979074 0.0666565 0 -0.00100388
919 2 3 31.1018 -250.500101365307245 -1.36557e-14 2.59757461273503543 0.0658385 0 -0.000983169
920 2 3 31.1018 -247.500101365307103 -1.34892e-14 2.59757461264028056 0.0650205 0 -0.000962462
921 2 3 31.1018 -244.500101365306961 -1.33226e-14 2.59757461254552524 0.0642025 0 -0.000941754
922 2 3 31.1018 -241.500101365306818 -1.31561e-14 2.59757461245076993 0.0633845 0 -0.000921046
923 2 3 31.1018 -238.500101365306676 -1.29896e-14 2.59757461235601461 0.0625665 0 -0.000900338
924 2 3 31.1018 -235.500101365306534 -1.2823e-14 2.59757461226125974 0.0617485 0 -0.000879632
925 2 3 31.1018 -232.500101365306392 -1.26565e-14 2.59757461216650443 0.0609305 0 -0.000858924
926 2 3 31.1018 -229.50010136530625 -1.249e-14 2.59757461207174911 0.0601125 0 -0.000838217
927 2 3 31.1018 -226.500101365306108 -1.23234e-14 2.5975746119769938 0.0592945 0 -0.000817508
928 2 3 31.1018 -223.500101365305966 -1.21569e-14 2.59757461188223893 0.0584765 0 -0.000796802
929 2 3 31.1018 -220.500101365305824 -1.19904e-14 2.59757461178748361 0.0576585 0 -0.000776095
930 2 3 31.1018 -217.500101365305682 -1.18238e-14 2.5975746116927283 0.0568405 0 -0.000755386
931 2 3 31.1018 -214.50010136530554 -1.16573e-14 2.59757461159797298 0.0560225 0 -0.000734679
932 2 3 31.1018 -211.500101365305397 -1.14908e-14 2.59757461150321811 0.0552045 0 -0.000713973
933 2 3 31.1018 -208.500101365305255 -1.13242e-14 2.5975746114084628 0.0543865 0 -0.000693265
934 2 3 31.1018 -205.500101365305113 -1.11577e-14 2.59757461131370748 0.0535685 0 -0.000672557
935 2 3 31.1018 -202.500101365304971 -1.09912e-14 2.59757461121895217 0.0527505 0 -0.000651849
936 2 3 31.1018 -199.500101365304829 -1.08247e-14 2.5975746111241973 0.0519325 0 -0.000631143
937 2 3 31.1018 -196.500101365304687 -1.06581e-14 2.59757461102944198 0.0511145 0 -0.000610436
938 2 3 31.1018 -193.500101365304573 -1.04916e-14 2.59757461093468667 0.0502965 0 -0.000589727
939 2 3 31.1018 -190.500101365304431 -1.03251e-14 2.59757461083993135 0.0494785 0 -0.000569019
940 2 3 31.1018 -187.500101365304289 -1.01585e-14 2.59757461074517648 0.0486605 0 -0.000548312
941 2 3 31.1018 -184.500101365304147 -9.99198e-15 2.59757461065042117 0.0478425 0 -0.000527606
942 2 3 31.1018 -181.500101365304005 -9.82545e-15 2.59757461055566585 0.0470245 0 -0.000506898
943 2 3 31.1018 -178.500101365303863 -9.65892e-15 2.59757461046091054 0.0462065 0 -0.000486191
944 2 3 31.1018 -175.500101365303721 -9.49239e-15 2.59757461036615567 0.0453885 0 -0.000465485
945 2 3 31.1018 -172.500101365303578 -9.32585e-15 2.59757461027140035 0.0445705 0 -0.000444779