ITEM: TIMESTEP
3200000
ITEM: NUMBER OF ATOMS
4751
ITEM: BOX BOUNDS pp pp pp
-4.2750000000000000e+03 4.2750000000000000e+03
-1.0000000000000000e+02 1.0000000000000000e+02
-1.0000000000000000e+02 1.0000000000000000e+02
ITEM: ATOMS id type diameter mass xu yu zu fx fy fz
1 1 3 31.1018 -4275 0 0 0 0 0
2 1 3 31.1018 -4272 0 0 0 0 0
3 1 3 31.1018 -4269 0 0 0 0 0
4 1 3 31.1018 -4266 0 0 0 0 0
5 1 3 31.1018 -4263 0 0 0 0 0
6 1 3 31.1018 -4260 0 0 0 0 0
7 1 3 31.1018 -4257 0 0 0 0 0
8 1 3 31.1018 -4254 0 0 0 0 0
9 1 3 31.1018 -4251 0 0 0 0 0
10 1 3 31.1018 -4248 0 0 0 0 0
11 1 3 31.1018 -4245 0 0 0 0 0
12 1 3 31.1018 -4242 0 0 0 0 0
13 1 3 31.1018 -4239 0 0 0 0 0
14 1 3 31.1018 -4236 0 0 0 0 0
15 1 3 31.1018 -4233 0 0 0 0 0
16 1 3 31.1018 -4230 0 0 0 0 0
17 1 3 31.1018 -4227 0 0 0 0 0
18 1 3 31.1018 -4224 0 0 0 0 0
19 1 3 31.1018 -4221 0 0 0 0 0
20 1 3 31.1018 -4218 0 0 0 0 0
21 1 3 31.1018 -4215 0 0 0 0 0
22 1 3 31.1018 -4212 0 0 0 0 0
23 1 3 31.1018 -4209 0 0 0 0 0
24 1 3 31.1018 -4206 0 0 0 0 0
25 1 3 31.1018 -4203 0 0 0 0 0
26 1 3 31.1018 -4200 0 0 0 0 0
27 1 3 31.1018 -4197 0 0 0 0 0
28 1 3 31.1018 -4194 0 0 0 0 0
29 1 3 31.1018 -4191 0 0 0 0 0
30 1 3 31.1018 -4188 0 0 0 0 0
31 1 3 31.1018 -4185 0 0 0 0 0
32 1 3 31.1018 -4182 0 0 0 0 0
33 1 3 31.1018 -4179 0 0 0 0 0
34 1 3 31.1018 -4176 0 0 0 0 0
35 1 3 31.1018 -4173 0 0 0 0 0
36 1 3 31.1018 -4170 0 0 0 0 0
37 1 3 31.1018 -4167 0 0 0 0 0
38 1 3 31.1018 -4164 0 0 0 0 0
39 1 3 31.1018 -4161 0 0 0 0 0
40 1 3 31.1018 -4158 0 0 0 0 0
41 1 3 31.1018 -4155 0 0 0 0 0
42 1 3 31.1018 -4152 0 0 0 0 0
43 1 3 31.1018 -4149 0 0 0 0 0
44 1 3 31.1018 -4146 0 0 0 0 0
45 1 3 31.1018 -4143 0 0 0 0 0
46 1 3 31.1018 -4140 0 0 0 0 0
47 1 3 31.1018 -4137 0 0 0 0 0
48 1 3 31.1018 -4134 0 0 0 0 0
49 1 3 31.1018 -4131 0 0 0 0 0
50 1 3 31.1018 -4128 0 0 0 0 0
51 1 3 31.1018 -4125 0 0 0 0 0
52 1 3 31.1018 -4122 0 0 0 0 0
53 1 3 31.1018 -4119 0 0 0 0 0
54 1 3 31.1018 -4116 0 0 0 0 0
55 1 3 31.1018 -4113 0 0 0 0 0
56 1 3 31.1018 -4110 0 0 0 0 0
57 1 3 31.1018 -4107 0 0 0 0 0
58 1 3 31.1018 -4104 0 0 0 0 0
59 1 3 31.1018 -4101 0 0 0 0 0
60 1 3 31.1018 -4098 0 0 0 0 0
61 1 3 31.1018 -4095 0 0 0 0 0
62 1 3 31.1018 -4092 0 0 0 0 0
63 1 3 31.1018 -4089 0 0 0 0 0
64 1 3 31.1018 -4086 0 0 0 0 0
65 1 3 31.1018 -4083 0 0 0 0 0
66 1 3 31.1018 -4080 0 0 0 0 0
67 1 3 31.1018 -4077 0 0 0 0 0
68 1 3 31.1018 -4074 0 0 0 0 0
69 1 3 31.1018 -4071 0 0 0 0 0
70 1 3 31.1018 -4068 0 0 0 0 0
71 1 3 31.1018 -4065 0 0 0 0 0
72 1 3 31.1018 -4062 0 0 0 0 0
73 1 3 31.1018 -4059 0 0 0 0 0
74 1 3 31.1018 -4056 0 0 0 0 0
75 1 3 31.1018 -4053 0 0 0 0 0
76 1 3 31.1018 -4050 0 0 0 0 0
77 1 3 31.1018 -4047 0 0 0 0 0
78 1 3 31.1018 -4044 0 0 0 0 0
79 1 3 31.1018 -4041 0 0 0 0 0
80 1 3 31.1018 -4038 0 0 0 0 0
81 1 3 31.1018 -4035 0 0 0 0 0
82 1 3 31.1018 -4032 0 0 0 0 0
83 1 3 31.1018 -4029 0 0 0 0 0
84 1 3 31.1018 -4026 0 0 0 0 0
85 1 3 31.1018 -4023 0 0 0 0 0
86 1 3 31.1018 -4020 0 0 0 0 0
87 1 3 31.1018 -4017 0 0 0 0 0
88 1 3 31.1018 -4014 0 0 0 0 0
89 1 3 31.1018 -4011 0 0 0 0 0
90 1 3 31.1018 -4008 0 0 0 0 0
91 1 3 31.1018 -4005 0 0 0 0 0
92 1 3 31.1018 -4002 0 0 0 0 0
93 1 3 31.1018 -3999 0 0 0 0 0
94 1 3 31.1018 -3996 0 0 0 0 0
95 1 3 31.1018 -3993 0 0 0 0 0
96 1 3 31.1018 -3990 0 0 0 0 0
97 1 3 31.1018 -3987 0 0 0 0 0
98 1 3 31.1018 -3984 0 0 0 0 0
99 1 3 31.1018 -3981 0 0 0 0 0
100 1 3 31.1018 -3978 0 0 0 0 0
101 1 3 31.1018 -3975 0 0 0 0 0
102 1 3 31.1018 -3972 0 0 0 0 0
103 1 3 31.1018 -3969 0 0 0 0 0
104 1 3 31.1018 -3966 0 0 0 0 0
105 1 3 31.1018 -3963 0 0 0 0 0
106 1 3 31.1018 -3960 0 0 0 0 0
107 1 3 31.1018 -3957 0 0 0 0 0
108 1 3 31.1018 -3954 0 0 0 0 0
109 1 3 31.1018 -3951 0 0 0 0 0
110 1 3 31.1018 -3948 0 0 0 0 0
111 1 3 31.1018 -3945 0 0 0 0 0
112 1 3 31.1018 -3942 0 0 0 0 0
113 1 3 31.1018 -3939 0 0 0 0 0
114 1 3 31.1018 -3936 0 0 0 0 0
115 1 3 31.1018 -3933 0 0 0 0 0
116 1 3 31.1018 -3930 0 0 0 0 0
117 1 3 31.1018 -3927 0 0 0 0 0
118 1 3 31.1018 -3924 0 0 0 0 0
119 1 3 31.1018 -3921 0 0 0 0 0
120 1 3 31.1018 -3918 0 0 0 0 0
121 1 3 31.1018 -3915 0 0 0 0 0
122 1 3 31.1018 -3912 0 0 0 0 0
123 1 3 31.1018 -3909 0 0 0 0 0
124 1 3 31.1018 -3906 0 0 0 0 0
125 1 3 31.1018 -3903 0 0 0 0 0
126 1 3 31.1018 -3900 0 0 0 0 0
127 1 3 31.1018 -3897 0 0 0 0 0
128 1 3 31.1018 -3894 0 0 0 0 0
129 1 3 31.1018 -3891 0 0 0 0 0
130 1 3 31.1018 -3888 0 0 0 0 0
131 1 3 31.1018 -3885 0 0 0 0 0
132 1 3 31.1018 -3882 0 0 0 0 0
133 1 3 31.1018 -3879 0 0 0 0 0
134 1 3 31.1018 -3876 0 0 0 0 0
135 1 3 31.1018 -3873 0 0 0 0 0
136 1 3 31.1018 -3870 0 0 0 0 0
137 1 3 31.1018 -3867 0 0 0 0 0
138 1 3 31.1018 -3864 0 0 0 0 0
139 1 3 31.1018 -3861 0 0 0 0 0
140 1 3 31.1018 -3858 0 0 0 0 0
141 1 3 31.1018 -3855 0 0 0 0 0
142 1 3 31.1018 -3852 0 0 0 0 0
143 1 3 31.1018 -3849 0 0 0 0 0
144 1 3 31.1018 -3846 0 0 0 0 0
145 1 3 31.1018 -3843 0 0 0 0 0
146 1 3 31.1018 -3840 0 0 0 0 0
147 1 3 31.1018 -3837 0 0 0 0 0
148 1 3 31.1018 -3834 0 0 0 0 0
149 1 3 31.1018 -3831 0 0 0 0 0
150 1 3 31.1018 -3828 0 0 0 0 0
151 1 3 31.1018 -3825 0 0 0 0 0
152 1 3 31.1018 -3822 0 0 0 0 0
153 1 3 31.1018 -3819 0 0 0 0 0
154 1 3 31.1018 -3816 0 0 0 0 0
155 1 3 31.1018 -3813 0 0 0 0 0
156 1 3 31.1018 -3810 0 0 0 0 0
157 1 3 31.1018 -3807 0 0 0 0 0
158 1 3 31.1018 -3804 0 0 0 0 0
159 1 3 31.1018 -3801 0 0 0 0 0
160 1 3 31.1018 -3798 0 0 0 0 0
161 1 3 31.1018 -3795 0 0 0 0 0
162 1 3 31.1018 -3792 0 0 0 0 0
163 1 3 31.1018 -3789 0 0 0 0 0
164 1 3 31.1018 -3786 0 0 0 0 0
165 1 3 31.1018 -3783 0 0 0 0 0
166 1 3 31.1018 -3780 0 0 0 0 0
167 1 3 31.1018 -3777 0 0 0 0 0
168 1 3 31.1018 -3774 0 0 0 0 0
169 1 3 31.1018 -3771 0 0 0 0 0
170 1 3 31.1018 -3768 0 0 0 0 0
171 1 3 31.1018 -3765 0 0 0 0 0
172 1 3 31.1018 -3762 0 0 0 0 0
173 1 3 31.1018 -3759 0 0 0 0 0
174 1 3 31.1018 -3756 0 0 0 0 0
175 1 3 31.1018 -3753 0 0 0 0 0
176 1 3 31.1018 -3750 0 0 0 0 0
177 1 3 31.1018 -3747 0 0 0 0 0
178 1 3 31.1018 -3744 0 0 0 0 0
179 1 3 31.1018 -3741 0 0 0 0 0
180 1 3 31.1018 -3738 0 0 0 0 0
181 1 3 31.1018 -3735 0 0 0 0 0
182 1 3 31.1018 -3732 0 0 0 0 0
183 1 3 31.1018 -3729 0 0 0 0 0
184 1 3 31.1018 -3726 0 0 0 0 0
185 1 3 31.1018 -3723 0 0 0 0 0
186 1 3 31.1018 -3720 0 0 0 0 0
187 1 3 31.1018 -3717 0 0 0 0 0
188 1 3 31.1018 -3714 0 0 0 0 0
189 1 3 31.1018 -3711 0 0 0 0 0
190 1 3 31.1018 -3708 0 0 0 0 0
191 1 3 31.1018 -3705 0 0 0 0 0
192 1 3 31.1018 -3702 0 0 0 0 0
193 1 3 31.1018 -3699 0 0 0 0 0
194 1 3 31.1018 -3696 0 0 0 0 0
195 1 3 31.1018 -3693 0 0 0 0 0
196 1 3 31.1018 -3690 0 0 0 0 0
197 1 3 31.1018 -3687 0 0 0 0 0
198 1 3 31.1018 -3684 0 0 0 0 0
199 1 3 31.1018 -3681 0 0 0 0 0
200 1 3 31.1018 -3678 0 0 0 0 0
201 1 3 31.1018 -3675 0 0 0 0 0
202 1 3 31.1018 -3672 0 0 0 0 0
203 1 3 31.1018 -3669 0 0 0 0 0
204 1 3 31.1018 -3666 0 0 0 0 0
205 1 3 31.1018 -3663 0 0 0 0 0
206 1 3 31.1018 -3660 0 0 0 0 0
207 1 3 31.1018 -3657 0 0 0 0 0
208 1 3 31.1018 -3654 0 0 0 0 0
209 1 3 31.1018 -3651 0 0 0 0 0
210 1 3 31.1018 -3648 0 0 0 0 0
211 1 3 31.1018 -3645 0 0 0 0 0
212 1 3 31.1018 -3642 0 0 0 0 0
213 1 3 31.1018 -3639 0 0 0 0 0
214 1 3 31.1018 -3636 0 0 0 0 0
215 1 3 31.1018 -3633 0 0 0 0 0
216 1 3 31.1018 -3630 0 0 0 0 0
217 1 3 31.1018 -3627 0 0 0 0 0
218 1 3 31.1018 -3624 0 0 0 0 0
219 1 3 31.1018 -3621 0 0 0 0 0
220 1 3 31.1018 -3618 0 0 0 0 0
221 1 3 31.1018 -3615 0 0 0 0 0
222 1 3 31.1018 -3612 0 0 0 0 0
223 1 3 31.1018 -3609 0 0 0 0 0
224 1 3 31.1018 -3606 0 0 0 0 0
225 1 3 31.1018 -3603 0 0 0 0 0
226 1 3 31.1018 -3600 0 0 0 0 0
227 1 3 31.1018 -3597 0 0 0 0 0
228 1 3 31.1018 -3594 0 0 0 0 0
229 1 3 31.1018 -3591 0 0 0 0 0
230 1 3 31.1018 -3588 0 0 0 0 0
231 1 3 31.1018 -3585 0 0 0 0 0
232 1 3 31.1018 -3582 0 0 0 0 0
233 1 3 31.1018 -3579 0 0 0 0 0
234 1 3 31.1018 -3576 0 0 0 0 0
235 1 3 31.1018 -3573 0 0 0 0 0
236 1 3 31.1018 -3570 0 0 0 0 0
237 1 3 31.1018 -3567 0 0 0 0 0
238 1 3 31.1018 -3564 0 0 0 0 0
239 1 3 31.1018 -3561 0 0 0 0 0
240 1 3 31.1018 -3558 0 0 0 0 0
241 1 3 31.1018 -3555 0 0 0 0 0
242 1 3 31.1018 -3552 0 0 0 0 0
243 1 3 31.1018 -3549 0 0 0 0 0
244 1 3 31.1018 -3546 0 0 0 0 0
245 1 3 31.1018 -3543 0 0 0 0 0
246 1 3 31.1018 -3540 0 0 0 0 0
247 1 3 31.1018 -3537 0 0 0 0 0
248 1 3 31.1018 -3534 0 0 0 0 0
249 1 3 31.1018 -3531 0 0 0 0 0
250 1 3 31.1018 -3528 0 0 0 0 0
251 1 3 31.1018 -3525 0 0 0 0 0
252 1 3 31.1018 -3522 0 0 0 0 0
253 1 3 31.1018 -3519 0 0 0 0 0
254 1 3 31.1018 -3516 0 0 0 0 0
255 1 3 31.1018 -3513 0 0 0 0 0
256 1 3 31.1018 -3510 0 0 0 0 0
257 1 3 31.1018 -3507 0 0 0 0 0
258 1 3 31.1018 -3504 0 0 0 0 0
259 1 3 31.1018 -3501 0 0 0 0 0
260 1 3 31.1018 -3498 0 0 0 0 0
261 1 3 31.1018 -3495 0 0 0 0 0
262 1 3 31.1018 -3492 0 0 0 0 0
263 1 3 31.1018 -3489 0 0 0 0 0
264 1 3 31.1018 -3486 0 0 0 0 0
265 1 3 31.1018 -3483 0 0 0 0 0
266 1 3 31.1018 -3480 0 0 0 0 0
267 1 3 31.1018 -3477 0 0 0 0 0
268 1 3 31.1018 -3474 0 0 0 0 0
269 1 3 31.1018 -3471 0 0 0 0 0
270 1 3 31.1018 -3468 0 0 0 0 0
271 1 3 31.1018 -3465 0 0 0 0 0
272 1 3 31.1018 -3462 0 0 0 0 0
273 1 3 31.1018 -3459 0 0 0 0 0
274 1 3 31.1018 -3456 0 0 0 0 0
275 1 3 31.1018 -3453 0 0 0 0 0
276 1 3 31.1018 -3450 0 0 0 0 0
277 1 3 31.1018 -3447 0 0 0 0 0
278 1 3 31.1018 -3444 0 0 0 0 0
279 1 3 31.1018 -3441 0 0 0 0 0
280 1 3 31.1018 -3438 0 0 0 0 0
281 1 3 31.1018 -3435 0 0 0 0 0
282 1 3 31.1018 -3432 0 0 0 0 0
283 1 3 31.1018 -3429 0 0 0 0 0
284 1 3 31.1018 -3426 0 0 0 0 0
285 1 3 31.1018 -3423 0 0 0 0 0
286 1 3 31.1018 -3420 0 0 0 0 0
287 1 3 31.1018 -3417 0 0 0 0 0
288 1 3 31.1018 -3414 0 0 0 0 0
289 1 3 31.1018 -3411 0 0 0 0 0
290 1 3 31.1018 -3408 0 0 0 0 0
291 1 3 31.1018 -3405 0 0 0 0 0
292 1 3 31.1018 -3402 0 0 0 0 0
293 1 3 31.1018 -3399 0 0 0 0 0
294 1 3 31.1018 -3396 0 0 0 0 0
295 1 3 31.1018 -3393 0 0 0 0 0
296 1 3 31.1018 -3390 0 0 0 0 0
297 1 3 31.1018 -3387 0 0 0 0 0
298 1 3 31.1018 -3384 0 0 0 0 0
299 1 3 31.1018 -3381 0 0 0 0 0
300 1 3 31.1018 -3378 0 0 0 0 0
301 1 3 31.1018 -3375 0 0 0 0 0
302 1 3 31.1018 -3372 0 0 0 0 0
303 1 3 31.1018 -3369 0 0 0 0 0
304 1 3 31.1018 -3366 0 0 0 0 0
305 1 3 31.1018 -3363 0 0 0 0 0
306 1 3 31.1018 -3360 0 0 0 0 0
307 1 3 31.1018 -3357 0 0 0 0 0
308 1 3 31.1018 -3354 0 0 0 0 0
309 1 3 31.1018 -3351 0 0 0 0 0
310 1 3 31.1018 -3348 0 0 0 0 0
311 1 3 31.1018 -3345 0 0 0 0 0
312 1 3 31.1018 -3342 0 0 0 0 0
313 1 3 31.1018 -3339 0 0 0 0 0
314 1 3 31.1018 -3336 0 0 0 0 0
315 1 3 31.1018 -3333 0 0 0 0 0
316 1 3 31.1018 -3330 0 0 0 0 0
317 1 3 31.1018 -3327 0 0 0 0 0
318 1 3 31.1018 -3324 0 0 0 0 0
319 1 3 31.1018 -3321 0 0 0 0 0
320 1 3 31.1018 -3318 0 0 0 0 0
321 1 3 31.1018 -3315 0 0 0 0 0
322 1 3 31.1018 -3312 0 0 0 0 0
323 1 3 31.1018 -3309 0 0 0 0 0
324 1 3 31.1018 -3306 0 0 0 0 0
325 1 3 31.1018 -3303 0 0 0 0 0
326 1 3 31.1018 -3300 0 0 0 0 0
327 1 3 31.1018 -3297 0 0 0 0 0
328 1 3 31.1018 -3294 0 0 0 0 0
329 1 3 31.1018 -3291 0 0 0 0 0
330 1 3 31.1018 -3288 0 0 0 0 0
331 1 3 31.1018 -3285 0 0 0 0 0
332 1 3 31.1018 -3282 0 0 0 0 0
333 1 3 31.1018 -3279 0 0 0 0 0
334 1 3 31.1018 -3276 0 0 0 0 0
335 1 3 31.1018 -3273 0 0 0 0 0
336 1 3 31.1018 -3270 0 0 0 0 0
337 1 3 31.1018 -3267 0 0 0 0 0
338 1 3 31.1018 -3264 0 0 0 0 0
339 1 3 31.1018 -3261 0 0 0 0 0
340 1 3 31.1018 -3258 0 0 0 0 0
341 1 3 31.1018 -3255 0 0 0 0 0
342 1 3 31.1018 -3252 0 0 0 0 0
343 1 3 31.1018 -3249 0 0 0 0 0
344 1 3 31.1018 -3246 0 0 0 0 0
345 1 3 31.1018 -3243 0 0 0 0 0
346 1 3 31.1018 -3240 0 0 0 0 0
347 1 3 31.1018 -3237 0 0 0 0 0
348 1 3 31.1018 -3234 0 0 0 0 0
349 1 3 31.1018 -3231 0 0 0 0 0
350 1 3 31.1018 -3228 0 0 0 0 0
351 1 3 31.1018 -3225 0 0 0 0 0
352 1 3 31.1018 -3222 0 0 0 0 0
353 1 3 31.1018 -3219 0 0 0 0 0
354 1 3 31.1018 -3216 0 0 0 0 0
355 1 3 31.1018 -3213 0 0 0 0 0
356 1 3 31.1018 -3210 0 0 0 0 0
357 1 3 31.1018 -3207 0 0 0 0 0
358 1 3 31.1018 -3204 0 0 0 0 0
359 1 3 31.1018 -3201 0 0 0 0 0
360 1 3 31.1018 -3198 0 0 0 0 0
361 1 3 31.1018 -3195 0 0 0 0 0
362 1 3 31.1018 -3192 0 0 0 0 0
363 1 3 31.1018 -3189 0 0 0 0 0
364 1 3 31.1018 -3186 0 0 0 0 0
365 1 3 31.1018 -3183 0 0 0 0 0
366 1 3 31.1018 -3180 0 0 0 0 0
367 1 3 31.1018 -3177 0 0 0 0 0
368 1 3 31.1018 -3174 0 0 0 0 0
369 1 3 31.1018 -3171 0 0 0 0 0
370 1 3 31.1018 -3168 0 0 0 0 0
371 1 3 31.1018 -3165 0 0 0 0 0
372 1 3 31.1018 -3162 0 0 0 0 0
373 1 3 31.1018 -3159 0 0 0 0 0
374 1 3 31.1018 -3156 0 0 0 0 0
375 1 3 31.1018 -3153 0 0 0 0 0
376 1 3 31.1018 -3150 0 0 0 0 0
377 1 3 31.1018 -3147 0 0 0 0 0
378 1 3 31.1018 -3144 0 0 0 0 0
379 1 3 31.1018 -3141 0 0 0 0 0
380 1 3 31.1018 -3138 0 0 0 0 0
381 1 3 31.1018 -3135 0 0 0 0 0
382 1 3 31.1018 -3132 0 0 0 0 0
383 1 3 31.1018 -3129 0 0 0 0 0
384 1 3 31.1018 -3126 0 0 0 0 0
385 1 3 31.1018 -3123 0 0 0 0 0
386 1 3 31.1018 -3120 0 0 0 0 0
387 1 3 31.1018 -3117 0 0 0 0 0
388 1 3 31.1018 -3114 0 0 0 0 0
389 1 3 31.1018 -3111 0 0 0 0 0
390 1 3 31.1018 -3108 0 0 0 0 0
391 1 3 31.1018 -3105 0 0 0 0 0
392 1 3 31.1018 -3102 0 0 0 0 0
393 1 3 31.1018 -3099 0 0 0 0 0
394 1 3 31.1018 -3096 0 0 0 0 0
395 1 3 31.1018 -3093 0 0 0 0 0
396 1 3 31.1018 -3090 0 0 0 0 0
397 1 3 31.1018 -3087 0 0 0 0 0
398 1 3 31.1018 -3084 0 0 0 0 0
399 1 3 31.1018 -3081 0 0 0 0 0
400 1 3 31.1018 -3078 0 0 0 0 0
401 1 3 31.1018 -3075 0 0 0 0 0
402 1 3 31.1018 -3072 0 0 0 0 0
403 1 3 31.1018 -3069 0 0 0 0 0
404 1 3 31.1018 -3066 0 0 0 0 0
405 1 3 31.1018 -3063 0 0 0 0 0
406 1 3 31.1018 -3060 0 0 0 0 0
407 1 3 31.1018 -3057 0 0 0 0 0
408 1 3 31.1018 -3054 0 0 0 0 0
409 1 3 31.1018 -3051 0 0 0 0 0
410 1 3 31.1018 -3048 0 0 0 0 0
411 1 3 31.1018 -3045 0 0 0 0 0
412 1 3 31.1018 -3042 0 0 0 0 0
413 1 3 31.1018 -3039 0 0 0 0 0
414 1 3 31.1018 -3036 0 0 0 0 0
415 1 3 31.1018 -3033 0 0 0 0 0
416 1 3 31.1018 -3030 0 0 0 0 0
417 1 3 31.1018 -3027 0 0 0 0 0
418 1 3 31.1018 -3024 0 0 0 0 0
419 1 3 31.1018 -3021 0 0 0 0 0
420 1 3 31.1018 -3018 0 0 0 0 0
421 1 3 31.1018 -3015 0 0 0 0 0
422 1 3 31.1018 -3012 0 0 0 0 0
423 1 3 31.1018 -3009 0 0 0 0 0
424 1 3 31.1018 -3006 0 0 0 0 0
425 1 3 31.1018 -3003 0 0 0 0 0
426 1 3 31.1018 -3000 0 0 0 0 0
427 1 3 31.1018 -2997 0 0 0 0 0
428 1 3 31.1018 -2994 0 0 0 0 0
429 1 3 31.1018 -2991 0 0 0 0 0
430 1 3 31.1018 -2988 0 0 0 0 0
431 1 3 31.1018 -2985 0 0 0 0 0
432 1 3 31.1018 -2982 0 0 0 0 0
433 1 3 31.1018 -2979 0 0 0 0 0
434 1 3 31.1018 -2976 0 0 0 0 0
435 1 3 31.1018 -2973 0 0 0 0 0
436 1 3 31.1018 -2970 0 0 0 0 0
437 1 3 31.1018 -2967 0 0 0 0 0
438 1 3 31.1018 -2964 0 0 0 0 0
439 1 3 31.1018 -2961 0 0 0 0 0
440 1 3 31.1018 -2958 0 0 0 0 0
441 1 3 31.1018 -2955 0 0 0 0 0
442 1 3 31.1018 -2952 0 0 0 0 0
443 1 3 31.1018 -2949 0 0 0 0 0
444 1 3 31.1018 -2946 0 0 0 0 0
445 1 3 31.1018 -2943 0 0 0 0 0
446 1 3 31.1018 -2940 0 0 0 0 0
447 1 3 31.1018 -2937 0 0 0 0 0
448 1 3 31.1018 -2934 0 0 0 0 0
449 1 3 31.1018 -2931 0 0 0 0 0
450 1 3 31.1018 -2928 0 0 0 0 0
451 1 3 31.1018 -2925 0 0 0 0 0
452 1 3 31.1018 -2922 0 0 0 0 0
453 1 3 31.1018 -2919 0 0 0 0 0
454 1 3 31.1018 -2916 0 0 0 0 0
455 1 3 31.1018 -2913 0 0 0 0 0
456 1 3 31.1018 -2910 0 0 0 0 0
457 1 3 31.1018 -2907 0 0 0 0 0
458 1 3 31.1018 -2904 0 0 0 0 0
459 1 3 31.1018 -2901 0 0 0 0 0
460 1 3 31.1018 -2898 0 0 0 0 0
461 1 3 31.1018 -2895 0 0 0 0 0
462 1 3 31.1018 -2892 0 0 0 0 0
463 1 3 31.1018 -2889 0 0 0 0 0
464 1 3 31.1018 -2886 0 0 0 0 0
465 1 3 31.1018 -2883 0 0 0 0 0
466 1 3 31.1018 -2880 0 0 0 0 0
467 1 3 31.1018 -2877 0 0 0 0 0
468 1 3 31.1018 -2874 0 0 0 0 0
469 1 3 31.1018 -2871 0 0 0 0 0
470 1 3 31.1018 -2868 0 0 0 0 0
471 1 3 31.1018 -2865 0 0 0 0 0
472 1 3 31.1018 -2862 0 0 0 0 0
473 1 3 31.1018 -2859 0 0 0 0 0
474 1 3 31.1018 -2856 0 0 0 0 0
475 1 3 31.1018 -2853 0 0 0 0 0
476 1 3 31.1018 -2850 0 0 0 0 0
477 1 3 31.1018 -2847 0 0 0 0 0
478 1 3 31.1018 -2844 0 0 0 0 0
479 1 3 31.1018 -2841 0 0 0 0 0
480 1 3 31.1018 -2838 0 0 0 0 0
481 1 3 31.1018 -2835 0 0 0 0 0
482 1 3 31.1018 -2832 0 0 0 0 0
483 1 3 31.1018 -2829 0 0 0 0 0
484 1 3 31.1018 -2826 0 0 0 0 0
485 1 3 31.1018 -2823 0 0 0 0 0
486 1 3 31.1018 -2820 0 0 0 0 0
487 1 3 31.1018 -2817 0 0 0 0 0
488 1 3 31.1018 -2814 0 0 0 0 0
489 1 3 31.1018 -2811 0 0 0 0 0
490 1 3 31.1018 -2808 0 0 0 0 0
491 1 3 31.1018 -2805 0 0 0 0 0
492 1 3 31.1018 -2802 0 0 0 0 0
493 1 3 31.1018 -2799 0 0 0 0 0
494 1 3 31.1018 -2796 0 0 0 0 0
495 1 3 31.1018 -2793 0 0 0 0 0
496 1 3 31.1018 -2790 0 0 0 0 0
497 1 3 31.1018 -2787 0 0 0 0 0
498 1 3 31.1018 -2784 0 0 0 0 0
499 1 3 31.1018 -2781 0 0 0 0 0
500 1 3 31.1018 -2778 0 0 0 0 0
501 1 3 31.1018 -2775 0 0 0 0 0
502 1 3 31.1018 -2772 0 0 0 0 0
503 1 3 31.1018 -2769 0 0 0 0 0
504 1 3 31.1018 -2766 0 0 0 0 0
505 1 3 31.1018 -2763 0 0 0 0 0
506 1 3 31.1018 -2760 0 0 0 0 0
507 1 3 31.1018 -2757 0 0 0 0 0
508 1 3 31.1018 -2754 0 0 0 0 0
509 1 3 31.1018 -2751 0 0 0 0 0
510 1 3 31.1018 -2748 0 0 0 0 0
511 1 3 31.1018 -2745 0 0 0 0 0
512 1 3 31.1018 -2742 0 0 0 0 0
513 1 3 31.1018 -2739 0 0 0 0 0
514 1 3 31.1018 -2736 0 0 0 0 0
515 1 3 31.1018 -2733 0 0 0 0 0
516 1 3 31.1018 -2730 0 0 0 0 0
517 1 3 31.1018 -2727 0 0 0 0 0
518 1 3 31.1018 -2724 0 0 0 0 0
519 1 3 31.1018 -2721 0 0 0 0 0
520 1 3 31.1018 -2718 0 0 0 0 0
521 1 3 31.1018 -2715 0 0 0 0 0
522 1 3 31.1018 -2712 0 0 0 0 0
523 1 3 31.1018 -2709 0 0 0 0 0
524 1 3 31.1018 -2706 0 0 0 0 0
525 1 3 31.1018 -2703 0 0 0 0 0
526 1 3 31.1018 -2700 0 0 0 0 0
527 1 3 31.1018 -2697 0 0 0 0 0
528 1 3 31.1018 -2694 0 0 0 0 0
529 1 3 31.1018 -2691 0 0 0 0 0
530 1 3 31.1018 -2688 0 0 0 0 0
531 1 3 31.1018 -2685 0 0 0 0 0
532 1 3 31.1018 -2682 0 0 0 0 0
533 1 3 31.1018 -2679 0 0 0 0 0
534 1 3 31.1018 -2676 0 0 0 0 0
535 1 3 31.1018 -2673 0 0 0 0 0
536 1 3 31.1018 -2670 0 0 0 0 0
537 1 3 31.1018 -2667 0 0 0 0 0
538 1 3 31.1018 -2664 0 0 0 0 0
539 1 3 31.1018 -2661 0 0 0 0 0
540 1 3 31.1018 -2658 0 0 0 0 0
541 1 3 31.1018 -2655 0 0 0 0 0
542 1 3 31.1018 -2652 0 0 0 0 0
543 1 3 31.1018 -2649 0 0 0 0 0
544 1 3 31.1018 -2646 0 0 0 0 0
545 1 3 31.1018 -2643 0 0 0 0 0
546 1 3 31.1018 -2640 0 0 0 0 0
547 1 3 31.1018 -2637 0 0 0 0 0
548 1 3 31.1018 -2634 0 0 0 0 0
549 1 3 31.1018 -2631 0 0 0 0 0
550 1 3 31.1018 -2628 0 0 0 0 0
551 1 3 31.1018 -2625 0 0 0 0 0
552 1 3 31.1018 -2622 0 0 0 0 0
553 1 3 31.1018 -2619 0 0 0 0 0
554 1 3 31.1018 -2616 0 0 0 0 0
555 1 3 31.1018 -2613 0 0 0 0 0
556 1 3 31.1018 -2610 0 0 0 0 0
557 1 3 31.1018 -2607 0 0 0 0 0
558 1 3 31.1018 -2604 0 0 0 0 0
559 1 3 31.1018 -2601 0 0 0 0 0
560 1 3 31.1018 -2598 0 0 0 0 0
561 1 3 31.1018 -2595 0 0 0 0 0
562 1 3 31.1018 -2592 0 0 0 0 0
563 1 3 31.1018 -2589 0 0 0 0 0
564 1 3 31.1018 -2586 0 0 0 0 0
565 1 3 31.1018 -2583 0 0 0 0 0
566 1 3 31.1018 -2580 0 0 0 0 0
567 1 3 31.1018 -2577 0 0 0 0 0
568 1 3 31.1018 -2574 0 0 0 0 0
569 1 3 31.1018 -2571 0 0 0 0 0
570 1 3 31.1018 -2568 0 0 0 0 0
571 1 3 31.1018 -2565 0 0 0 0 0
572 1 3 31.1018 -2562 0 0 0 0 0
573 1 3 31.1018 -2559 0 0 0 0 0
574 1 3 31.1018 -2556 0 0 0 0 0
575 1 3 31.1018 -2553 0 0 0 0 0
576 1 3 31.1018 -2550 0 0 0 0 0
577 1 3 31.1018 -2547 0 0 0 0 0
578 1 3 31.1018 -2544 0 0 0 0 0
579 1 3 31.1018 -2541 0 0 0 0 0
580 1 3 31.1018 -2538 0 0 0 0 0
581 1 3 31.1018 -2535 0 0 0 0 0
582 1 3 31.1018 -2532 0 0 0 0 0
583 1 3 31.1018 -2529 0 0 0 0 0
584 1 3 31.1018 -2526 0 0 0 0 0
585 1 3 31.1018 -2523 0 0 0 0 0
586 1 3 31.1018 -2520 0 0 0 0 0
587 1 3 31.1018 -2517 0 0 0 0 0
588 1 3 31.1018 -2514 0 0 0 0 0
589 1 3 31.1018 -2511 0 0 0 0 0
590 1 3 31.1018 -2508 0 0 0 0 0
591 1 3 31.1018 -2505 0 0 0 0 0
592 1 3 31.1018 -2502 0 0 0 0 0
593 1 3 31.1018 -2499 0 0 0 0 0
594 1 3 31.1018 -2496 0 0 0 0 0
595 1 3 31.1018 -2493 0 0 0 0 0
596 1 3 31.1018 -2490 0 0 0 0 0
597 1 3 31.1018 -2487 0 0 0 0 0
598 1 3 31.1018 -2484 0 0 0 0 0
599 1 3 31.1018 -2481 0 0 0 0 0
600 1 3 31.1018 -2478 0 0 0 0 0
601 1 3 31.1018 -2475 0 0 0 0 0
602 1 3 31.1018 -2472 0 0 0 0 0
603 1 3 31.1018 -2469 0 0 0 0 0
604 1 3 31.1018 -2466 0 0 0 0 0
605 1 3 31.1018 -2463 0 0 0 0 0
606 1 3 31.1018 -2460 0 0 0 0 0
607 1 3 31.1018 -2457 0 0 0 0 0
608 1 3 31.1018 -2454 0 0 0 0 0
609 1 3 31.1018 -2451 0 0 0 0 0
610 1 3 31.1018 -2448 0 0 0 0 0
611 1 3 31.1018 -2445 0 0 0 0 0
612 1 3 31.1018 -2442 0 0 0 0 0
613 1 3 31.1018 -2439 0 0 0 0 0
614 1 3 31.1018 -2436 0 0 0 0 0
615 1 3 31.1018 -2433 0 0 0 0 0
616 1 3 31.1018 -2430 0 0 0 0 0
617 1 3 31.1018 -2427 0 0 0 0 0
618 1 3 31.1018 -2424 0 0 0 0 0
619 1 3 31.1018 -2421 0 0 0 0 0
620 1 3 31.1018 -2418 0 0 0 0 0
621 1 3 31.1018 -2415 0 0 0 0 0
622 1 3 31.1018 -2412 0 0 0 0 0
623 1 3 31.1018 -2409 0 0 0 0 0
624 1 3 31.1018 -2406 0 0 0 0 0
625 1 3 31.1018 -2403 0 0 0 0 0
626 1 3 31.1018 -2400 0 0 0 0 0
627 1 3 31.1018 -2397 0 0 0 0 0
628 1 3 31.1018 -2394 0 0 0 0 0
629 1 3 31.1018 -2391 0 0 0 0 0
630 1 3 31.1018 -2388 0 0 0 0 0
631 1 3 31.1018 -2385 0 0 0 0 0
632 1 3 31.1018 -2382 0 0 0 0 0
633 1 3 31.1018 -2379 0 0 0 0 0
634 1 3 31.1018 -2376 0 0 0 0 0
635 1 3 31.1018 -2373 0 0 0 0 0
636 1 3 31.1018 -2370 0 0 0 0 0
637 1 3 31.1018 -2367 0 0 0 0 0
638 1 3 31.1018 -2364 0 0 0 0 0
639 1 3 31.1018 -2361 0 0 0 0 0
640 1 3 31.1018 -2358 0 0 0 0 0
641 1 3 31.1018 -2355 0 0 0 0 0
642 1 3 31.1018 -2352 0 0 0 0 0
643 1 3 31.1018 -2349 0 0 0 0 0
644 1 3 31.1018 -2346 0 0 0 0 0
645 1 3 31.1018 -2343 0 0 0 0 0
646 1 3 31.1018 -2340 0 0 0 0 0
647 1 3 31.1018 -2337 0 0 0 0 0
648 1 3 31.1018 -2334 0 0 0 0 0
649 1 3 31.1018 -2331 0 0 0 0 0
650 1 3 31.1018 -2328 0 0 0 0 0
651 1 3 31.1018 -2325 0 0 0 0 0
652 1 3 31.1018 -2322 0 0 0 0 0
653 1 3 31.1018 -2319 0 0 0 0 0
654 1 3 31.1018 -2316 0 0 0 0 0
655 1 3 31.1018 -2313 0 0 0 0 0
656 1 3 31.1018 -2310 0 0 0 0 0
657 1 3 31.1018 -2307 0 0 0 0 0
658 1 3 31.1018 -2304 0 0 0 0 0
659 1 3 31.1018 -2301 0 0 0 0 0
660 1 3 31.1018 -2298 0 0 0 0 0
661 1 3 31.1018 -2295 0 0 0 0 0
662 1 3 31.1018 -2292 0 0 0 0 0
663 1 3 31.1018 -2289 0 0 0 0 0
664 1 3 31.1018 -2286 0 0 0 0 0
665 1 3 31.1018 -2283 0 0 0 0 0
666 1 3 31.1018 -2280 0 0 0 0 0
667 1 3 31.1018 -2277 0 0 0 0 0
668 1 3 31.1018 -2274 0 0 0 0 0
669 1 3 31.1018 -2271 0 0 0 0 0
670 1 3 31.1018 -2268 0 0 0 0 0
671 1 3 31.1018 -2265 0 0 0 0 0
672 1 3 31.1018 -2262 0 0 0 0 0
673 1 3 31.1018 -2259 0 0 0 0 0
674 1 3 31.1018 -2256 0 0 0 0 0
675 1 3 31.1018 -2253 0 0 0 0 0
676 1 3 31.1018 -2250 0 0 0 0 0
677 1 3 31.1018 -2247 0 0 0 0 0
678 1 3 31.1018 -2244 0 0 0 0 0
679 1 3 31.1018 -2241 0 0 0 0 0
680 1 3 31.1018 -2238 0 0 0 0 0
681 1 3 31.1018 -2235 0 0 0 0 0
682 1 3 31.1018 -2232 0 0 0 0 0
683 1 3 31.1018 -2229 0 0 0 0 0
684 1 3 31.1018 -2226 0 0 0 0 0
685 1 3 31.1018 -2223 0 0 0 0 0
686 1 3 31.1018 -2220 0 0 0 0 0
687 1 3 31.1018 -2217 0 0 0 0 0
688 1 3 31.1018 -2214 0 0 0 0 0
689 1 3 31.1018 -2211 0 0 0 0 0
690 1 3 31.1018 -2208 0 0 0 0 0
691 1 3 31.1018 -2205 0 0 0 0 0
692 1 3 31.1018 -2202 0 0 0 0 0
693 1 3 31.1018 -2199 0 0 0 0 0
694 1 3 31.1018 -2196 0 0 0 0 0
695 1 3 31.1018 -2193 0 0 0 0 0
696 1 3 31.1018 -2190 0 0 0 0 0
697 1 3 31.1018 -2187 0 0 0 0 0
698 1 3 31.1018 -2184 0 0 0 0 0
699 1 3 31.1018 -2181 0 0 0 0 0
700 1 3 31.1018 -2178 0 0 0 0 0
701 1 3 31.1018 -2175 0 0 0 0 0
702 1 3 31.1018 -2172 0 0 0 0 0
703 1 3 31.1018 -2169 0 0 0 0 0
704 1 3 31.1018 -2166 0 0 0 0 0
705 1 3 31.1018 -2163 0 0 0 0 0
706 1 3 31.1018 -2160 0 0 0 0 0
707 1 3 31.1018 -2157 0 0 0 0 0
708 1 3 31.1018 -2154 0 0 0 0 0
709 1 3 31.1018 -2151 0 0 0 0 0
710 1 3 31.1018 -2148 0 0 0 0 0
711 1 3 31.1018 -2145 0 0 0 0 0
712 1 3 31.1018 -2142 0 0 0 0 0
713 1 3 31.1018 -2139 0 0 0 0 0
2851 2 3 31.1018 -2854.50010100375221 2.54348e-21 2.59757439774353216 -1.1778 0 0.796931
2852 2 3 31.1018 -2851.50010100375175 2.5408e-21 2.59757439773551368 -1.17786 0 0.796938
2853 2 3 31.1018 -2848.50010100375175 2.53813e-21 2.59757439772749565 -1.17792 0 0.796945
2854 2 3 31.1018 -2845.5001010037513 2.53545e-21 2.59757439771947718 -1.17797 0 0.796952
2855 2 3 31.1018 -2842.5001010037513 2.53277e-21 2.59757439771145915 -1.17803 0 0.796959
2856 2 3 31.1018 -2839.5001010037513 2.53009e-21 2.59757439770344067 -1.17809 0 0.796966
2857 2 3 31.1018 -2836.50010100375084 2.52742e-21 2.59757439769542264 -1.17814 0 0.796973
2858 2 3 31.1018 -2833.50010100375084 2.52474e-21 2.59757439768740417 -1.1782 0 0.79698
2859 2 3 31.1018 -2830.50010100375039 2.52206e-21 2.59757439767938614 -1.17826 0 0.796987
2860 2 3 31.1018 -2827.50010100375039 2.51938e-21 2.59757439767136766 -1.17831 0 0.796994
2861 2 3 31.1018 -2824.50010100374993 2.51671e-21 2.59757439766334963 -1.17837 0 0.797001
2862 2 3 31.1018 -2821.50010100374993 2.51403e-21 2.59757439765533116 -1.17843 0 0.797008
2863 2 3 31.1018 -2818.50010100374993 2.51135e-21 2.59757439764731313 -1.17848 0 0.797015
2864 2 3 31.1018 -2815.50010100374948 2.50867e-21 2.59757439763929465 -1.17854 0 0.797022
2865 2 3 31.1018 -2812.50010100374948 2.506e-21 2.59757439763127662 -1.1786 0 0.797029
2866 2 3 31.1018 -2809.50010100374902 2.50332e-21 2.59757439762325815 -1.17865 0 0.797036
2867 2 3 31.1018 -2806.50010100374902 2.50064e-21 2.59757439761524012 -1.17871 0 0.797043
2868 2 3 31.1018 -2803.50010100374902 2.49797e-21 2.59757439760722164 -1.17877 0 0.79705
2869 2 3 31.1018 -2800.50010100374857 2.49529e-21 2.59757439759920361 -1.17882 0 0.797056
2870 2 3 31.1018 -2797.50010100374857 2.49261e-21 2.59757439759118514 -1.17888 0 0.797063
2871 2 3 31.1018 -2794.50010100374811 2.48993e-21 2.59757439758316711 -1.17894 0 0.79707
2872 2 3 31.1018 -2791.50010100374811 2.48726e-21 2.59757439757514863 -1.17899 0 0.797077
2873 2 3 31.1018 -2788.50010100374766 2.48458e-21 2.5975743975671306 -1.17905 0 0.797084
2874 2 3 31.1018 -2785.50010100374766 2.4819e-21 2.59757439755911212 -1.17911 0 0.797091
2875 2 3 31.1018 -2782.50010100374766 2.47922e-21 2.59757439755109409 -1.17916 0 0.797098
2876 2 3 31.1018 -2779.5001010037472 2.47655e-21 2.59757439754307562 -1.17922 0 0.797105
2877 2 3 31.1018 -2776.5001010037472 2.47387e-21 2.59757439753505759 -1.17928 0 0.797112
2878 2 3 31.1018 -2773.50010100374675 2.47119e-21 2.59757439752703911 -1.17933 0 0.797119
2879 2 3 31.1018 -2770.50010100374675 2.46851e-21 2.59757439751902108 -1.17939 0 0.797126
2880 2 3 31.1018 -2767.50010100374629 2.46584e-21 2.59757439751100261 -1.17945 0 0.797133
2881 2 3 31.1018 -2764.50010100374629 2.46316e-21 2.59757439750298458 -1.1795 0 0.79714
2882 2 3 31.1018 -2761.50010100374629 2.46048e-21 2.5975743974949661 -1.17956 0 0.797147
2883 2 3 31.1018 -2758.50010100374584 2.4578e-21 2.59757439748694807 -1.17962 0 0.797154
2884 2 3 31.1018 -2755.50010100374584 2.45513e-21 2.5975743974789296 -1.17967 0 0.797161
2885 2 3 31.1018 -2752.50010100374539 2.45245e-21 2.59757439747091157 -1.17973 0 0.797168
2886 2 3 31.1018 -2749.50010100374539 2.44977e-21 2.59757439746289309 -1.17979 0 0.797175
2887 2 3 31.1018 -2746.50010100374539 2.4471e-21 2.59757439745487506 -1.17984 0 0.797182
2888 2 3 31.1018 -2743.50010100374493 2.44442e-21 2.59757439744685659 -1.1799 0 0.797189
2889 2 3 31.1018 -2740.50010100374493 2.44174e-21 2.59757439743883856 -1.17996 0 0.797196
2890 2 3 31.1018 -2737.50010100374448 2.43906e-21 2.59757439743082008 -1.18001 0 0.797203
2891 2 3 31.1018 -2734.50010100374448 2.43639e-21 2.59757439742280205 -1.18007 0 0.79721
2892 2 3 31.1018 -2731.50010100374402 2.43371e-21 2.59757439741478358 -1.18013 0 0.797216
2893 2 3 31.1018 -2728.50010100374402 2.43103e-21 2.59757439740676555 -1.18018 0 0.797223
2894 2 3 31.1018 -2725.50010100374402 2.42835e-21 2.59757439739874707 -1.18024 0 0.79723
2895 2 3 31.1018 -2722.50010100374357 2.42568e-21 2.59757439739072904 -1.1803 0 0.797237
2896 2 3 31.1018 -2719.50010100374357 2.423e-21 2.59757439738271056 -1.18035 0 0.797244
2897 2 3 31.1018 -2716.50010100374311 2.42032e-21 2.59757439737469253 -1.18041 0 0.797251
2898 2 3 31.1018 -2713.50010100374311 2.41764e-21 2.59757439736667406 -1.18047 0 0.797258
2899 2 3 31.1018 -2710.50010100374311 2.41497e-21 2.59757439735865603 -1.18052 0 0.797265
2900 2 3 31.1018 -2707.50010100374266 2.41229e-21 2.59757439735063755 -1.18058 0 0.797272
2901 2 3 31.1018 -2704.50010100374266 2.40961e-21 2.59757439734261952 -1.18064 0 0.797279
2902 2 3 31.1018 -2701.5001010037422 2.40694e-21 2.59757439733460105 -1.18069 0 0.797286
2903 2 3 31.1018 -2698.5001010037422 2.40426e-21 2.59757439732658302 -1.18075 0 0.797293
2904 2 3 31.1018 -2695.50010100374175 2.40158e-21 2.59757439731856454 -1.18081 0 0.7973
2905 2 3 31.1018 -2692.50010100374175 2.3989e-21 2.59757439731054651 -1.18086 0 0.797307
2906 2 3 31.1018 -2689.50010100374175 2.39623e-21 2.59757439730252804 -1.18092 0 0.797314
2907 2 3 31.1018 -2686.50010100374129 2.39355e-21 2.59757439729451001 -1.18098 0 0.797321
2908 2 3 31.1018 -2683.50010100374129 2.39087e-21 2.59757439728649153 -1.18103 0 0.797328
2909 2 3 31.1018 -2680.50010100374084 2.38819e-21 2.5975743972784735 -1.18109 0 0.797335
2910 2 3 31.1018 -2677.50010100374084 2.38552e-21 2.59757439727045503 -1.18115 0 0.797342
2911 2 3 31.1018 -2674.50010100374084 2.38284e-21 2.597574397262437 -1.1812 0 0.797349
2912 2 3 31.1018 -2671.50010100374038 2.38016e-21 2.59757439725441852 -1.18126 0 0.797356
2913 2 3 31.1018 -2668.50010100374038 2.37748e-21 2.59757439724640049 -1.18132 0 0.797363
2914 2 3 31.1018 -2665.50010100373993 2.37481e-21 2.59757439723838202 -1.18138 0 0.79737
2915 2 3 31.1018 -2662.50010100373993 2.37213e-21 2.59757439723036399 -1.18143 0 0.797376
2916 2 3 31.1018 -2659.50010100373947 2.36945e-21 2.59757439722234551 -1.18149 0 0.797383
2917 2 3 31.1018 -2656.50010100373947 2.36677e-21 2.59757439721432748 -1.18155 0 0.79739
2918 2 3 31.1018 -2653.50010100373947 2.3641e-21 2.597574397206309 -1.1816 0 0.797397
2919 2 3 31.1018 -2650.50010100373902 2.36142e-21 2.59757439719829097 -1.18166 0 0.797404
2920 2 3 31.1018 -2647.50010100373902 2.35874e-21 2.5975743971902725 -1.18171 0 0.797411
2921 2 3 31.1018 -2644.50010100373856 2.35607e-21 2.59757439718225447 -1.18177 0 0.797418
2922 2 3 31.1018 -2641.50010100373856 2.35339e-21 2.59757439717423599 -1.18183 0 0.797425
2923 2 3 31.1018 -2638.50010100373856 2.35071e-21 2.59757439716621796 -1.18188 0 0.797432
2924 2 3 31.1018 -2635.50010100373811 2.34803e-21 2.59757439715819949 -1.18194 0 0.797439
2925 2 3 31.1018 -2632.50010100373811 2.34536e-21 2.59757439715018146 -1.182 0 0.797446
2926 2 3 31.1018 -2629.50010100373765 2.34268e-21 2.59757439714216298 -1.18206 0 0.797453
2927 2 3 31.1018 -2626.50010100373765 2.34e-21 2.59757439713414495 -1.18211 0 0.79746
2928 2 3 31.1018 -2623.5001010037372 2.33732e-21 2.59757439712612648 -1.18217 0 0.797467