ITEM: TIMESTEP
3800000
ITEM: NUMBER OF ATOMS
2001
ITEM: BOX BOUNDS pp pp pp
-1.8000000000000000e+03 1.8000000000000000e+03
-1.0000000000000000e+02 1.0000000000000000e+02
-1.0000000000000000e+02 1.0000000000000000e+02
ITEM: ATOMS id type diameter mass xu yu zu fx fy fz
1 1 3 31.1018 -1800 0 0 0 0 0
2 1 3 31.1018 -1797 0 0 0 0 0
3 1 3 31.1018 -1794 0 0 0 0 0
4 1 3 31.1018 -1791 0 0 0 0 0
5 1 3 31.1018 -1788 0 0 0 0 0
6 1 3 31.1018 -1785 0 0 0 0 0
7 1 3 31.1018 -1782 0 0 0 0 0
8 1 3 31.1018 -1779 0 0 0 0 0
9 1 3 31.1018 -1776 0 0 0 0 0
10 1 3 31.1018 -1773 0 0 0 0 0
11 1 3 31.1018 -1770 0 0 0 0 0
12 1 3 31.1018 -1767 0 0 0 0 0
13 1 3 31.1018 -1764 0 0 0 0 0
14 1 3 31.1018 -1761 0 0 0 0 0
15 1 3 31.1018 -1758 0 0 0 0 0
16 1 3 31.1018 -1755 0 0 0 0 0
17 1 3 31.1018 -1752 0 0 0 0 0
18 1 3 31.1018 -1749 0 0 0 0 0
19 1 3 31.1018 -1746 0 0 0 0 0
20 1 3 31.1018 -1743 0 0 0 0 0
21 1 3 31.1018 -1740 0 0 0 0 0
22 1 3 31.1018 -1737 0 0 0 0 0
23 1 3 31.1018 -1734 0 0 0 0 0
24 1 3 31.1018 -1731 0 0 0 0 0
25 1 3 31.1018 -1728 0 0 0 0 0
26 1 3 31.1018 -1725 0 0 0 0 0
27 1 3 31.1018 -1722 0 0 0 0 0
28 1 3 31.1018 -1719 0 0 0 0 0
29 1 3 31.1018 -1716 0 0 0 0 0
30 1 3 31.1018 -1713 0 0 0 0 0
31 1 3 31.1018 -1710 0 0 0 0 0
32 1 3 31.1018 -1707 0 0 0 0 0
33 1 3 31.1018 -1704 0 0 0 0 0
34 1 3 31.1018 -1701 0 0 0 0 0
35 1 3 31.1018 -1698 0 0 0 0 0
36 1 3 31.1018 -1695 0 0 0 0 0
37 1 3 31.1018 -1692 0 0 0 0 0
38 1 3 31.1018 -1689 0 0 0 0 0
39 1 3 31.1018 -1686 0 0 0 0 0
40 1 3 31.1018 -1683 0 0 0 0 0
41 1 3 31.1018 -1680 0 0 0 0 0
42 1 3 31.1018 -1677 0 0 0 0 0
43 1 3 31.1018 -1674 0 0 0 0 0
44 1 3 31.1018 -1671 0 0 0 0 0
45 1 3 31.1018 -1668 0 0 0 0 0
46 1 3 31.1018 -1665 0 0 0 0 0
47 1 3 31.1018 -1662 0 0 0 0 0
48 1 3 31.1018 -1659 0 0 0 0 0
49 1 3 31.1018 -1656 0 0 0 0 0
50 1 3 31.1018 -1653 0 0 0 0 0
51 1 3 31.1018 -1650 0 0 0 0 0
52 1 3 31.1018 -1647 0 0 0 0 0
53 1 3 31.1018 -1644 0 0 0 0 0
54 1 3 31.1018 -1641 0 0 0 0 0
55 1 3 31.1018 -1638 0 0 0 0 0
56 1 3 31.1018 -1635 0 0 0 0 0
57 1 3 31.1018 -1632 0 0 0 0 0
58 1 3 31.1018 -1629 0 0 0 0 0
59 1 3 31.1018 -1626 0 0 0 0 0
60 1 3 31.1018 -1623 0 0 0 0 0
61 1 3 31.1018 -1620 0 0 0 0 0
62 1 3 31.1018 -1617 0 0 0 0 0
63 1 3 31.1018 -1614 0 0 0 0 0
64 1 3 31.1018 -1611 0 0 0 0 0
65 1 3 31.1018 -1608 0 0 0 0 0
66 1 3 31.1018 -1605 0 0 0 0 0
67 1 3 31.1018 -1602 0 0 0 0 0
68 1 3 31.1018 -1599 0 0 0 0 0
69 1 3 31.1018 -1596 0 0 0 0 0
70 1 3 31.1018 -1593 0 0 0 0 0
71 1 3 31.1018 -1590 0 0 0 0 0
72 1 3 31.1018 -1587 0 0 0 0 0
73 1 3 31.1018 -1584 0 0 0 0 0
74 1 3 31.1018 -1581 0 0 0 0 0
75 1 3 31.1018 -1578 0 0 0 0 0
76 1 3 31.1018 -1575 0 0 0 0 0
77 1 3 31.1018 -1572 0 0 0 0 0
78 1 3 31.1018 -1569 0 0 0 0 0
79 1 3 31.1018 -1566 0 0 0 0 0
80 1 3 31.1018 -1563 0 0 0 0 0
81 1 3 31.1018 -1560 0 0 0 0 0
82 1 3 31.1018 -1557 0 0 0 0 0
83 1 3 31.1018 -1554 0 0 0 0 0
84 1 3 31.1018 -1551 0 0 0 0 0
85 1 3 31.1018 -1548 0 0 0 0 0
86 1 3 31.1018 -1545 0 0 0 0 0
87 1 3 31.1018 -1542 0 0 0 0 0
88 1 3 31.1018 -1539 0 0 0 0 0
89 1 3 31.1018 -1536 0 0 0 0 0
90 1 3 31.1018 -1533 0 0 0 0 0
91 1 3 31.1018 -1530 0 0 0 0 0
92 1 3 31.1018 -1527 0 0 0 0 0
93 1 3 31.1018 -1524 0 0 0 0 0
94 1 3 31.1018 -1521 0 0 0 0 0
95 1 3 31.1018 -1518 0 0 0 0 0
96 1 3 31.1018 -1515 0 0 0 0 0
97 1 3 31.1018 -1512 0 0 0 0 0
98 1 3 31.1018 -1509 0 0 0 0 0
99 1 3 31.1018 -1506 0 0 0 0 0
100 1 3 31.1018 -1503 0 0 0 0 0
101 1 3 31.1018 -1500 0 0 0 0 0
102 1 3 31.1018 -1497 0 0 0 0 0
103 1 3 31.1018 -1494 0 0 0 0 0
104 1 3 31.1018 -1491 0 0 0 0 0
105 1 3 31.1018 -1488 0 0 0 0 0
106 1 3 31.1018 -1485 0 0 0 0 0
107 1 3 31.1018 -1482 0 0 0 0 0
108 1 3 31.1018 -1479 0 0 0 0 0
109 1 3 31.1018 -1476 0 0 0 0 0
110 1 3 31.1018 -1473 0 0 0 0 0
111 1 3 31.1018 -1470 0 0 0 0 0
112 1 3 31.1018 -1467 0 0 0 0 0
113 1 3 31.1018 -1464 0 0 0 0 0
114 1 3 31.1018 -1461 0 0 0 0 0
115 1 3 31.1018 -1458 0 0 0 0 0
116 1 3 31.1018 -1455 0 0 0 0 0
117 1 3 31.1018 -1452 0 0 0 0 0
118 1 3 31.1018 -1449 0 0 0 0 0
119 1 3 31.1018 -1446 0 0 0 0 0
120 1 3 31.1018 -1443 0 0 0 0 0
121 1 3 31.1018 -1440 0 0 0 0 0
122 1 3 31.1018 -1437 0 0 0 0 0
123 1 3 31.1018 -1434 0 0 0 0 0
124 1 3 31.1018 -1431 0 0 0 0 0
125 1 3 31.1018 -1428 0 0 0 0 0
126 1 3 31.1018 -1425 0 0 0 0 0
127 1 3 31.1018 -1422 0 0 0 0 0
128 1 3 31.1018 -1419 0 0 0 0 0
129 1 3 31.1018 -1416 0 0 0 0 0
130 1 3 31.1018 -1413 0 0 0 0 0
131 1 3 31.1018 -1410 0 0 0 0 0
132 1 3 31.1018 -1407 0 0 0 0 0
133 1 3 31.1018 -1404 0 0 0 0 0
134 1 3 31.1018 -1401 0 0 0 0 0
135 1 3 31.1018 -1398 0 0 0 0 0
136 1 3 31.1018 -1395 0 0 0 0 0
137 1 3 31.1018 -1392 0 0 0 0 0
138 1 3 31.1018 -1389 0 0 0 0 0
139 1 3 31.1018 -1386 0 0 0 0 0
140 1 3 31.1018 -1383 0 0 0 0 0
141 1 3 31.1018 -1380 0 0 0 0 0
142 1 3 31.1018 -1377 0 0 0 0 0
143 1 3 31.1018 -1374 0 0 0 0 0
144 1 3 31.1018 -1371 0 0 0 0 0
145 1 3 31.1018 -1368 0 0 0 0 0
146 1 3 31.1018 -1365 0 0 0 0 0
147 1 3 31.1018 -1362 0 0 0 0 0
148 1 3 31.1018 -1359 0 0 0 0 0
149 1 3 31.1018 -1356 0 0 0 0 0
150 1 3 31.1018 -1353 0 0 0 0 0
151 1 3 31.1018 -1350 0 0 0 0 0
152 1 3 31.1018 -1347 0 0 0 0 0
153 1 3 31.1018 -1344 0 0 0 0 0
154 1 3 31.1018 -1341 0 0 0 0 0
155 1 3 31.1018 -1338 0 0 0 0 0
156 1 3 31.1018 -1335 0 0 0 0 0
157 1 3 31.1018 -1332 0 0 0 0 0
158 1 3 31.1018 -1329 0 0 0 0 0
159 1 3 31.1018 -1326 0 0 0 0 0
160 1 3 31.1018 -1323 0 0 0 0 0
161 1 3 31.1018 -1320 0 0 0 0 0
162 1 3 31.1018 -1317 0 0 0 0 0
163 1 3 31.1018 -1314 0 0 0 0 0
164 1 3 31.1018 -1311 0 0 0 0 0
165 1 3 31.1018 -1308 0 0 0 0 0
166 1 3 31.1018 -1305 0 0 0 0 0
167 1 3 31.1018 -1302 0 0 0 0 0
168 1 3 31.1018 -1299 0 0 0 0 0
169 1 3 31.1018 -1296 0 0 0 0 0
170 1 3 31.1018 -1293 0 0 0 0 0
171 1 3 31.1018 -1290 0 0 0 0 0
172 1 3 31.1018 -1287 0 0 0 0 0
173 1 3 31.1018 -1284 0 0 0 0 0
174 1 3 31.1018 -1281 0 0 0 0 0
175 1 3 31.1018 -1278 0 0 0 0 0
176 1 3 31.1018 -1275 0 0 0 0 0
177 1 3 31.1018 -1272 0 0 0 0 0
178 1 3 31.1018 -1269 0 0 0 0 0
179 1 3 31.1018 -1266 0 0 0 0 0
180 1 3 31.1018 -1263 0 0 0 0 0
181 1 3 31.1018 -1260 0 0 0 0 0
182 1 3 31.1018 -1257 0 0 0 0 0
183 1 3 31.1018 -1254 0 0 0 0 0
184 1 3 31.1018 -1251 0 0 0 0 0
185 1 3 31.1018 -1248 0 0 0 0 0
186 1 3 31.1018 -1245 0 0 0 0 0
187 1 3 31.1018 -1242 0 0 0 0 0
188 1 3 31.1018 -1239 0 0 0 0 0
189 1 3 31.1018 -1236 0 0 0 0 0
190 1 3 31.1018 -1233 0 0 0 0 0
191 1 3 31.1018 -1230 0 0 0 0 0
192 1 3 31.1018 -1227 0 0 0 0 0
193 1 3 31.1018 -1224 0 0 0 0 0
194 1 3 31.1018 -1221 0 0 0 0 0
195 1 3 31.1018 -1218 0 0 0 0 0
196 1 3 31.1018 -1215 0 0 0 0 0
197 1 3 31.1018 -1212 0 0 0 0 0
198 1 3 31.1018 -1209 0 0 0 0 0
199 1 3 31.1018 -1206 0 0 0 0 0
200 1 3 31.1018 -1203 0 0 0 0 0
201 1 3 31.1018 -1200 0 0 0 0 0
202 1 3 31.1018 -1197 0 0 0 0 0
203 1 3 31.1018 -1194 0 0 0 0 0
204 1 3 31.1018 -1191 0 0 0 0 0
205 1 3 31.1018 -1188 0 0 0 0 0
206 1 3 31.1018 -1185 0 0 0 0 0
207 1 3 31.1018 -1182 0 0 0 0 0
208 1 3 31.1018 -1179 0 0 0 0 0
209 1 3 31.1018 -1176 0 0 0 0 0
210 1 3 31.1018 -1173 0 0 0 0 0
211 1 3 31.1018 -1170 0 0 0 0 0
212 1 3 31.1018 -1167 0 0 0 0 0
213 1 3 31.1018 -1164 0 0 0 0 0
214 1 3 31.1018 -1161 0 0 0 0 0
215 1 3 31.1018 -1158 0 0 0 0 0
216 1 3 31.1018 -1155 0 0 0 0 0
217 1 3 31.1018 -1152 0 0 0 0 0
218 1 3 31.1018 -1149 0 0 0 0 0
219 1 3 31.1018 -1146 0 0 0 0 0
220 1 3 31.1018 -1143 0 0 0 0 0
221 1 3 31.1018 -1140 0 0 0 0 0
222 1 3 31.1018 -1137 0 0 0 0 0
223 1 3 31.1018 -1134 0 0 0 0 0
224 1 3 31.1018 -1131 0 0 0 0 0
225 1 3 31.1018 -1128 0 0 0 0 0
226 1 3 31.1018 -1125 0 0 0 0 0
227 1 3 31.1018 -1122 0 0 0 0 0
228 1 3 31.1018 -1119 0 0 0 0 0
229 1 3 31.1018 -1116 0 0 0 0 0
230 1 3 31.1018 -1113 0 0 0 0 0
231 1 3 31.1018 -1110 0 0 0 0 0
232 1 3 31.1018 -1107 0 0 0 0 0
233 1 3 31.1018 -1104 0 0 0 0 0
234 1 3 31.1018 -1101 0 0 0 0 0
235 1 3 31.1018 -1098 0 0 0 0 0
236 1 3 31.1018 -1095 0 0 0 0 0
237 1 3 31.1018 -1092 0 0 0 0 0
238 1 3 31.1018 -1089 0 0 0 0 0
239 1 3 31.1018 -1086 0 0 0 0 0
240 1 3 31.1018 -1083 0 0 0 0 0
241 1 3 31.1018 -1080 0 0 0 0 0
242 1 3 31.1018 -1077 0 0 0 0 0
243 1 3 31.1018 -1074 0 0 0 0 0
244 1 3 31.1018 -1071 0 0 0 0 0
245 1 3 31.1018 -1068 0 0 0 0 0
246 1 3 31.1018 -1065 0 0 0 0 0
247 1 3 31.1018 -1062 0 0 0 0 0
248 1 3 31.1018 -1059 0 0 0 0 0
249 1 3 31.1018 -1056 0 0 0 0 0
250 1 3 31.1018 -1053 0 0 0 0 0
251 1 3 31.1018 -1050 0 0 0 0 0
252 1 3 31.1018 -1047 0 0 0 0 0
253 1 3 31.1018 -1044 0 0 0 0 0
254 1 3 31.1018 -1041 0 0 0 0 0
255 1 3 31.1018 -1038 0 0 0 0 0
256 1 3 31.1018 -1035 0 0 0 0 0
257 1 3 31.1018 -1032 0 0 0 0 0
258 1 3 31.1018 -1029 0 0 0 0 0
259 1 3 31.1018 -1026 0 0 0 0 0
260 1 3 31.1018 -1023 0 0 0 0 0
261 1 3 31.1018 -1020 0 0 0 0 0
262 1 3 31.1018 -1017 0 0 0 0 0
263 1 3 31.1018 -1014 0 0 0 0 0
264 1 3 31.1018 -1011 0 0 0 0 0
265 1 3 31.1018 -1008 0 0 0 0 0
266 1 3 31.1018 -1005 0 0 0 0 0
267 1 3 31.1018 -1002 0 0 0 0 0
268 1 3 31.1018 -999 0 0 0 0 0
269 1 3 31.1018 -996 0 0 0 0 0
270 1 3 31.1018 -993 0 0 0 0 0
271 1 3 31.1018 -990 0 0 0 0 0
272 1 3 31.1018 -987 0 0 0 0 0
273 1 3 31.1018 -984 0 0 0 0 0
274 1 3 31.1018 -981 0 0 0 0 0
275 1 3 31.1018 -978 0 0 0 0 0
276 1 3 31.1018 -975 0 0 0 0 0
277 1 3 31.1018 -972 0 0 0 0 0
278 1 3 31.1018 -969 0 0 0 0 0
279 1 3 31.1018 -966 0 0 0 0 0
280 1 3 31.1018 -963 0 0 0 0 0
281 1 3 31.1018 -960 0 0 0 0 0
282 1 3 31.1018 -957 0 0 0 0 0
283 1 3 31.1018 -954 0 0 0 0 0
284 1 3 31.1018 -951 0 0 0 0 0
285 1 3 31.1018 -948 0 0 0 0 0
286 1 3 31.1018 -945 0 0 0 0 0
287 1 3 31.1018 -942 0 0 0 0 0
288 1 3 31.1018 -939 0 0 0 0 0
289 1 3 31.1018 -936 0 0 0 0 0
290 1 3 31.1018 -933 0 0 0 0 0
291 1 3 31.1018 -930 0 0 0 0 0
292 1 3 31.1018 -927 0 0 0 0 0
293 1 3 31.1018 -924 0 0 0 0 0
294 1 3 31.1018 -921 0 0 0 0 0
295 1 3 31.1018 -918 0 0 0 0 0
296 1 3 31.1018 -915 0 0 0 0 0
297 1 3 31.1018 -912 0 0 0 0 0
298 1 3 31.1018 -909 0 0 0 0 0
299 1 3 31.1018 -906 0 0 0 0 0
300 1 3 31.1018 -903 0 0 0 0 0
1201 2 3 31.1018 -1204.50010136561832 -6.66134e-14 2.59757461902371833 0.127655 0 -7.59166e-06
1202 2 3 31.1018 -1201.50010136561832 -6.64468e-14 2.59757461898747311 0.127336 0 -1.9607e-06
1203 2 3 31.1018 -1198.50010136561832 -6.62803e-14 2.59757461895122743 0.127017 0 3.67287e-06
1204 2 3 31.1018 -1195.50010136561832 -6.61138e-14 2.5975746189149822 0.126698 0 9.30406e-06
1205 2 3 31.1018 -1192.50010136561809 -6.59472e-14 2.59757461887873697 0.126379 0 1.49128e-05
1206 2 3 31.1018 -1189.50010136561809 -6.57807e-14 2.59757461884249174 0.12606 0 2.05459e-05
1207 2 3 31.1018 -1186.50010136561809 -6.56142e-14 2.59757461880624607 0.125741 0 2.61773e-05
1208 2 3 31.1018 -1183.50010136561809 -6.54476e-14 2.59757461877000084 0.125422 0 3.18089e-05
1209 2 3 31.1018 -1180.50010136561809 -6.52811e-14 2.59757461873375561 0.125103 0 3.74408e-05
1210 2 3 31.1018 -1177.50010136561787 -6.51146e-14 2.59757461869751038 0.124784 0 4.3049e-05
1211 2 3 31.1018 -1174.50010136561787 -6.4948e-14 2.59757461866126471 0.124465 0 4.86822e-05
1212 2 3 31.1018 -1171.50010136561787 -6.47815e-14 2.59757461862501948 0.124146 0 5.43132e-05
1213 2 3 31.1018 -1168.50010136561787 -6.4615e-14 2.59757461858877425 0.123827 0 5.99447e-05
1214 2 3 31.1018 -1165.50010136561764 -6.44484e-14 2.59757461855252902 0.123508 0 6.55537e-05
1215 2 3 31.1018 -1162.50010136561764 -6.42819e-14 2.59757461851628335 0.123189 0 7.11874e-05
1216 2 3 31.1018 -1159.50010136561764 -6.41154e-14 2.59757461848003812 0.12287 0 7.68185e-05
1217 2 3 31.1018 -1156.50010136561764 -6.39488e-14 2.59757461844379289 0.122551 0 8.24498e-05
1218 2 3 31.1018 -1153.50010136561764 -6.37823e-14 2.59757461840754766 0.122232 0 8.80812e-05
1219 2 3 31.1018 -1150.50010136561741 -6.36158e-14 2.59757461837130199 0.121913 0 9.36907e-05
1220 2 3 31.1018 -1147.50010136561741 -6.34492e-14 2.59757461833505676 0.121594 0 9.93218e-05
1221 2 3 31.1018 -1144.50010136561741 -6.32827e-14 2.59757461829881153 0.121275 0 0.000104954
1222 2 3 31.1018 -1141.50010136561741 -6.31162e-14 2.5975746182625663 0.120956 0 0.000110585
1223 2 3 31.1018 -1138.50010136561718 -6.29496e-14 2.59757461822632063 0.120637 0 0.000116195
1224 2 3 31.1018 -1135.50010136561718 -6.27831e-14 2.5975746181900754 0.120318 0 0.000121826
1225 2 3 31.1018 -1132.50010136561718 -6.26166e-14 2.59757461815383017 0.119999 0 0.000127458
1226 2 3 31.1018 -1129.50010136561718 -6.245e-14 2.59757461811758494 0.11968 0 0.00013309
1227 2 3 31.1018 -1126.50010136561696 -6.22835e-14 2.59757461808133927 0.119361 0 0.000138699
1228 2 3 31.1018 -1123.50010136561696 -6.2117e-14 2.59757461804509404 0.119042 0 0.00014433
1229 2 3 31.1018 -1120.50010136561696 -6.19504e-14 2.59757461800884881 0.118723 0 0.000149961
1230 2 3 31.1018 -1117.50010136561696 -6.17839e-14 2.59757461797260358 0.118404 0 0.000155593
1231 2 3 31.1018 -1114.50010136561696 -6.16174e-14 2.59757461793635791 0.118085 0 0.000161227
1232 2 3 31.1018 -1111.50010136561673 -6.14508e-14 2.59757461790011268 0.117766 0 0.000166836
1233 2 3 31.1018 -1108.50010136561673 -6.12843e-14 2.59757461786386745 0.117447 0 0.000172466
1234 2 3 31.1018 -1105.50010136561673 -6.11178e-14 2.59757461782762222 0.117128 0 0.000178098
1235 2 3 31.1018 -1102.50010136561673 -6.09512e-14 2.59757461779137655 0.116809 0 0.00018373
1236 2 3 31.1018 -1099.5001013656165 -6.07847e-14 2.59757461775513132 0.11649 0 0.000189339
1237 2 3 31.1018 -1096.5001013656165 -6.06182e-14 2.59757461771888609 0.116171 0 0.000194971
1238 2 3 31.1018 -1093.5001013656165 -6.04516e-14 2.59757461768264086 0.115852 0 0.000200602
1239 2 3 31.1018 -1090.5001013656165 -6.02851e-14 2.59757461764639519 0.115533 0 0.000206235
1240 2 3 31.1018 -1087.50010136561627 -6.01186e-14 2.59757461761014996 0.115214 0 0.000211844
1241 2 3 31.1018 -1084.50010136561627 -5.9952e-14 2.59757461757390473 0.114895 0 0.000217476
1242 2 3 31.1018 -1081.50010136561627 -5.97855e-14 2.5975746175376595 0.114576 0 0.000223106
1243 2 3 31.1018 -1078.50010136561627 -5.9619e-14 2.59757461750141383 0.114257 0 0.000228739
1244 2 3 31.1018 -1075.50010136561627 -5.94524e-14 2.5975746174651686 0.113938 0 0.000234369
1245 2 3 31.1018 -1072.50010136561605 -5.92859e-14 2.59757461742892337 0.113619 0 0.00023998
1246 2 3 31.1018 -1069.50010136561605 -5.91194e-14 2.59757461739267814 0.1133 0 0.000245611
1247 2 3 31.1018 -1066.50010136561605 -5.89528e-14 2.59757461735643247 0.112981 0 0.000251243
1248 2 3 31.1018 -1063.50010136561605 -5.87863e-14 2.59757461732018724 0.112662 0 0.000256875
1249 2 3 31.1018 -1060.50010136561582 -5.86198e-14 2.59757461728394201 0.112343 0 0.000262483
1250 2 3 31.1018 -1057.50010136561582 -5.84532e-14 2.59757461724769678 0.112024 0 0.000268115
1251 2 3 31.1018 -1054.50010136561582 -5.82867e-14 2.59757461721145111 0.111705 0 0.000273746
1252 2 3 31.1018 -1051.50010136561582 -5.81202e-14 2.59757461717520588 0.111386 0 0.000279378
1253 2 3 31.1018 -1048.50010136561582 -5.79536e-14 2.59757461713896065 0.111067 0 0.000285009
1254 2 3 31.1018 -1045.50010136561559 -5.77871e-14 2.59757461710271542 0.110748 0 0.000290618
1255 2 3 31.1018 -1042.50010136561559 -5.76206e-14 2.59757461706646975 0.110429 0 0.00029625
1256 2 3 31.1018 -1039.50010136561559 -5.7454e-14 2.59757461703022452 0.11011 0 0.000301882
1257 2 3 31.1018 -1036.50010136561559 -5.72875e-14 2.59757461699397929 0.109791 0 0.000307513
1258 2 3 31.1018 -1033.50010136561536 -5.7121e-14 2.59757461695773406 0.109472 0 0.000313121
1259 2 3 31.1018 -1030.50010136561536 -5.69544e-14 2.59757461692148839 0.109153 0 0.000318754
1260 2 3 31.1018 -1027.50010136561536 -5.67879e-14 2.59757461688524316 0.108834 0 0.000324386
1261 2 3 31.1018 -1024.50010136561514 -5.66214e-14 2.59757461684899793 0.108515 0 0.000329994
1262 2 3 31.1018 -1021.50010136561514 -5.64548e-14 2.5975746168127527 0.108196 0 0.000335625
1263 2 3 31.1018 -1018.50010136561502 -5.62883e-14 2.59757461677650703 0.107877 0 0.000341245
1264 2 3 31.1018 -1015.50010136561502 -5.61218e-14 2.5975746167402618 0.107558 0 0.000346877
1265 2 3 31.1018 -1012.50010136561502 -5.59552e-14 2.59757461670401657 0.107239 0 0.000352509
1266 2 3 31.1018 -1009.50010136561491 -5.57887e-14 2.59757461666777134 0.10692 0 0.000358129
1267 2 3 31.1018 -1006.50010136561491 -5.56222e-14 2.59757461663152567 0.106601 0 0.000363777
1268 2 3 31.1018 -1003.5001013656148 -5.54556e-14 2.59757461659528044 0.106282 0 0.000369478
1269 2 3 31.1018 -1000.5001013656148 -5.52891e-14 2.59757461655903521 0.105963 0 0.000375192
1270 2 3 31.1018 -997.500101365614682 -5.51226e-14 2.59757461652278998 0.105643 0 0.000380893
1271 2 3 31.1018 -994.500101365614682 -5.4956e-14 2.59757461648654431 0.105324 0 0.000386607
1272 2 3 31.1018 -991.500101365614569 -5.47895e-14 2.59757461645029908 0.105005 0 0.000392308
1273 2 3 31.1018 -988.500101365614569 -5.4623e-14 2.59757461641405385 0.104686 0 0.000398021
1274 2 3 31.1018 -985.500101365614455 -5.44564e-14 2.59757461637780862 0.104367 0 0.000403722
1275 2 3 31.1018 -982.500101365614455 -5.42899e-14 2.59757461634156295 0.104048 0 0.000409437
1276 2 3 31.1018 -979.500101365614455 -5.41234e-14 2.59757461630531772 0.103728 0 0.000415149
1277 2 3 31.1018 -976.500101365614341 -5.39568e-14 2.59757461626907249 0.103409 0 0.000420851
1278 2 3 31.1018 -973.500101365614341 -5.37903e-14 2.59757461623282726 0.10309 0 0.000426563
1279 2 3 31.1018 -970.500101365614228 -5.36238e-14 2.59757461619658159 0.102771 0 0.000432266
1280 2 3 31.1018 -967.500101365614228 -5.34572e-14 2.59757461616033636 0.102452 0 0.000437979
1281 2 3 31.1018 -964.500101365614114 -5.32907e-14 2.59757461612409113 0.102133 0 0.000443681
1282 2 3 31.1018 -961.500101365614114 -5.31242e-14 2.5975746160878459 0.101814 0 0.000449393
1283 2 3 31.1018 -958.500101365614 -5.29576e-14 2.59757461605160023 0.101494 0 0.000455096
1284 2 3 31.1018 -955.500101365614 -5.27911e-14 2.597574616015355 0.101175 0 0.000460809
1285 2 3 31.1018 -952.500101365613887 -5.26246e-14 2.59757461597910977 0.100856 0 0.000466509
1286 2 3 31.1018 -949.500101365613887 -5.2458e-14 2.59757461594286454 0.100537 0 0.000472222
1287 2 3 31.1018 -946.500101365613887 -5.22915e-14 2.59757461590661887 0.100218 0 0.000477935
1288 2 3 31.1018 -943.500101365613773 -5.2125e-14 2.59757461587037364 0.0998986 0 0.000483637
1289 2 3 31.1018 -940.500101365613773 -5.19584e-14 2.59757461583412841 0.0995795 0 0.000489352
1290 2 3 31.1018 -937.500101365613659 -5.17919e-14 2.59757461579788318 0.0992603 0 0.000495052
1291 2 3 31.1018 -934.500101365613659 -5.16254e-14 2.59757461576163751 0.0989412 0 0.000500766
1292 2 3 31.1018 -931.500101365613546 -5.14588e-14 2.59757461572539228 0.098622 0 0.000506467
1293 2 3 31.1018 -928.500101365613546 -5.12923e-14 2.59757461568914705 0.0983029 0 0.00051218
1294 2 3 31.1018 -925.500101365613432 -5.11258e-14 2.59757461565290182 0.0979837 0 0.000517881
1295 2 3 31.1018 -922.500101365613432 -5.09592e-14 2.59757461561665615 0.0976646 0 0.000523595
1296 2 3 31.1018 -919.500101365613318 -5.07927e-14 2.59757461558041092 0.0973454 0 0.000529297
1297 2 3 31.1018 -916.500101365613318 -5.06262e-14 2.59757461554416569 0.0970263 0 0.000535009
1298 2 3 31.1018 -913.500101365613205 -5.04596e-14 2.59757461550792046 0.0967071 0 0.00054071
1299 2 3 31.1018 -910.500101365613205 -5.02931e-14 2.59757461547167479 0.096388 0 0.000546424
1300 2 3 31.1018 -907.500101365613205 -5.01266e-14 2.59757461543542956 0.0960689 0 0.000552137
1301 2 3 31.1018 -904.500101365613091 -4.996e-14 2.59757461539918433 0.0957497 0 0.000557837
1302 2 3 31.1018 -901.500101365613091 -4.97935e-14 2.5975746153629391 0.0954306 0 0.00056355
301 1 3 31.1018 -900 0 0 0 0 0
302 1 3 31.1018 -897 0 0 0 0 0
303 1 3 31.1018 -894 0 0 0 0 0
304 1 3 31.1018 -891 0 0 0 0 0
305 1 3 31.1018 -888 0 0 0 0 0
306 1 3 31.1018 -885 0 0 0 0 0
307 1 3 31.1018 -882 0 0 0 0 0
308 1 3 31.1018 -879 0 0 0 0 0
309 1 3 31.1018 -876 0 0 0 0 0
310 1 3 31.1018 -873 0 0 0 0 0
311 1 3 31.1018 -870 0 0 0 0 0
312 1 3 31.1018 -867 0 0 0 0 0
313 1 3 31.1018 -864 0 0 0 0 0
314 1 3 31.1018 -861 0 0 0 0 0
315 1 3 31.1018 -858 0 0 0 0 0
316 1 3 31.1018 -855 0 0 0 0 0
317 1 3 31.1018 -852 0 0 0 0 0
318 1 3 31.1018 -849 0 0 0 0 0
319 1 3 31.1018 -846 0 0 0 0 0
320 1 3 31.1018 -843 0 0 0 0 0
321 1 3 31.1018 -840 0 0 0 0 0
322 1 3 31.1018 -837 0 0 0 0 0
323 1 3 31.1018 -834 0 0 0 0 0
324 1 3 31.1018 -831 0 0 0 0 0
325 1 3 31.1018 -828 0 0 0 0 0
326 1 3 31.1018 -825 0 0 0 0 0
327 1 3 31.1018 -822 0 0 0 0 0
328 1 3 31.1018 -819 0 0 0 0 0
329 1 3 31.1018 -816 0 0 0 0 0
330 1 3 31.1018 -813 0 0 0 0 0
331 1 3 31.1018 -810 0 0 0 0 0
332 1 3 31.1018 -807 0 0 0 0 0
333 1 3 31.1018 -804 0 0 0 0 0
334 1 3 31.1018 -801 0 0 0 0 0
335 1 3 31.1018 -798 0 0 0 0 0
336 1 3 31.1018 -795 0 0 0 0 0
337 1 3 31.1018 -792 0 0 0 0 0
338 1 3 31.1018 -789 0 0 0 0 0
339 1 3 31.1018 -786 0 0 0 0 0
340 1 3 31.1018 -783 0 0 0 0 0
341 1 3 31.1018 -780 0 0 0 0 0
342 1 3 31.1018 -777 0 0 0 0 0
343 1 3 31.1018 -774 0 0 0 0 0
344 1 3 31.1018 -771 0 0 0 0 0
345 1 3 31.1018 -768 0 0 0 0 0
346 1 3 31.1018 -765 0 0 0 0 0
347 1 3 31.1018 -762 0 0 0 0 0
348 1 3 31.1018 -759 0 0 0 0 0
349 1 3 31.1018 -756 0 0 0 0 0
350 1 3 31.1018 -753 0 0 0 0 0
351 1 3 31.1018 -750 0 0 0 0 0
352 1 3 31.1018 -747 0 0 0 0 0
353 1 3 31.1018 -744 0 0 0 0 0
354 1 3 31.1018 -741 0 0 0 0 0
355 1 3 31.1018 -738 0 0 0 0 0
356 1 3 31.1018 -735 0 0 0 0 0
357 1 3 31.1018 -732 0 0 0 0 0
358 1 3 31.1018 -729 0 0 0 0 0
359 1 3 31.1018 -726 0 0 0 0 0
360 1 3 31.1018 -723 0 0 0 0 0
361 1 3 31.1018 -720 0 0 0 0 0
362 1 3 31.1018 -717 0 0 0 0 0
363 1 3 31.1018 -714 0 0 0 0 0
364 1 3 31.1018 -711 0 0 0 0 0
365 1 3 31.1018 -708 0 0 0 0 0
366 1 3 31.1018 -705 0 0 0 0 0
367 1 3 31.1018 -702 0 0 0 0 0
368 1 3 31.1018 -699 0 0 0 0 0
369 1 3 31.1018 -696 0 0 0 0 0
370 1 3 31.1018 -693 0 0 0 0 0
371 1 3 31.1018 -690 0 0 0 0 0
372 1 3 31.1018 -687 0 0 0 0 0
373 1 3 31.1018 -684 0 0 0 0 0
374 1 3 31.1018 -681 0 0 0 0 0
375 1 3 31.1018 -678 0 0 0 0 0
376 1 3 31.1018 -675 0 0 0 0 0
377 1 3 31.1018 -672 0 0 0 0 0
378 1 3 31.1018 -669 0 0 0 0 0
379 1 3 31.1018 -666 0 0 0 0 0
380 1 3 31.1018 -663 0 0 0 0 0
381 1 3 31.1018 -660 0 0 0 0 0
382 1 3 31.1018 -657 0 0 0 0 0
383 1 3 31.1018 -654 0 0 0 0 0
384 1 3 31.1018 -651 0 0 0 0 0
385 1 3 31.1018 -648 0 0 0 0 0
386 1 3 31.1018 -645 0 0 0 0 0
387 1 3 31.1018 -642 0 0 0 0 0
388 1 3 31.1018 -639 0 0 0 0 0
389 1 3 31.1018 -636 0 0 0 0 0
390 1 3 31.1018 -633 0 0 0 0 0
391 1 3 31.1018 -630 0 0 0 0 0
392 1 3 31.1018 -627 0 0 0 0 0
393 1 3 31.1018 -624 0 0 0 0 0
394 1 3 31.1018 -621 0 0 0 0 0
395 1 3 31.1018 -618 0 0 0 0 0
396 1 3 31.1018 -615 0 0 0 0 0
397 1 3 31.1018 -612 0 0 0 0 0
398 1 3 31.1018 -609 0 0 0 0 0
399 1 3 31.1018 -606 0 0 0 0 0
400 1 3 31.1018 -603 0 0 0 0 0
401 1 3 31.1018 -600 0 0 0 0 0
402 1 3 31.1018 -597 0 0 0 0 0
403 1 3 31.1018 -594 0 0 0 0 0
404 1 3 31.1018 -591 0 0 0 0 0
405 1 3 31.1018 -588 0 0 0 0 0
406 1 3 31.1018 -585 0 0 0 0 0
407 1 3 31.1018 -582 0 0 0 0 0
408 1 3 31.1018 -579 0 0 0 0 0
409 1 3 31.1018 -576 0 0 0 0 0
410 1 3 31.1018 -573 0 0 0 0 0
411 1 3 31.1018 -570 0 0 0 0 0
412 1 3 31.1018 -567 0 0 0 0 0
413 1 3 31.1018 -564 0 0 0 0 0
414 1 3 31.1018 -561 0 0 0 0 0
415 1 3 31.1018 -558 0 0 0 0 0
416 1 3 31.1018 -555 0 0 0 0 0
417 1 3 31.1018 -552 0 0 0 0 0
418 1 3 31.1018 -549 0 0 0 0 0
419 1 3 31.1018 -546 0 0 0 0 0
420 1 3 31.1018 -543 0 0 0 0 0
421 1 3 31.1018 -540 0 0 0 0 0
422 1 3 31.1018 -537 0 0 0 0 0
423 1 3 31.1018 -534 0 0 0 0 0
424 1 3 31.1018 -531 0 0 0 0 0
425 1 3 31.1018 -528 0 0 0 0 0
426 1 3 31.1018 -525 0 0 0 0 0
427 1 3 31.1018 -522 0 0 0 0 0
428 1 3 31.1018 -519 0 0 0 0 0
429 1 3 31.1018 -516 0 0 0 0 0
430 1 3 31.1018 -513 0 0 0 0 0
431 1 3 31.1018 -510 0 0 0 0 0
432 1 3 31.1018 -507 0 0 0 0 0
433 1 3 31.1018 -504 0 0 0 0 0
434 1 3 31.1018 -501 0 0 0 0 0
435 1 3 31.1018 -498 0 0 0 0 0
436 1 3 31.1018 -495 0 0 0 0 0
437 1 3 31.1018 -492 0 0 0 0 0
438 1 3 31.1018 -489 0 0 0 0 0
439 1 3 31.1018 -486 0 0 0 0 0
440 1 3 31.1018 -483 0 0 0 0 0
441 1 3 31.1018 -480 0 0 0 0 0
442 1 3 31.1018 -477 0 0 0 0 0
443 1 3 31.1018 -474 0 0 0 0 0
444 1 3 31.1018 -471 0 0 0 0 0
445 1 3 31.1018 -468 0 0 0 0 0
446 1 3 31.1018 -465 0 0 0 0 0
447 1 3 31.1018 -462 0 0 0 0 0
448 1 3 31.1018 -459 0 0 0 0 0
449 1 3 31.1018 -456 0 0 0 0 0
450 1 3 31.1018 -453 0 0 0 0 0
451 1 3 31.1018 -450 0 0 0 0 0
452 1 3 31.1018 -447 0 0 0 0 0
453 1 3 31.1018 -444 0 0 0 0 0
454 1 3 31.1018 -441 0 0 0 0 0
455 1 3 31.1018 -438 0 0 0 0 0
456 1 3 31.1018 -435 0 0 0 0 0
457 1 3 31.1018 -432 0 0 0 0 0
458 1 3 31.1018 -429 0 0 0 0 0
459 1 3 31.1018 -426 0 0 0 0 0
460 1 3 31.1018 -423 0 0 0 0 0
461 1 3 31.1018 -420 0 0 0 0 0
462 1 3 31.1018 -417 0 0 0 0 0
463 1 3 31.1018 -414 0 0 0 0 0
464 1 3 31.1018 -411 0 0 0 0 0
465 1 3 31.1018 -408 0 0 0 0 0
466 1 3 31.1018 -405 0 0 0 0 0
467 1 3 31.1018 -402 0 0 0 0 0
468 1 3 31.1018 -399 0 0 0 0 0
469 1 3 31.1018 -396 0 0 0 0 0
470 1 3 31.1018 -393 0 0 0 0 0
471 1 3 31.1018 -390 0 0 0 0 0
472 1 3 31.1018 -387 0 0 0 0 0
473 1 3 31.1018 -384 0 0 0 0 0
474 1 3 31.1018 -381 0 0 0 0 0
475 1 3 31.1018 -378 0 0 0 0 0
476 1 3 31.1018 -375 0 0 0 0 0
477 1 3 31.1018 -372 0 0 0 0 0
478 1 3 31.1018 -369 0 0 0 0 0
479 1 3 31.1018 -366 0 0 0 0 0
480 1 3 31.1018 -363 0 0 0 0 0
481 1 3 31.1018 -360 0 0 0 0 0
482 1 3 31.1018 -357 0 0 0 0 0
483 1 3 31.1018 -354 0 0 0 0 0
484 1 3 31.1018 -351 0 0 0 0 0
485 1 3 31.1018 -348 0 0 0 0 0
486 1 3 31.1018 -345 0 0 0 0 0
487 1 3 31.1018 -342 0 0 0 0 0
488 1 3 31.1018 -339 0 0 0 0 0
489 1 3 31.1018 -336 0 0 0 0 0
490 1 3 31.1018 -333 0 0 0 0 0
491 1 3 31.1018 -330 0 0 0 0 0
492 1 3 31.1018 -327 0 0 0 0 0
493 1 3 31.1018 -324 0 0 0 0 0
494 1 3 31.1018 -321 0 0 0 0 0
495 1 3 31.1018 -318 0 0 0 0 0
496 1 3 31.1018 -315 0 0 0 0 0
497 1 3 31.1018 -312 0 0 0 0 0
498 1 3 31.1018 -309 0 0 0 0 0
499 1 3 31.1018 -306 0 0 0 0 0
500 1 3 31.1018 -303 0 0 0 0 0
501 1 3 31.1018 -300 0 0 0 0 0
502 1 3 31.1018 -297 0 0 0 0 0
503 1 3 31.1018 -294 0 0 0 0 0
504 1 3 31.1018 -291 0 0 0 0 0
505 1 3 31.1018 -288 0 0 0 0 0
506 1 3 31.1018 -285 0 0 0 0 0
507 1 3 31.1018 -282 0 0 0 0 0
508 1 3 31.1018 -279 0 0 0 0 0
509 1 3 31.1018 -276 0 0 0 0 0
510 1 3 31.1018 -273 0 0 0 0 0
511 1 3 31.1018 -270 0 0 0 0 0
512 1 3 31.1018 -267 0 0 0 0 0
513 1 3 31.1018 -264 0 0 0 0 0
514 1 3 31.1018 -261 0 0 0 0 0
515 1 3 31.1018 -258 0 0 0 0 0
516 1 3 31.1018 -255 0 0 0 0 0
517 1 3 31.1018 -252 0 0 0 0 0
518 1 3 31.1018 -249 0 0 0 0 0
519 1 3 31.1018 -246 0 0 0 0 0
520 1 3 31.1018 -243 0 0 0 0 0
521 1 3 31.1018 -240 0 0 0 0 0
522 1 3 31.1018 -237 0 0 0 0 0
523 1 3 31.1018 -234 0 0 0 0 0
524 1 3 31.1018 -231 0 0 0 0 0
525 1 3 31.1018 -228 0 0 0 0 0
526 1 3 31.1018 -225 0 0 0 0 0
527 1 3 31.1018 -222 0 0 0 0 0
528 1 3 31.1018 -219 0 0 0 0 0
529 1 3 31.1018 -216 0 0 0 0 0
530 1 3 31.1018 -213 0 0 0 0 0
531 1 3 31.1018 -210 0 0 0 0 0
532 1 3 31.1018 -207 0 0 0 0 0
533 1 3 31.1018 -204 0 0 0 0 0
534 1 3 31.1018 -201 0 0 0 0 0
535 1 3 31.1018 -198 0 0 0 0 0
536 1 3 31.1018 -195 0 0 0 0 0
537 1 3 31.1018 -192 0 0 0 0 0
538 1 3 31.1018 -189 0 0 0 0 0
539 1 3 31.1018 -186 0 0 0 0 0
540 1 3 31.1018 -183 0 0 0 0 0
541 1 3 31.1018 -180 0 0 0 0 0
542 1 3 31.1018 -177 0 0 0 0 0
543 1 3 31.1018 -174 0 0 0 0 0
544 1 3 31.1018 -171 0 0 0 0 0
545 1 3 31.1018 -168 0 0 0 0 0
546 1 3 31.1018 -165 0 0 0 0 0
547 1 3 31.1018 -162 0 0 0 0 0
548 1 3 31.1018 -159 0 0 0 0 0
549 1 3 31.1018 -156 0 0 0 0 0
550 1 3 31.1018 -153 0 0 0 0 0
551 1 3 31.1018 -150 0 0 0 0 0
552 1 3 31.1018 -147 0 0 0 0 0
553 1 3 31.1018 -144 0 0 0 0 0
554 1 3 31.1018 -141 0 0 0 0 0
555 1 3 31.1018 -138 0 0 0 0 0
556 1 3 31.1018 -135 0 0 0 0 0
557 1 3 31.1018 -132 0 0 0 0 0
558 1 3 31.1018 -129 0 0 0 0 0
559 1 3 31.1018 -126 0 0 0 0 0
560 1 3 31.1018 -123 0 0 0 0 0
561 1 3 31.1018 -120 0 0 0 0 0
562 1 3 31.1018 -117 0 0 0 0 0
563 1 3 31.1018 -114 0 0 0 0 0
564 1 3 31.1018 -111 0 0 0 0 0
565 1 3 31.1018 -108 0 0 0 0 0
566 1 3 31.1018 -105 0 0 0 0 0
567 1 3 31.1018 -102 0 0 0 0 0
568 1 3 31.1018 -99 0 0 0 0 0
569 1 3 31.1018 -96 0 0 0 0 0
570 1 3 31.1018 -93 0 0 0 0 0
571 1 3 31.1018 -90 0 0 0 0 0
572 1 3 31.1018 -87 0 0 0 0 0
573 1 3 31.1018 -84 0 0 0 0 0
574 1 3 31.1018 -81 0 0 0 0 0
575 1 3 31.1018 -78 0 0 0 0 0
576 1 3 31.1018 -75 0 0 0 0 0
577 1 3 31.1018 -72 0 0 0 0 0
578 1 3 31.1018 -69 0 0 0 0 0
579 1 3 31.1018 -66 0 0 0 0 0
580 1 3 31.1018 -63 0 0 0 0 0
581 1 3 31.1018 -60 0 0 0 0 0
582 1 3 31.1018 -57 0 0 0 0 0
583 1 3 31.1018 -54 0 0 0 0 0
584 1 3 31.1018 -51 0 0 0 0 0
585 1 3 31.1018 -48 0 0 0 0 0
586 1 3 31.1018 -45 0 0 0 0 0
587 1 3 31.1018 -42 0 0 0 0 0
588 1 3 31.1018 -39 0 0 0 0 0
589 1 3 31.1018 -36 0 0 0 0 0
590 1 3 31.1018 -33 0 0 0 0 0
591 1 3 31.1018 -30 0 0 0 0 0
592 1 3 31.1018 -27 0 0 0 0 0
593 1 3 31.1018 -24 0 0 0 0 0
594 1 3 31.1018 -21 0 0 0 0 0
595 1 3 31.1018 -18 0 0 0 0 0
596 1 3 31.1018 -15 0 0 0 0 0
597 1 3 31.1018 -12 0 0 0 0 0
598 1 3 31.1018 -9 0 0 0 0 0
599 1 3 31.1018 -6 0 0 0 0 0
600 1 3 31.1018 -3 0 0 0 0 0
1303 2 3 31.1018 -898.500101365612977 -4.9627e-14 2.59757461532669343 0.0951114 0 0.000569253
1304 2 3 31.1018 -895.500101365612977 -4.94604e-14 2.5975746152904482 0.0947923 0 0.000574966
1305 2 3 31.1018 -892.500101365612863 -4.92939e-14 2.59757461525420297 0.0944731 0 0.000580667
1306 2 3 31.1018 -889.500101365612863 -4.91274e-14 2.59757461521795774 0.094154 0 0.000586379
1307 2 3 31.1018 -886.50010136561275 -4.89608e-14 2.59757461518171207 0.0938347 0 0.000592082
1308 2 3 31.1018 -883.50010136561275 -4.87943e-14 2.59757461514546684 0.0935156 0 0.000597794
1309 2 3 31.1018 -880.500101365612636 -4.86278e-14 2.59757461510922161 0.0931964 0 0.000603497
1310 2 3 31.1018 -877.500101365612636 -4.84612e-14 2.59757461507297638 0.0928773 0 0.00060921
1311 2 3 31.1018 -874.500101365612636 -4.82947e-14 2.59757461503673071 0.0925582 0 0.000614923
1312 2 3 31.1018 -871.500101365612522 -4.81282e-14 2.59757461500048548 0.092239 0 0.000620624
1313 2 3 31.1018 -868.500101365612522 -4.79616e-14 2.59757461496424025 0.0919199 0 0.000626336
1314 2 3 31.1018 -865.500101365612409 -4.77951e-14 2.59757461492799502 0.0916007 0 0.000632037
1315 2 3 31.1018 -862.500101365612409 -4.76286e-14 2.59757461489174934 0.0912816 0 0.000637751
1316 2 3 31.1018 -859.500101365612295 -4.7462e-14 2.59757461485550412 0.0909624 0 0.000643452
1317 2 3 31.1018 -856.500101365612295 -4.72955e-14 2.59757461481925889 0.0906433 0 0.000649165