ITEM: TIMESTEP
3900000
ITEM: NUMBER OF ATOMS
3501
ITEM: BOX BOUNDS pp pp pp
-3.1500000000000000e+03 3.1500000000000000e+03
-1.0000000000000000e+02 1.0000000000000000e+02
-1.0000000000000000e+02 1.0000000000000000e+02
ITEM: ATOMS id type diameter mass xu yu zu fx fy fz
1 1 3 31.1018 -3150 0 0 0 0 0
2 1 3 31.1018 -3147 0 0 0 0 0
3 1 3 31.1018 -3144 0 0 0 0 0
4 1 3 31.1018 -3141 0 0 0 0 0
5 1 3 31.1018 -3138 0 0 0 0 0
6 1 3 31.1018 -3135 0 0 0 0 0
7 1 3 31.1018 -3132 0 0 0 0 0
8 1 3 31.1018 -3129 0 0 0 0 0
9 1 3 31.1018 -3126 0 0 0 0 0
10 1 3 31.1018 -3123 0 0 0 0 0
11 1 3 31.1018 -3120 0 0 0 0 0
12 1 3 31.1018 -3117 0 0 0 0 0
13 1 3 31.1018 -3114 0 0 0 0 0
14 1 3 31.1018 -3111 0 0 0 0 0
15 1 3 31.1018 -3108 0 0 0 0 0
16 1 3 31.1018 -3105 0 0 0 0 0
17 1 3 31.1018 -3102 0 0 0 0 0
18 1 3 31.1018 -3099 0 0 0 0 0
19 1 3 31.1018 -3096 0 0 0 0 0
20 1 3 31.1018 -3093 0 0 0 0 0
21 1 3 31.1018 -3090 0 0 0 0 0
22 1 3 31.1018 -3087 0 0 0 0 0
23 1 3 31.1018 -3084 0 0 0 0 0
24 1 3 31.1018 -3081 0 0 0 0 0
25 1 3 31.1018 -3078 0 0 0 0 0
26 1 3 31.1018 -3075 0 0 0 0 0
27 1 3 31.1018 -3072 0 0 0 0 0
28 1 3 31.1018 -3069 0 0 0 0 0
29 1 3 31.1018 -3066 0 0 0 0 0
30 1 3 31.1018 -3063 0 0 0 0 0
31 1 3 31.1018 -3060 0 0 0 0 0
32 1 3 31.1018 -3057 0 0 0 0 0
33 1 3 31.1018 -3054 0 0 0 0 0
34 1 3 31.1018 -3051 0 0 0 0 0
35 1 3 31.1018 -3048 0 0 0 0 0
36 1 3 31.1018 -3045 0 0 0 0 0
37 1 3 31.1018 -3042 0 0 0 0 0
38 1 3 31.1018 -3039 0 0 0 0 0
39 1 3 31.1018 -3036 0 0 0 0 0
40 1 3 31.1018 -3033 0 0 0 0 0
41 1 3 31.1018 -3030 0 0 0 0 0
42 1 3 31.1018 -3027 0 0 0 0 0
43 1 3 31.1018 -3024 0 0 0 0 0
44 1 3 31.1018 -3021 0 0 0 0 0
45 1 3 31.1018 -3018 0 0 0 0 0
46 1 3 31.1018 -3015 0 0 0 0 0
47 1 3 31.1018 -3012 0 0 0 0 0
48 1 3 31.1018 -3009 0 0 0 0 0
49 1 3 31.1018 -3006 0 0 0 0 0
50 1 3 31.1018 -3003 0 0 0 0 0
51 1 3 31.1018 -3000 0 0 0 0 0
52 1 3 31.1018 -2997 0 0 0 0 0
53 1 3 31.1018 -2994 0 0 0 0 0
54 1 3 31.1018 -2991 0 0 0 0 0
55 1 3 31.1018 -2988 0 0 0 0 0
56 1 3 31.1018 -2985 0 0 0 0 0
57 1 3 31.1018 -2982 0 0 0 0 0
58 1 3 31.1018 -2979 0 0 0 0 0
59 1 3 31.1018 -2976 0 0 0 0 0
60 1 3 31.1018 -2973 0 0 0 0 0
61 1 3 31.1018 -2970 0 0 0 0 0
62 1 3 31.1018 -2967 0 0 0 0 0
63 1 3 31.1018 -2964 0 0 0 0 0
64 1 3 31.1018 -2961 0 0 0 0 0
65 1 3 31.1018 -2958 0 0 0 0 0
66 1 3 31.1018 -2955 0 0 0 0 0
67 1 3 31.1018 -2952 0 0 0 0 0
68 1 3 31.1018 -2949 0 0 0 0 0
69 1 3 31.1018 -2946 0 0 0 0 0
70 1 3 31.1018 -2943 0 0 0 0 0
71 1 3 31.1018 -2940 0 0 0 0 0
72 1 3 31.1018 -2937 0 0 0 0 0
73 1 3 31.1018 -2934 0 0 0 0 0
74 1 3 31.1018 -2931 0 0 0 0 0
75 1 3 31.1018 -2928 0 0 0 0 0
76 1 3 31.1018 -2925 0 0 0 0 0
77 1 3 31.1018 -2922 0 0 0 0 0
78 1 3 31.1018 -2919 0 0 0 0 0
79 1 3 31.1018 -2916 0 0 0 0 0
80 1 3 31.1018 -2913 0 0 0 0 0
81 1 3 31.1018 -2910 0 0 0 0 0
82 1 3 31.1018 -2907 0 0 0 0 0
83 1 3 31.1018 -2904 0 0 0 0 0
84 1 3 31.1018 -2901 0 0 0 0 0
85 1 3 31.1018 -2898 0 0 0 0 0
86 1 3 31.1018 -2895 0 0 0 0 0
87 1 3 31.1018 -2892 0 0 0 0 0
88 1 3 31.1018 -2889 0 0 0 0 0
89 1 3 31.1018 -2886 0 0 0 0 0
90 1 3 31.1018 -2883 0 0 0 0 0
91 1 3 31.1018 -2880 0 0 0 0 0
92 1 3 31.1018 -2877 0 0 0 0 0
93 1 3 31.1018 -2874 0 0 0 0 0
94 1 3 31.1018 -2871 0 0 0 0 0
95 1 3 31.1018 -2868 0 0 0 0 0
96 1 3 31.1018 -2865 0 0 0 0 0
97 1 3 31.1018 -2862 0 0 0 0 0
98 1 3 31.1018 -2859 0 0 0 0 0
99 1 3 31.1018 -2856 0 0 0 0 0
100 1 3 31.1018 -2853 0 0 0 0 0
101 1 3 31.1018 -2850 0 0 0 0 0
102 1 3 31.1018 -2847 0 0 0 0 0
103 1 3 31.1018 -2844 0 0 0 0 0
104 1 3 31.1018 -2841 0 0 0 0 0
105 1 3 31.1018 -2838 0 0 0 0 0
106 1 3 31.1018 -2835 0 0 0 0 0
107 1 3 31.1018 -2832 0 0 0 0 0
108 1 3 31.1018 -2829 0 0 0 0 0
109 1 3 31.1018 -2826 0 0 0 0 0
110 1 3 31.1018 -2823 0 0 0 0 0
111 1 3 31.1018 -2820 0 0 0 0 0
112 1 3 31.1018 -2817 0 0 0 0 0
113 1 3 31.1018 -2814 0 0 0 0 0
114 1 3 31.1018 -2811 0 0 0 0 0
115 1 3 31.1018 -2808 0 0 0 0 0
116 1 3 31.1018 -2805 0 0 0 0 0
117 1 3 31.1018 -2802 0 0 0 0 0
118 1 3 31.1018 -2799 0 0 0 0 0
119 1 3 31.1018 -2796 0 0 0 0 0
120 1 3 31.1018 -2793 0 0 0 0 0
121 1 3 31.1018 -2790 0 0 0 0 0
122 1 3 31.1018 -2787 0 0 0 0 0
123 1 3 31.1018 -2784 0 0 0 0 0
124 1 3 31.1018 -2781 0 0 0 0 0
125 1 3 31.1018 -2778 0 0 0 0 0
126 1 3 31.1018 -2775 0 0 0 0 0
127 1 3 31.1018 -2772 0 0 0 0 0
128 1 3 31.1018 -2769 0 0 0 0 0
129 1 3 31.1018 -2766 0 0 0 0 0
130 1 3 31.1018 -2763 0 0 0 0 0
131 1 3 31.1018 -2760 0 0 0 0 0
132 1 3 31.1018 -2757 0 0 0 0 0
133 1 3 31.1018 -2754 0 0 0 0 0
134 1 3 31.1018 -2751 0 0 0 0 0
135 1 3 31.1018 -2748 0 0 0 0 0
136 1 3 31.1018 -2745 0 0 0 0 0
137 1 3 31.1018 -2742 0 0 0 0 0
138 1 3 31.1018 -2739 0 0 0 0 0
139 1 3 31.1018 -2736 0 0 0 0 0
140 1 3 31.1018 -2733 0 0 0 0 0
141 1 3 31.1018 -2730 0 0 0 0 0
142 1 3 31.1018 -2727 0 0 0 0 0
143 1 3 31.1018 -2724 0 0 0 0 0
144 1 3 31.1018 -2721 0 0 0 0 0
145 1 3 31.1018 -2718 0 0 0 0 0
146 1 3 31.1018 -2715 0 0 0 0 0
147 1 3 31.1018 -2712 0 0 0 0 0
148 1 3 31.1018 -2709 0 0 0 0 0
149 1 3 31.1018 -2706 0 0 0 0 0
150 1 3 31.1018 -2703 0 0 0 0 0
151 1 3 31.1018 -2700 0 0 0 0 0
152 1 3 31.1018 -2697 0 0 0 0 0
153 1 3 31.1018 -2694 0 0 0 0 0
154 1 3 31.1018 -2691 0 0 0 0 0
155 1 3 31.1018 -2688 0 0 0 0 0
156 1 3 31.1018 -2685 0 0 0 0 0
157 1 3 31.1018 -2682 0 0 0 0 0
158 1 3 31.1018 -2679 0 0 0 0 0
159 1 3 31.1018 -2676 0 0 0 0 0
160 1 3 31.1018 -2673 0 0 0 0 0
161 1 3 31.1018 -2670 0 0 0 0 0
162 1 3 31.1018 -2667 0 0 0 0 0
163 1 3 31.1018 -2664 0 0 0 0 0
164 1 3 31.1018 -2661 0 0 0 0 0
165 1 3 31.1018 -2658 0 0 0 0 0
166 1 3 31.1018 -2655 0 0 0 0 0
167 1 3 31.1018 -2652 0 0 0 0 0
168 1 3 31.1018 -2649 0 0 0 0 0
169 1 3 31.1018 -2646 0 0 0 0 0
170 1 3 31.1018 -2643 0 0 0 0 0
171 1 3 31.1018 -2640 0 0 0 0 0
172 1 3 31.1018 -2637 0 0 0 0 0
173 1 3 31.1018 -2634 0 0 0 0 0
174 1 3 31.1018 -2631 0 0 0 0 0
175 1 3 31.1018 -2628 0 0 0 0 0
176 1 3 31.1018 -2625 0 0 0 0 0
177 1 3 31.1018 -2622 0 0 0 0 0
178 1 3 31.1018 -2619 0 0 0 0 0
179 1 3 31.1018 -2616 0 0 0 0 0
180 1 3 31.1018 -2613 0 0 0 0 0
181 1 3 31.1018 -2610 0 0 0 0 0
182 1 3 31.1018 -2607 0 0 0 0 0
183 1 3 31.1018 -2604 0 0 0 0 0
184 1 3 31.1018 -2601 0 0 0 0 0
185 1 3 31.1018 -2598 0 0 0 0 0
186 1 3 31.1018 -2595 0 0 0 0 0
187 1 3 31.1018 -2592 0 0 0 0 0
188 1 3 31.1018 -2589 0 0 0 0 0
189 1 3 31.1018 -2586 0 0 0 0 0
190 1 3 31.1018 -2583 0 0 0 0 0
191 1 3 31.1018 -2580 0 0 0 0 0
192 1 3 31.1018 -2577 0 0 0 0 0
193 1 3 31.1018 -2574 0 0 0 0 0
194 1 3 31.1018 -2571 0 0 0 0 0
195 1 3 31.1018 -2568 0 0 0 0 0
196 1 3 31.1018 -2565 0 0 0 0 0
197 1 3 31.1018 -2562 0 0 0 0 0
198 1 3 31.1018 -2559 0 0 0 0 0
199 1 3 31.1018 -2556 0 0 0 0 0
200 1 3 31.1018 -2553 0 0 0 0 0
201 1 3 31.1018 -2550 0 0 0 0 0
202 1 3 31.1018 -2547 0 0 0 0 0
203 1 3 31.1018 -2544 0 0 0 0 0
204 1 3 31.1018 -2541 0 0 0 0 0
205 1 3 31.1018 -2538 0 0 0 0 0
206 1 3 31.1018 -2535 0 0 0 0 0
207 1 3 31.1018 -2532 0 0 0 0 0
208 1 3 31.1018 -2529 0 0 0 0 0
209 1 3 31.1018 -2526 0 0 0 0 0
210 1 3 31.1018 -2523 0 0 0 0 0
211 1 3 31.1018 -2520 0 0 0 0 0
212 1 3 31.1018 -2517 0 0 0 0 0
213 1 3 31.1018 -2514 0 0 0 0 0
214 1 3 31.1018 -2511 0 0 0 0 0
215 1 3 31.1018 -2508 0 0 0 0 0
216 1 3 31.1018 -2505 0 0 0 0 0
217 1 3 31.1018 -2502 0 0 0 0 0
218 1 3 31.1018 -2499 0 0 0 0 0
219 1 3 31.1018 -2496 0 0 0 0 0
220 1 3 31.1018 -2493 0 0 0 0 0
221 1 3 31.1018 -2490 0 0 0 0 0
222 1 3 31.1018 -2487 0 0 0 0 0
223 1 3 31.1018 -2484 0 0 0 0 0
224 1 3 31.1018 -2481 0 0 0 0 0
225 1 3 31.1018 -2478 0 0 0 0 0
226 1 3 31.1018 -2475 0 0 0 0 0
227 1 3 31.1018 -2472 0 0 0 0 0
228 1 3 31.1018 -2469 0 0 0 0 0
229 1 3 31.1018 -2466 0 0 0 0 0
230 1 3 31.1018 -2463 0 0 0 0 0
231 1 3 31.1018 -2460 0 0 0 0 0
232 1 3 31.1018 -2457 0 0 0 0 0
233 1 3 31.1018 -2454 0 0 0 0 0
234 1 3 31.1018 -2451 0 0 0 0 0
235 1 3 31.1018 -2448 0 0 0 0 0
236 1 3 31.1018 -2445 0 0 0 0 0
237 1 3 31.1018 -2442 0 0 0 0 0
238 1 3 31.1018 -2439 0 0 0 0 0
239 1 3 31.1018 -2436 0 0 0 0 0
240 1 3 31.1018 -2433 0 0 0 0 0
241 1 3 31.1018 -2430 0 0 0 0 0
242 1 3 31.1018 -2427 0 0 0 0 0
243 1 3 31.1018 -2424 0 0 0 0 0
244 1 3 31.1018 -2421 0 0 0 0 0
245 1 3 31.1018 -2418 0 0 0 0 0
246 1 3 31.1018 -2415 0 0 0 0 0
247 1 3 31.1018 -2412 0 0 0 0 0
248 1 3 31.1018 -2409 0 0 0 0 0
249 1 3 31.1018 -2406 0 0 0 0 0
250 1 3 31.1018 -2403 0 0 0 0 0
251 1 3 31.1018 -2400 0 0 0 0 0
252 1 3 31.1018 -2397 0 0 0 0 0
253 1 3 31.1018 -2394 0 0 0 0 0
254 1 3 31.1018 -2391 0 0 0 0 0
255 1 3 31.1018 -2388 0 0 0 0 0
256 1 3 31.1018 -2385 0 0 0 0 0
257 1 3 31.1018 -2382 0 0 0 0 0
258 1 3 31.1018 -2379 0 0 0 0 0
259 1 3 31.1018 -2376 0 0 0 0 0
260 1 3 31.1018 -2373 0 0 0 0 0
261 1 3 31.1018 -2370 0 0 0 0 0
262 1 3 31.1018 -2367 0 0 0 0 0
263 1 3 31.1018 -2364 0 0 0 0 0
264 1 3 31.1018 -2361 0 0 0 0 0
265 1 3 31.1018 -2358 0 0 0 0 0
266 1 3 31.1018 -2355 0 0 0 0 0
267 1 3 31.1018 -2352 0 0 0 0 0
268 1 3 31.1018 -2349 0 0 0 0 0
269 1 3 31.1018 -2346 0 0 0 0 0
270 1 3 31.1018 -2343 0 0 0 0 0
271 1 3 31.1018 -2340 0 0 0 0 0
272 1 3 31.1018 -2337 0 0 0 0 0
273 1 3 31.1018 -2334 0 0 0 0 0
274 1 3 31.1018 -2331 0 0 0 0 0
275 1 3 31.1018 -2328 0 0 0 0 0
276 1 3 31.1018 -2325 0 0 0 0 0
277 1 3 31.1018 -2322 0 0 0 0 0
278 1 3 31.1018 -2319 0 0 0 0 0
279 1 3 31.1018 -2316 0 0 0 0 0
280 1 3 31.1018 -2313 0 0 0 0 0
281 1 3 31.1018 -2310 0 0 0 0 0
282 1 3 31.1018 -2307 0 0 0 0 0
283 1 3 31.1018 -2304 0 0 0 0 0
284 1 3 31.1018 -2301 0 0 0 0 0
285 1 3 31.1018 -2298 0 0 0 0 0
286 1 3 31.1018 -2295 0 0 0 0 0
287 1 3 31.1018 -2292 0 0 0 0 0
288 1 3 31.1018 -2289 0 0 0 0 0
289 1 3 31.1018 -2286 0 0 0 0 0
290 1 3 31.1018 -2283 0 0 0 0 0
291 1 3 31.1018 -2280 0 0 0 0 0
292 1 3 31.1018 -2277 0 0 0 0 0
293 1 3 31.1018 -2274 0 0 0 0 0
294 1 3 31.1018 -2271 0 0 0 0 0
295 1 3 31.1018 -2268 0 0 0 0 0
296 1 3 31.1018 -2265 0 0 0 0 0
297 1 3 31.1018 -2262 0 0 0 0 0
298 1 3 31.1018 -2259 0 0 0 0 0
299 1 3 31.1018 -2256 0 0 0 0 0
300 1 3 31.1018 -2253 0 0 0 0 0
301 1 3 31.1018 -2250 0 0 0 0 0
302 1 3 31.1018 -2247 0 0 0 0 0
303 1 3 31.1018 -2244 0 0 0 0 0
304 1 3 31.1018 -2241 0 0 0 0 0
305 1 3 31.1018 -2238 0 0 0 0 0
306 1 3 31.1018 -2235 0 0 0 0 0
307 1 3 31.1018 -2232 0 0 0 0 0
308 1 3 31.1018 -2229 0 0 0 0 0
309 1 3 31.1018 -2226 0 0 0 0 0
310 1 3 31.1018 -2223 0 0 0 0 0
311 1 3 31.1018 -2220 0 0 0 0 0
312 1 3 31.1018 -2217 0 0 0 0 0
313 1 3 31.1018 -2214 0 0 0 0 0
314 1 3 31.1018 -2211 0 0 0 0 0
315 1 3 31.1018 -2208 0 0 0 0 0
316 1 3 31.1018 -2205 0 0 0 0 0
317 1 3 31.1018 -2202 0 0 0 0 0
318 1 3 31.1018 -2199 0 0 0 0 0
319 1 3 31.1018 -2196 0 0 0 0 0
320 1 3 31.1018 -2193 0 0 0 0 0
321 1 3 31.1018 -2190 0 0 0 0 0
322 1 3 31.1018 -2187 0 0 0 0 0
323 1 3 31.1018 -2184 0 0 0 0 0
324 1 3 31.1018 -2181 0 0 0 0 0
325 1 3 31.1018 -2178 0 0 0 0 0
326 1 3 31.1018 -2175 0 0 0 0 0
327 1 3 31.1018 -2172 0 0 0 0 0
328 1 3 31.1018 -2169 0 0 0 0 0
329 1 3 31.1018 -2166 0 0 0 0 0
330 1 3 31.1018 -2163 0 0 0 0 0
331 1 3 31.1018 -2160 0 0 0 0 0
332 1 3 31.1018 -2157 0 0 0 0 0
333 1 3 31.1018 -2154 0 0 0 0 0
334 1 3 31.1018 -2151 0 0 0 0 0
335 1 3 31.1018 -2148 0 0 0 0 0
336 1 3 31.1018 -2145 0 0 0 0 0
337 1 3 31.1018 -2142 0 0 0 0 0
338 1 3 31.1018 -2139 0 0 0 0 0
339 1 3 31.1018 -2136 0 0 0 0 0
340 1 3 31.1018 -2133 0 0 0 0 0
341 1 3 31.1018 -2130 0 0 0 0 0
342 1 3 31.1018 -2127 0 0 0 0 0
343 1 3 31.1018 -2124 0 0 0 0 0
344 1 3 31.1018 -2121 0 0 0 0 0
345 1 3 31.1018 -2118 0 0 0 0 0
346 1 3 31.1018 -2115 0 0 0 0 0
347 1 3 31.1018 -2112 0 0 0 0 0
348 1 3 31.1018 -2109 0 0 0 0 0
349 1 3 31.1018 -2106 0 0 0 0 0
350 1 3 31.1018 -2103 0 0 0 0 0
351 1 3 31.1018 -2100 0 0 0 0 0
352 1 3 31.1018 -2097 0 0 0 0 0
353 1 3 31.1018 -2094 0 0 0 0 0
354 1 3 31.1018 -2091 0 0 0 0 0
355 1 3 31.1018 -2088 0 0 0 0 0
356 1 3 31.1018 -2085 0 0 0 0 0
357 1 3 31.1018 -2082 0 0 0 0 0
358 1 3 31.1018 -2079 0 0 0 0 0
359 1 3 31.1018 -2076 0 0 0 0 0
360 1 3 31.1018 -2073 0 0 0 0 0
361 1 3 31.1018 -2070 0 0 0 0 0
362 1 3 31.1018 -2067 0 0 0 0 0
363 1 3 31.1018 -2064 0 0 0 0 0
364 1 3 31.1018 -2061 0 0 0 0 0
365 1 3 31.1018 -2058 0 0 0 0 0
366 1 3 31.1018 -2055 0 0 0 0 0
367 1 3 31.1018 -2052 0 0 0 0 0
368 1 3 31.1018 -2049 0 0 0 0 0
369 1 3 31.1018 -2046 0 0 0 0 0
370 1 3 31.1018 -2043 0 0 0 0 0
371 1 3 31.1018 -2040 0 0 0 0 0
372 1 3 31.1018 -2037 0 0 0 0 0
373 1 3 31.1018 -2034 0 0 0 0 0
374 1 3 31.1018 -2031 0 0 0 0 0
375 1 3 31.1018 -2028 0 0 0 0 0
376 1 3 31.1018 -2025 0 0 0 0 0
377 1 3 31.1018 -2022 0 0 0 0 0
378 1 3 31.1018 -2019 0 0 0 0 0
379 1 3 31.1018 -2016 0 0 0 0 0
380 1 3 31.1018 -2013 0 0 0 0 0
381 1 3 31.1018 -2010 0 0 0 0 0
382 1 3 31.1018 -2007 0 0 0 0 0
383 1 3 31.1018 -2004 0 0 0 0 0
384 1 3 31.1018 -2001 0 0 0 0 0
385 1 3 31.1018 -1998 0 0 0 0 0
386 1 3 31.1018 -1995 0 0 0 0 0
387 1 3 31.1018 -1992 0 0 0 0 0
388 1 3 31.1018 -1989 0 0 0 0 0
389 1 3 31.1018 -1986 0 0 0 0 0
390 1 3 31.1018 -1983 0 0 0 0 0
391 1 3 31.1018 -1980 0 0 0 0 0
392 1 3 31.1018 -1977 0 0 0 0 0
393 1 3 31.1018 -1974 0 0 0 0 0
394 1 3 31.1018 -1971 0 0 0 0 0
395 1 3 31.1018 -1968 0 0 0 0 0
396 1 3 31.1018 -1965 0 0 0 0 0
397 1 3 31.1018 -1962 0 0 0 0 0
398 1 3 31.1018 -1959 0 0 0 0 0
399 1 3 31.1018 -1956 0 0 0 0 0
400 1 3 31.1018 -1953 0 0 0 0 0
401 1 3 31.1018 -1950 0 0 0 0 0
402 1 3 31.1018 -1947 0 0 0 0 0
403 1 3 31.1018 -1944 0 0 0 0 0
404 1 3 31.1018 -1941 0 0 0 0 0
405 1 3 31.1018 -1938 0 0 0 0 0
406 1 3 31.1018 -1935 0 0 0 0 0
407 1 3 31.1018 -1932 0 0 0 0 0
408 1 3 31.1018 -1929 0 0 0 0 0
409 1 3 31.1018 -1926 0 0 0 0 0
410 1 3 31.1018 -1923 0 0 0 0 0
411 1 3 31.1018 -1920 0 0 0 0 0
412 1 3 31.1018 -1917 0 0 0 0 0
413 1 3 31.1018 -1914 0 0 0 0 0
414 1 3 31.1018 -1911 0 0 0 0 0
415 1 3 31.1018 -1908 0 0 0 0 0
416 1 3 31.1018 -1905 0 0 0 0 0
417 1 3 31.1018 -1902 0 0 0 0 0
418 1 3 31.1018 -1899 0 0 0 0 0
419 1 3 31.1018 -1896 0 0 0 0 0
420 1 3 31.1018 -1893 0 0 0 0 0
421 1 3 31.1018 -1890 0 0 0 0 0
422 1 3 31.1018 -1887 0 0 0 0 0
423 1 3 31.1018 -1884 0 0 0 0 0
424 1 3 31.1018 -1881 0 0 0 0 0
425 1 3 31.1018 -1878 0 0 0 0 0
426 1 3 31.1018 -1875 0 0 0 0 0
427 1 3 31.1018 -1872 0 0 0 0 0
428 1 3 31.1018 -1869 0 0 0 0 0
429 1 3 31.1018 -1866 0 0 0 0 0
430 1 3 31.1018 -1863 0 0 0 0 0
431 1 3 31.1018 -1860 0 0 0 0 0
432 1 3 31.1018 -1857 0 0 0 0 0
433 1 3 31.1018 -1854 0 0 0 0 0
434 1 3 31.1018 -1851 0 0 0 0 0
435 1 3 31.1018 -1848 0 0 0 0 0
436 1 3 31.1018 -1845 0 0 0 0 0
437 1 3 31.1018 -1842 0 0 0 0 0
438 1 3 31.1018 -1839 0 0 0 0 0
439 1 3 31.1018 -1836 0 0 0 0 0
440 1 3 31.1018 -1833 0 0 0 0 0
441 1 3 31.1018 -1830 0 0 0 0 0
442 1 3 31.1018 -1827 0 0 0 0 0
443 1 3 31.1018 -1824 0 0 0 0 0
444 1 3 31.1018 -1821 0 0 0 0 0
445 1 3 31.1018 -1818 0 0 0 0 0
446 1 3 31.1018 -1815 0 0 0 0 0
447 1 3 31.1018 -1812 0 0 0 0 0
448 1 3 31.1018 -1809 0 0 0 0 0
449 1 3 31.1018 -1806 0 0 0 0 0
450 1 3 31.1018 -1803 0 0 0 0 0
451 1 3 31.1018 -1800 0 0 0 0 0
452 1 3 31.1018 -1797 0 0 0 0 0
453 1 3 31.1018 -1794 0 0 0 0 0
454 1 3 31.1018 -1791 0 0 0 0 0
455 1 3 31.1018 -1788 0 0 0 0 0
456 1 3 31.1018 -1785 0 0 0 0 0
457 1 3 31.1018 -1782 0 0 0 0 0
458 1 3 31.1018 -1779 0 0 0 0 0
459 1 3 31.1018 -1776 0 0 0 0 0
460 1 3 31.1018 -1773 0 0 0 0 0
461 1 3 31.1018 -1770 0 0 0 0 0
462 1 3 31.1018 -1767 0 0 0 0 0
463 1 3 31.1018 -1764 0 0 0 0 0
464 1 3 31.1018 -1761 0 0 0 0 0
465 1 3 31.1018 -1758 0 0 0 0 0
466 1 3 31.1018 -1755 0 0 0 0 0
467 1 3 31.1018 -1752 0 0 0 0 0
468 1 3 31.1018 -1749 0 0 0 0 0
469 1 3 31.1018 -1746 0 0 0 0 0
470 1 3 31.1018 -1743 0 0 0 0 0
471 1 3 31.1018 -1740 0 0 0 0 0
472 1 3 31.1018 -1737 0 0 0 0 0
473 1 3 31.1018 -1734 0 0 0 0 0
474 1 3 31.1018 -1731 0 0 0 0 0
475 1 3 31.1018 -1728 0 0 0 0 0
476 1 3 31.1018 -1725 0 0 0 0 0
477 1 3 31.1018 -1722 0 0 0 0 0
478 1 3 31.1018 -1719 0 0 0 0 0
479 1 3 31.1018 -1716 0 0 0 0 0
480 1 3 31.1018 -1713 0 0 0 0 0
481 1 3 31.1018 -1710 0 0 0 0 0
482 1 3 31.1018 -1707 0 0 0 0 0
483 1 3 31.1018 -1704 0 0 0 0 0
484 1 3 31.1018 -1701 0 0 0 0 0
485 1 3 31.1018 -1698 0 0 0 0 0
486 1 3 31.1018 -1695 0 0 0 0 0
487 1 3 31.1018 -1692 0 0 0 0 0
488 1 3 31.1018 -1689 0 0 0 0 0
489 1 3 31.1018 -1686 0 0 0 0 0
490 1 3 31.1018 -1683 0 0 0 0 0
491 1 3 31.1018 -1680 0 0 0 0 0
492 1 3 31.1018 -1677 0 0 0 0 0
493 1 3 31.1018 -1674 0 0 0 0 0
494 1 3 31.1018 -1671 0 0 0 0 0
495 1 3 31.1018 -1668 0 0 0 0 0
496 1 3 31.1018 -1665 0 0 0 0 0
497 1 3 31.1018 -1662 0 0 0 0 0
498 1 3 31.1018 -1659 0 0 0 0 0
499 1 3 31.1018 -1656 0 0 0 0 0
500 1 3 31.1018 -1653 0 0 0 0 0
501 1 3 31.1018 -1650 0 0 0 0 0
502 1 3 31.1018 -1647 0 0 0 0 0
503 1 3 31.1018 -1644 0 0 0 0 0
504 1 3 31.1018 -1641 0 0 0 0 0
505 1 3 31.1018 -1638 0 0 0 0 0
506 1 3 31.1018 -1635 0 0 0 0 0
507 1 3 31.1018 -1632 0 0 0 0 0
508 1 3 31.1018 -1629 0 0 0 0 0
509 1 3 31.1018 -1626 0 0 0 0 0
510 1 3 31.1018 -1623 0 0 0 0 0
511 1 3 31.1018 -1620 0 0 0 0 0
512 1 3 31.1018 -1617 0 0 0 0 0
513 1 3 31.1018 -1614 0 0 0 0 0
514 1 3 31.1018 -1611 0 0 0 0 0
515 1 3 31.1018 -1608 0 0 0 0 0
516 1 3 31.1018 -1605 0 0 0 0 0
517 1 3 31.1018 -1602 0 0 0 0 0
518 1 3 31.1018 -1599 0 0 0 0 0
519 1 3 31.1018 -1596 0 0 0 0 0
520 1 3 31.1018 -1593 0 0 0 0 0
521 1 3 31.1018 -1590 0 0 0 0 0
522 1 3 31.1018 -1587 0 0 0 0 0
523 1 3 31.1018 -1584 0 0 0 0 0
524 1 3 31.1018 -1581 0 0 0 0 0
525 1 3 31.1018 -1578 0 0 0 0 0
2101 2 3 31.1018 -2104.50010136423361 4.13333e-21 2.59757461305477522 0.0716812 0 -0.00193094
2102 2 3 31.1018 -2101.50010136423407 4.12743e-21 2.59757461304286075 0.0715775 0 -0.00192913
2103 2 3 31.1018 -2098.50010136423452 4.12152e-21 2.59757461303094628 0.0714739 0 -0.00192732
2104 2 3 31.1018 -2095.50010136423543 4.11562e-21 2.59757461301903181 0.0713706 0 -0.00192547
2105 2 3 31.1018 -2092.50010136423589 4.10971e-21 2.59757461300711734 0.071267 0 -0.00192366
2106 2 3 31.1018 -2089.50010136423634 4.10381e-21 2.59757461299520287 0.0711633 0 -0.00192185
2107 2 3 31.1018 -2086.5001013642368 4.0979e-21 2.5975746129832884 0.0710597 0 -0.00192004
2108 2 3 31.1018 -2083.50010136423725 4.092e-21 2.59757461297137393 0.070956 0 -0.00191823
2109 2 3 31.1018 -2080.50010136423771 4.08609e-21 2.59757461295945946 0.0708524 0 -0.00191642
2110 2 3 31.1018 -2077.50010136423816 4.08019e-21 2.59757461294754499 0.0707487 0 -0.00191461
2111 2 3 31.1018 -2074.50010136423862 4.07428e-21 2.59757461293563052 0.070645 0 -0.0019128
2112 2 3 31.1018 -2071.50010136423907 4.06838e-21 2.59757461292371605 0.0705414 0 -0.00191099
2113 2 3 31.1018 -2068.50010136423953 4.06247e-21 2.59757461291180158 0.0704377 0 -0.00190918
2114 2 3 31.1018 -2065.50010136423998 4.05657e-21 2.59757461289988711 0.0703341 0 -0.00190736
2115 2 3 31.1018 -2062.50010136424044 4.05066e-21 2.59757461288797264 0.0702304 0 -0.00190555
2116 2 3 31.1018 -2059.50010136424089 4.04476e-21 2.59757461287605818 0.0701268 0 -0.00190374
2117 2 3 31.1018 -2056.5001013642418 4.03886e-21 2.59757461286414371 0.0700236 0 -0.00190189
2118 2 3 31.1018 -2053.50010136424225 4.03295e-21 2.59757461285222924 0.0699199 0 -0.00190008
2119 2 3 31.1018 -2050.50010136424271 4.02705e-21 2.59757461284031477 0.0698162 0 -0.00189827
2120 2 3 31.1018 -2047.50010136424316 4.02114e-21 2.5975746128284003 0.0697126 0 -0.00189646
2121 2 3 31.1018 -2044.50010136424362 4.01524e-21 2.59757461281648583 0.0696089 0 -0.00189465
2122 2 3 31.1018 -2041.50010136424407 4.00933e-21 2.59757461280457136 0.0695053 0 -0.00189284
2123 2 3 31.1018 -2038.50010136424453 4.00343e-21 2.59757461279265689 0.0694016 0 -0.00189103
2124 2 3 31.1018 -2035.50010136424498 3.99752e-21 2.59757461278074242 0.069298 0 -0.00188922
2125 2 3 31.1018 -2032.50010136424544 3.99162e-21 2.59757461276882795 0.0691943 0 -0.0018874
2126 2 3 31.1018 -2029.50010136424612 3.98571e-21 2.59757461275691348 0.0690909 0 -0.00188557
2127 2 3 31.1018 -2026.50010136424658 3.97981e-21 2.59757461274499901 0.0689872 0 -0.00188376
2128 2 3 31.1018 -2023.50010136424703 3.9739e-21 2.59757461273308454 0.0688835 0 -0.00188195
2129 2 3 31.1018 -2020.50010136424748 3.968e-21 2.59757461272117007 0.0687799 0 -0.00188014
2130 2 3 31.1018 -2017.50010136424794 3.96209e-21 2.5975746127092556 0.0686762 0 -0.00187833
2131 2 3 31.1018 -2014.50010136424839 3.95619e-21 2.59757461269734113 0.0685726 0 -0.00187652
2132 2 3 31.1018 -2011.50010136424885 3.95028e-21 2.59757461268542666 0.0684689 0 -0.00187471
2133 2 3 31.1018 -2008.50010136424953 3.94438e-21 2.5975746126735122 0.0683655 0 -0.00187288
2134 2 3 31.1018 -2005.50010136424999 3.93847e-21 2.59757461266159773 0.0682618 0 -0.00187107
2135 2 3 31.1018 -2002.50010136425044 3.93257e-21 2.59757461264968326 0.0681582 0 -0.00186926
2136 2 3 31.1018 -1999.5001013642509 3.92666e-21 2.59757461263776879 0.0680545 0 -0.00186745
2137 2 3 31.1018 -1996.50010136425135 3.92076e-21 2.59757461262585432 0.0679509 0 -0.00186564
2138 2 3 31.1018 -1993.5001013642518 3.91486e-21 2.59757461261393985 0.0678472 0 -0.00186382
2139 2 3 31.1018 -1990.50010136425249 3.90895e-21 2.59757461260202538 0.0677438 0 -0.00186199
2140 2 3 31.1018 -1987.50010136425294 3.90305e-21 2.59757461259011091 0.0676401 0 -0.00186018
2141 2 3 31.1018 -1984.5001013642534 3.89714e-21 2.59757461257819644 0.0675365 0 -0.00185837
2142 2 3 31.1018 -1981.50010136425385 3.89124e-21 2.59757461256628197 0.0674328 0 -0.00185656
2143 2 3 31.1018 -1978.50010136425431 3.88533e-21 2.5975746125543675 0.0673291 0 -0.00185475
2144 2 3 31.1018 -1975.50010136425476 3.87943e-21 2.59757461254245303 0.0672255 0 -0.00185294
2145 2 3 31.1018 -1972.50010136425544 3.87352e-21 2.59757461253053856 0.067122 0 -0.00185111
2146 2 3 31.1018 -1969.5001013642559 3.86762e-21 2.59757461251862409 0.0670184 0 -0.0018493
2147 2 3 31.1018 -1966.50010136425635 3.86171e-21 2.59757461250670962 0.0669147 0 -0.00184749
2148 2 3 31.1018 -1963.50010136425681 3.85581e-21 2.59757461249479515 0.0668111 0 -0.00184568
2149 2 3 31.1018 -1960.50010136425726 3.8499e-21 2.59757461248288068 0.0667074 0 -0.00184386
2150 2 3 31.1018 -1957.50010136425772 3.844e-21 2.59757461247096622 0.0666038 0 -0.00184206
2151 2 3 31.1018 -1954.50010136425817 3.83809e-21 2.59757461245905175 0.0665001 0 -0.00184024
2152 2 3 31.1018 -1951.50010136425885 3.83219e-21 2.59757461244713728 0.0663967 0 -0.00183841
2153 2 3 31.1018 -1948.50010136425931 3.82628e-21 2.59757461243522281 0.066293 0 -0.0018366
2154 2 3 31.1018 -1945.50010136425976 3.82038e-21 2.59757461242330834 0.0661894 0 -0.00183479
2155 2 3 31.1018 -1942.50010136426022 3.81447e-21 2.59757461241139387 0.0660857 0 -0.00183298
2156 2 3 31.1018 -1939.50010136426067 3.80857e-21 2.5975746123994794 0.065982 0 -0.00183117
2157 2 3 31.1018 -1936.50010136426113 3.80266e-21 2.59757461238756493 0.0658784 0 -0.00182936
2158 2 3 31.1018 -1933.50010136426181 3.79676e-21 2.59757461237565046 0.065775 0 -0.00182753
2159 2 3 31.1018 -1930.50010136426226 3.79086e-21 2.59757461236373599 0.0656713 0 -0.00182572
2160 2 3 31.1018 -1927.50010136426272 3.78495e-21 2.59757461235182152 0.0655676 0 -0.00182391
2161 2 3 31.1018 -1924.50010136426317 3.77905e-21 2.59757461233990705 0.065464 0 -0.00182209
2162 2 3 31.1018 -1921.50010136426363 3.77314e-21 2.59757461232799258 0.0653603 0 -0.00182028
2163 2 3 31.1018 -1918.50010136426408 3.76724e-21 2.59757461231607811 0.0652567 0 -0.00181847
2164 2 3 31.1018 -1915.50010136426454 3.76133e-21 2.59757461230416364 0.065153 0 -0.00181666
2165 2 3 31.1018 -1912.50010136426522 3.75543e-21 2.59757461229224917 0.0650496 0 -0.00181483
2166 2 3 31.1018 -1909.50010136426567 3.74952e-21 2.5975746122803347 0.0649459 0 -0.00181302
2167 2 3 31.1018 -1906.50010136426613 3.74362e-21 2.59757461226842024 0.0648423 0 -0.00181121
2168 2 3 31.1018 -1903.50010136426658 3.73771e-21 2.59757461225650577 0.0647386 0 -0.0018094
2169 2 3 31.1018 -1900.50010136426704 3.73181e-21 2.5975746122445913 0.0646349 0 -0.00180759
2170 2 3 31.1018 -1897.50010136426749 3.7259e-21 2.59757461223267683 0.0645313 0 -0.00180578
2171 2 3 31.1018 -1894.50010136426818 3.72e-21 2.59757461222076236 0.0644279 0 -0.00180395
2172 2 3 31.1018 -1891.50010136426863 3.71409e-21 2.59757461220884789 0.0643242 0 -0.00180214
2173 2 3 31.1018 -1888.50010136426909 3.70819e-21 2.59757461219693342 0.0642205 0 -0.00180033
2174 2 3 31.1018 -1885.50010136426954 3.70228e-21 2.59757461218501895 0.0641169 0 -0.00179852
2175 2 3 31.1018 -1882.50010136426999 3.69638e-21 2.59757461217310448 0.0640132 0 -0.0017967
2176 2 3 31.1018 -1879.50010136427045 3.69047e-21 2.59757461216119001 0.0639096 0 -0.00179489
2177 2 3 31.1018 -1876.50010136427113 3.68457e-21 2.59757461214927554 0.0638061 0 -0.00179306
2178 2 3 31.1018 -1873.50010136427159 3.67866e-21 2.59757461213736107 0.0637025 0 -0.00179125
2179 2 3 31.1018 -1870.50010136427204 3.67276e-21 2.5975746121254466 0.0635988 0 -0.00178944
2180 2 3 31.1018 -1867.5001013642725 3.66686e-21 2.59757461211353213 0.0634952 0 -0.00178763
2181 2 3 31.1018 -1864.50010136427295 3.66095e-21 2.59757461210161766 0.0633915 0 -0.00178582
2182 2 3 31.1018 -1861.50010136427341 3.65505e-21 2.59757461208970319 0.0632878 0 -0.00178401
2183 2 3 31.1018 -1858.50010136427386 3.64914e-21 2.59757461207778872 0.0631842 0 -0.0017822
2184 2 3 31.1018 -1855.50010136427454 3.64324e-21 2.59757461206587426 0.0630808 0 -0.00178037
2185 2 3 31.1018 -1852.500101364275 3.63733e-21 2.59757461205395979 0.0629771 0 -0.00177856
2186 2 3 31.1018 -1849.50010136427545 3.63143e-21 2.59757461204204532 0.0628734 0 -0.00177675
2187 2 3 31.1018 -1846.50010136427591 3.62552e-21 2.59757461203013085 0.0627698 0 -0.00177493
2188 2 3 31.1018 -1843.50010136427636 3.61962e-21 2.59757461201821638 0.0626661 0 -0.00177312
2189 2 3 31.1018 -1840.50010136427682 3.61371e-21 2.59757461200630191 0.0625625 0 -0.00177131
2190 2 3 31.1018 -1837.5001013642775 3.60781e-21 2.59757461199438744 0.062459 0 -0.00176948
2191 2 3 31.1018 -1834.50010136427795 3.6019e-21 2.59757461198247297 0.0623554 0 -0.00176767
2192 2 3 31.1018 -1831.50010136427841 3.596e-21 2.5975746119705585 0.0622517 0 -0.00176586
2193 2 3 31.1018 -1828.50010136427886 3.59009e-21 2.59757461195864403 0.0621481 0 -0.00176405
2194 2 3 31.1018 -1825.50010136427932 3.58419e-21 2.59757461194672956 0.0620444 0 -0.00176224
2195 2 3 31.1018 -1822.50010136427977 3.57828e-21 2.59757461193481509 0.0619408 0 -0.00176043
2196 2 3 31.1018 -1819.50010136428023 3.57238e-21 2.59757461192290062 0.0618371 0 -0.00175862
2197 2 3 31.1018 -1816.50010136428091 3.56647e-21 2.59757461191098615 0.0617337 0 -0.00175679
2198 2 3 31.1018 -1813.50010136428136 3.56057e-21 2.59757461189907168 0.06163 0 -0.00175498
2199 2 3 31.1018 -1810.50010136428182 3.55466e-21 2.59757461188715721 0.0615263 0 -0.00175316
2200 2 3 31.1018 -1807.50010136428227 3.54876e-21 2.59757461187524274 0.0614227 0 -0.00175135
2201 2 3 31.1018 -1804.50010136428273 3.54286e-21 2.59757461186332828 0.061319 0 -0.00174954
2202 2 3 31.1018 -1801.50010136428318 3.53695e-21 2.59757461185141381 0.0612154 0 -0.00174773
2203 2 3 31.1018 -1798.50010136428386 3.53105e-21 2.59757461183949934 0.0611119 0 -0.0017459
2204 2 3 31.1018 -1795.50010136428432 3.52514e-21 2.59757461182758487 0.0610083 0 -0.00174409
2205 2 3 31.1018 -1792.50010136428477 3.51924e-21 2.5975746118156704 0.0609046 0 -0.00174228
2206 2 3 31.1018 -1789.50010136428523 3.51333e-21 2.59757461180375593 0.060801 0 -0.00174047
2207 2 3 31.1018 -1786.50010136428568 3.50743e-21 2.59757461179184146 0.0606973 0 -0.00173866
2208 2 3 31.1018 -1783.50010136428614 3.50152e-21 2.59757461177992699 0.0605937 0 -0.00173685
2209 2 3 31.1018 -1780.50010136428682 3.49562e-21 2.59757461176801252 0.0604902 0 -0.00173502
2210 2 3 31.1018 -1777.50010136428727 3.48971e-21 2.59757461175609805 0.0603866 0 -0.00173321
2211 2 3 31.1018 -1774.50010136428773 3.48381e-21 2.59757461174418358 0.0602829 0 -0.0017314
2212 2 3 31.1018 -1771.50010136428818 3.4779e-21 2.59757461173226911 0.0601792 0 -0.00172959
2213 2 3 31.1018 -1768.50010136428864 3.472e-21 2.59757461172035464 0.0600756 0 -0.00172777
2214 2 3 31.1018 -1765.50010136428909 3.46609e-21 2.59757461170844017 0.0599719 0 -0.00172596
2215 2 3 31.1018 -1762.50010136428955 3.46019e-21 2.5975746116965257 0.0598683 0 -0.00172415
2216 2 3 31.1018 -1759.50010136429023 3.45428e-21 2.59757461168461123 0.0597648 0 -0.00172232
2217 2 3 31.1018 -1756.50010136429069 3.44838e-21 2.59757461167269676 0.0596612 0 -0.00172051
2218 2 3 31.1018 -1753.50010136429114 3.44247e-21 2.5975746116607823 0.0595575 0 -0.0017187
2219 2 3 31.1018 -1750.5001013642916 3.43657e-21 2.59757461164886783 0.0594539 0 -0.00171689
2220 2 3 31.1018 -1747.50010136429205 3.43066e-21 2.59757461163695336 0.0593502 0 -0.00171508
2221 2 3 31.1018 -1744.5001013642925 3.42476e-21 2.59757461162503889 0.0592466 0 -0.00171327
2222 2 3 31.1018 -1741.50010136429319 3.41886e-21 2.59757461161312442 0.0591431 0 -0.00171144
2223 2 3 31.1018 -1738.50010136429364 3.41295e-21 2.59757461160120995 0.0590395 0 -0.00170963
2224 2 3 31.1018 -1735.5001013642941 3.40705e-21 2.59757461158929548 0.0589358 0 -0.00170782
2225 2 3 31.1018 -1732.50010136429455 3.40114e-21 2.59757461157738101 0.0588322 0 -0.00170601
2226 2 3 31.1018 -1729.50010136429501 3.39524e-21 2.59757461156546654 0.0587285 0 -0.0017042
2227 2 3 31.1018 -1726.50010136429546 3.38933e-21 2.59757461155355207 0.0586248 0 -0.00170238
2228 2 3 31.1018 -1723.50010136429592 3.38343e-21 2.5975746115416376 0.0585212 0 -0.00170057
2229 2 3 31.1018 -1720.5001013642966 3.37752e-21 2.59757461152972313 0.0584177 0 -0.00169874
2230 2 3 31.1018 -1717.50010136429705 3.37162e-21 2.59757461151780866 0.0583141 0 -0.00169693
2231 2 3 31.1018 -1714.50010136429751 3.36571e-21 2.59757461150589419 0.0582104 0 -0.00169512
2232 2 3 31.1018 -1711.50010136429796 3.35981e-21 2.59757461149397972 0.0581068 0 -0.00169331
2233 2 3 31.1018 -1708.50010136429842 3.3539e-21 2.59757461148206525 0.0580031 0 -0.0016915
2234 2 3 31.1018 -1705.50010136429887 3.348e-21 2.59757461147015078 0.0578995 0 -0.00168969
2235 2 3 31.1018 -1702.50010136429955 3.34209e-21 2.59757461145823632 0.057796 0 -0.00168786
2236 2 3 31.1018 -1699.50010136430001 3.33619e-21 2.59757461144632185 0.0576924 0 -0.00168605
2237 2 3 31.1018 -1696.50010136430046 3.33028e-21 2.59757461143440738 0.0575887 0 -0.00168424
2238 2 3 31.1018 -1693.50010136430092 3.32438e-21 2.59757461142249291 0.0574851 0 -0.00168243
2239 2 3 31.1018 -1690.50010136430137 3.31847e-21 2.59757461141057844 0.0573814 0 -0.00168062