ITEM: TIMESTEP
4600000
ITEM: NUMBER OF ATOMS
1251
ITEM: BOX BOUNDS pp pp pp
-1.1250000000000000e+03 1.1250000000000000e+03
-1.0000000000000000e+02 1.0000000000000000e+02
-1.0000000000000000e+02 1.0000000000000000e+02
ITEM: ATOMS id type diameter mass xu yu zu fx fy fz
1 1 3 31.1018 -1125 0 0 0 0 0
2 1 3 31.1018 -1122 0 0 0 0 0
3 1 3 31.1018 -1119 0 0 0 0 0
4 1 3 31.1018 -1116 0 0 0 0 0
5 1 3 31.1018 -1113 0 0 0 0 0
6 1 3 31.1018 -1110 0 0 0 0 0
7 1 3 31.1018 -1107 0 0 0 0 0
8 1 3 31.1018 -1104 0 0 0 0 0
9 1 3 31.1018 -1101 0 0 0 0 0
10 1 3 31.1018 -1098 0 0 0 0 0
11 1 3 31.1018 -1095 0 0 0 0 0
12 1 3 31.1018 -1092 0 0 0 0 0
13 1 3 31.1018 -1089 0 0 0 0 0
14 1 3 31.1018 -1086 0 0 0 0 0
15 1 3 31.1018 -1083 0 0 0 0 0
16 1 3 31.1018 -1080 0 0 0 0 0
17 1 3 31.1018 -1077 0 0 0 0 0
18 1 3 31.1018 -1074 0 0 0 0 0
19 1 3 31.1018 -1071 0 0 0 0 0
20 1 3 31.1018 -1068 0 0 0 0 0
21 1 3 31.1018 -1065 0 0 0 0 0
22 1 3 31.1018 -1062 0 0 0 0 0
23 1 3 31.1018 -1059 0 0 0 0 0
24 1 3 31.1018 -1056 0 0 0 0 0
25 1 3 31.1018 -1053 0 0 0 0 0
26 1 3 31.1018 -1050 0 0 0 0 0
27 1 3 31.1018 -1047 0 0 0 0 0
28 1 3 31.1018 -1044 0 0 0 0 0
29 1 3 31.1018 -1041 0 0 0 0 0
30 1 3 31.1018 -1038 0 0 0 0 0
31 1 3 31.1018 -1035 0 0 0 0 0
32 1 3 31.1018 -1032 0 0 0 0 0
33 1 3 31.1018 -1029 0 0 0 0 0
34 1 3 31.1018 -1026 0 0 0 0 0
35 1 3 31.1018 -1023 0 0 0 0 0
36 1 3 31.1018 -1020 0 0 0 0 0
37 1 3 31.1018 -1017 0 0 0 0 0
38 1 3 31.1018 -1014 0 0 0 0 0
39 1 3 31.1018 -1011 0 0 0 0 0
40 1 3 31.1018 -1008 0 0 0 0 0
41 1 3 31.1018 -1005 0 0 0 0 0
42 1 3 31.1018 -1002 0 0 0 0 0
43 1 3 31.1018 -999 0 0 0 0 0
44 1 3 31.1018 -996 0 0 0 0 0
45 1 3 31.1018 -993 0 0 0 0 0
46 1 3 31.1018 -990 0 0 0 0 0
47 1 3 31.1018 -987 0 0 0 0 0
48 1 3 31.1018 -984 0 0 0 0 0
49 1 3 31.1018 -981 0 0 0 0 0
50 1 3 31.1018 -978 0 0 0 0 0
51 1 3 31.1018 -975 0 0 0 0 0
52 1 3 31.1018 -972 0 0 0 0 0
53 1 3 31.1018 -969 0 0 0 0 0
54 1 3 31.1018 -966 0 0 0 0 0
55 1 3 31.1018 -963 0 0 0 0 0
56 1 3 31.1018 -960 0 0 0 0 0
57 1 3 31.1018 -957 0 0 0 0 0
58 1 3 31.1018 -954 0 0 0 0 0
59 1 3 31.1018 -951 0 0 0 0 0
60 1 3 31.1018 -948 0 0 0 0 0
61 1 3 31.1018 -945 0 0 0 0 0
62 1 3 31.1018 -942 0 0 0 0 0
63 1 3 31.1018 -939 0 0 0 0 0
64 1 3 31.1018 -936 0 0 0 0 0
65 1 3 31.1018 -933 0 0 0 0 0
66 1 3 31.1018 -930 0 0 0 0 0
67 1 3 31.1018 -927 0 0 0 0 0
68 1 3 31.1018 -924 0 0 0 0 0
69 1 3 31.1018 -921 0 0 0 0 0
70 1 3 31.1018 -918 0 0 0 0 0
71 1 3 31.1018 -915 0 0 0 0 0
72 1 3 31.1018 -912 0 0 0 0 0
73 1 3 31.1018 -909 0 0 0 0 0
74 1 3 31.1018 -906 0 0 0 0 0
75 1 3 31.1018 -903 0 0 0 0 0
76 1 3 31.1018 -900 0 0 0 0 0
77 1 3 31.1018 -897 0 0 0 0 0
78 1 3 31.1018 -894 0 0 0 0 0
79 1 3 31.1018 -891 0 0 0 0 0
80 1 3 31.1018 -888 0 0 0 0 0
81 1 3 31.1018 -885 0 0 0 0 0
82 1 3 31.1018 -882 0 0 0 0 0
83 1 3 31.1018 -879 0 0 0 0 0
84 1 3 31.1018 -876 0 0 0 0 0
85 1 3 31.1018 -873 0 0 0 0 0
86 1 3 31.1018 -870 0 0 0 0 0
87 1 3 31.1018 -867 0 0 0 0 0
88 1 3 31.1018 -864 0 0 0 0 0
89 1 3 31.1018 -861 0 0 0 0 0
90 1 3 31.1018 -858 0 0 0 0 0
91 1 3 31.1018 -855 0 0 0 0 0
92 1 3 31.1018 -852 0 0 0 0 0
93 1 3 31.1018 -849 0 0 0 0 0
94 1 3 31.1018 -846 0 0 0 0 0
95 1 3 31.1018 -843 0 0 0 0 0
96 1 3 31.1018 -840 0 0 0 0 0
97 1 3 31.1018 -837 0 0 0 0 0
98 1 3 31.1018 -834 0 0 0 0 0
99 1 3 31.1018 -831 0 0 0 0 0
100 1 3 31.1018 -828 0 0 0 0 0
101 1 3 31.1018 -825 0 0 0 0 0
102 1 3 31.1018 -822 0 0 0 0 0
103 1 3 31.1018 -819 0 0 0 0 0
104 1 3 31.1018 -816 0 0 0 0 0
105 1 3 31.1018 -813 0 0 0 0 0
106 1 3 31.1018 -810 0 0 0 0 0
107 1 3 31.1018 -807 0 0 0 0 0
108 1 3 31.1018 -804 0 0 0 0 0
109 1 3 31.1018 -801 0 0 0 0 0
110 1 3 31.1018 -798 0 0 0 0 0
111 1 3 31.1018 -795 0 0 0 0 0
112 1 3 31.1018 -792 0 0 0 0 0
113 1 3 31.1018 -789 0 0 0 0 0
114 1 3 31.1018 -786 0 0 0 0 0
115 1 3 31.1018 -783 0 0 0 0 0
116 1 3 31.1018 -780 0 0 0 0 0
117 1 3 31.1018 -777 0 0 0 0 0
118 1 3 31.1018 -774 0 0 0 0 0
119 1 3 31.1018 -771 0 0 0 0 0
120 1 3 31.1018 -768 0 0 0 0 0
121 1 3 31.1018 -765 0 0 0 0 0
122 1 3 31.1018 -762 0 0 0 0 0
123 1 3 31.1018 -759 0 0 0 0 0
124 1 3 31.1018 -756 0 0 0 0 0
125 1 3 31.1018 -753 0 0 0 0 0
126 1 3 31.1018 -750 0 0 0 0 0
127 1 3 31.1018 -747 0 0 0 0 0
128 1 3 31.1018 -744 0 0 0 0 0
129 1 3 31.1018 -741 0 0 0 0 0
130 1 3 31.1018 -738 0 0 0 0 0
131 1 3 31.1018 -735 0 0 0 0 0
132 1 3 31.1018 -732 0 0 0 0 0
133 1 3 31.1018 -729 0 0 0 0 0
134 1 3 31.1018 -726 0 0 0 0 0
135 1 3 31.1018 -723 0 0 0 0 0
136 1 3 31.1018 -720 0 0 0 0 0
137 1 3 31.1018 -717 0 0 0 0 0
138 1 3 31.1018 -714 0 0 0 0 0
139 1 3 31.1018 -711 0 0 0 0 0
140 1 3 31.1018 -708 0 0 0 0 0
141 1 3 31.1018 -705 0 0 0 0 0
142 1 3 31.1018 -702 0 0 0 0 0
143 1 3 31.1018 -699 0 0 0 0 0
144 1 3 31.1018 -696 0 0 0 0 0
145 1 3 31.1018 -693 0 0 0 0 0
146 1 3 31.1018 -690 0 0 0 0 0
147 1 3 31.1018 -687 0 0 0 0 0
148 1 3 31.1018 -684 0 0 0 0 0
149 1 3 31.1018 -681 0 0 0 0 0
150 1 3 31.1018 -678 0 0 0 0 0
151 1 3 31.1018 -675 0 0 0 0 0
152 1 3 31.1018 -672 0 0 0 0 0
153 1 3 31.1018 -669 0 0 0 0 0
154 1 3 31.1018 -666 0 0 0 0 0
155 1 3 31.1018 -663 0 0 0 0 0
156 1 3 31.1018 -660 0 0 0 0 0
157 1 3 31.1018 -657 0 0 0 0 0
158 1 3 31.1018 -654 0 0 0 0 0
159 1 3 31.1018 -651 0 0 0 0 0
160 1 3 31.1018 -648 0 0 0 0 0
161 1 3 31.1018 -645 0 0 0 0 0
162 1 3 31.1018 -642 0 0 0 0 0
163 1 3 31.1018 -639 0 0 0 0 0
164 1 3 31.1018 -636 0 0 0 0 0
165 1 3 31.1018 -633 0 0 0 0 0
166 1 3 31.1018 -630 0 0 0 0 0
167 1 3 31.1018 -627 0 0 0 0 0
168 1 3 31.1018 -624 0 0 0 0 0
169 1 3 31.1018 -621 0 0 0 0 0
170 1 3 31.1018 -618 0 0 0 0 0
171 1 3 31.1018 -615 0 0 0 0 0
172 1 3 31.1018 -612 0 0 0 0 0
173 1 3 31.1018 -609 0 0 0 0 0
174 1 3 31.1018 -606 0 0 0 0 0
175 1 3 31.1018 -603 0 0 0 0 0
176 1 3 31.1018 -600 0 0 0 0 0
177 1 3 31.1018 -597 0 0 0 0 0
178 1 3 31.1018 -594 0 0 0 0 0
179 1 3 31.1018 -591 0 0 0 0 0
180 1 3 31.1018 -588 0 0 0 0 0
181 1 3 31.1018 -585 0 0 0 0 0
182 1 3 31.1018 -582 0 0 0 0 0
183 1 3 31.1018 -579 0 0 0 0 0
184 1 3 31.1018 -576 0 0 0 0 0
185 1 3 31.1018 -573 0 0 0 0 0
186 1 3 31.1018 -570 0 0 0 0 0
187 1 3 31.1018 -567 0 0 0 0 0
188 1 3 31.1018 -564 0 0 0 0 0
751 2 3 31.1018 -754.500101365328419 -4.16333e-14 2.59757462865294952 0.203237 0 -0.0044562
752 2 3 31.1018 -751.500101365328305 -4.14667e-14 2.59757462855819465 0.202419 0 -0.0044357
753 2 3 31.1018 -748.500101365328192 -4.13002e-14 2.59757462846343934 0.201601 0 -0.0044152
754 2 3 31.1018 -745.500101365327964 -4.11337e-14 2.59757462836868402 0.200783 0 -0.00439472
755 2 3 31.1018 -742.500101365327851 -4.09671e-14 2.59757462827392871 0.199966 0 -0.00437422
756 2 3 31.1018 -739.500101365327737 -4.08006e-14 2.59757462817917384 0.199148 0 -0.00435373
757 2 3 31.1018 -736.500101365327623 -4.06341e-14 2.59757462808441852 0.19833 0 -0.00433323
758 2 3 31.1018 -733.500101365327396 -4.04675e-14 2.59757462798966321 0.197512 0 -0.00431275
759 2 3 31.1018 -730.500101365327282 -4.0301e-14 2.59757462789490789 0.196695 0 -0.00429225
760 2 3 31.1018 -727.500101365327168 -4.01345e-14 2.59757462780015302 0.195877 0 -0.00427176
761 2 3 31.1018 -724.500101365327055 -3.99679e-14 2.59757462770539771 0.195059 0 -0.00425126
762 2 3 31.1018 -721.500101365326827 -3.98014e-14 2.59757462761064239 0.194241 0 -0.00423078
763 2 3 31.1018 -718.500101365326714 -3.96349e-14 2.59757462751588708 0.193424 0 -0.00421028
764 2 3 31.1018 -715.5001013653266 -3.94683e-14 2.59757462742113221 0.192606 0 -0.00418979
765 2 3 31.1018 -712.500101365326486 -3.93018e-14 2.59757462732637689 0.191788 0 -0.00416929
766 2 3 31.1018 -709.500101365326259 -3.91353e-14 2.59757462723162158 0.19097 0 -0.00414881
767 2 3 31.1018 -706.500101365326145 -3.89687e-14 2.59757462713686627 0.190153 0 -0.00412831
768 2 3 31.1018 -703.500101365326032 -3.88022e-14 2.59757462704211139 0.189335 0 -0.00410782
769 2 3 31.1018 -700.500101365325918 -3.86357e-14 2.59757462694735608 0.188517 0 -0.00408732
770 2 3 31.1018 -697.50010136532569 -3.84691e-14 2.59757462685260077 0.187699 0 -0.00406684
771 2 3 31.1018 -694.500101365325577 -3.83026e-14 2.59757462675784545 0.186882 0 -0.00404634
772 2 3 31.1018 -691.500101365325463 -3.81361e-14 2.59757462666309058 0.186064 0 -0.00402585
773 2 3 31.1018 -688.500101365325349 -3.79695e-14 2.59757462656833527 0.185246 0 -0.00400535
774 2 3 31.1018 -685.500101365325122 -3.7803e-14 2.59757462647357995 0.184428 0 -0.00398487
775 2 3 31.1018 -682.500101365325008 -3.76365e-14 2.59757462637882464 0.183611 0 -0.00396437
776 2 3 31.1018 -679.500101365324895 -3.74699e-14 2.59757462628406977 0.182793 0 -0.00394388
777 2 3 31.1018 -676.500101365324781 -3.73034e-14 2.59757462618931445 0.181975 0 -0.00392339
778 2 3 31.1018 -673.500101365324554 -3.71369e-14 2.59757462609455914 0.181157 0 -0.0039029
779 2 3 31.1018 -670.50010136532444 -3.69703e-14 2.59757462599980382 0.18034 0 -0.00388241
780 2 3 31.1018 -667.500101365324326 -3.68038e-14 2.59757462590504895 0.179522 0 -0.00386191
781 2 3 31.1018 -664.500101365324213 -3.66373e-14 2.59757462581029364 0.178704 0 -0.00384142
782 2 3 31.1018 -661.500101365323985 -3.64707e-14 2.59757462571553832 0.177886 0 -0.00382093
783 2 3 31.1018 -658.500101365323872 -3.63042e-14 2.59757462562078301 0.177069 0 -0.00380044
784 2 3 31.1018 -655.500101365323758 -3.61377e-14 2.59757462552602814 0.176251 0 -0.00377994
785 2 3 31.1018 -652.500101365323644 -3.59711e-14 2.59757462543127282 0.175433 0 -0.00375945
786 2 3 31.1018 -649.500101365323417 -3.58046e-14 2.59757462533651751 0.174615 0 -0.00373897
787 2 3 31.1018 -646.500101365323303 -3.56381e-14 2.59757462524176219 0.173798 0 -0.00371847
788 2 3 31.1018 -643.500101365323189 -3.54715e-14 2.59757462514700732 0.17298 0 -0.00369798
789 2 3 31.1018 -640.500101365323076 -3.5305e-14 2.59757462505225201 0.172162 0 -0.00367748
790 2 3 31.1018 -637.500101365322848 -3.51385e-14 2.59757462495749669 0.171344 0 -0.003657
791 2 3 31.1018 -634.500101365322735 -3.49719e-14 2.59757462486274138 0.170527 0 -0.00363651
792 2 3 31.1018 -631.500101365322621 -3.48054e-14 2.59757462476798651 0.169709 0 -0.00361601
793 2 3 31.1018 -628.500101365322507 -3.46389e-14 2.59757462467323119 0.168891 0 -0.00359552
794 2 3 31.1018 -625.50010136532228 -3.44723e-14 2.59757462457847588 0.168073 0 -0.00357503
795 2 3 31.1018 -622.500101365322166 -3.43058e-14 2.59757462448372056 0.167256 0 -0.00355454
796 2 3 31.1018 -619.500101365322053 -3.41393e-14 2.59757462438896569 0.166438 0 -0.00353405
797 2 3 31.1018 -616.500101365321939 -3.39727e-14 2.59757462429421038 0.16562 0 -0.00351355
798 2 3 31.1018 -613.500101365321711 -3.38062e-14 2.59757462419945506 0.164802 0 -0.00349307
799 2 3 31.1018 -610.500101365321598 -3.36397e-14 2.59757462410469975 0.163985 0 -0.00347257
800 2 3 31.1018 -607.500101365321484 -3.34731e-14 2.59757462400994488 0.163167 0 -0.00345208
801 2 3 31.1018 -604.50010136532137 -3.33066e-14 2.59757462391518956 0.162349 0 -0.00343159
802 2 3 31.1018 -601.500101365321143 -3.31401e-14 2.59757462382043425 0.161531 0 -0.0034111
803 2 3 31.1018 -598.500101365321029 -3.29735e-14 2.59757462372567893 0.160714 0 -0.00339061
804 2 3 31.1018 -595.500101365320916 -3.2807e-14 2.59757462363092406 0.159896 0 -0.00337012
805 2 3 31.1018 -592.500101365320802 -3.26405e-14 2.59757462353616875 0.159078 0 -0.00334962
806 2 3 31.1018 -589.500101365320575 -3.2474e-14 2.59757462344141343 0.15826 0 -0.00332914
807 2 3 31.1018 -586.500101365320461 -3.23074e-14 2.59757462334665812 0.157443 0 -0.00330864
808 2 3 31.1018 -583.500101365320347 -3.21409e-14 2.59757462325190325 0.156625 0 -0.00328815
809 2 3 31.1018 -580.500101365320234 -3.19744e-14 2.59757462315714793 0.155807 0 -0.00326766
810 2 3 31.1018 -577.500101365320006 -3.18078e-14 2.59757462306239262 0.154989 0 -0.00324718
811 2 3 31.1018 -574.500101365319892 -3.16413e-14 2.5975746229676373 0.154172 0 -0.00322668
812 2 3 31.1018 -571.500101365319779 -3.14748e-14 2.59757462287288243 0.153354 0 -0.00320619
813 2 3 31.1018 -568.500101365319665 -3.13082e-14 2.59757462277812712 0.152536 0 -0.00318569
814 2 3 31.1018 -565.500101365319438 -3.11417e-14 2.5975746226833718 0.151718 0 -0.00316521
189 1 3 31.1018 -561 0 0 0 0 0
190 1 3 31.1018 -558 0 0 0 0 0
191 1 3 31.1018 -555 0 0 0 0 0
192 1 3 31.1018 -552 0 0 0 0 0
193 1 3 31.1018 -549 0 0 0 0 0
194 1 3 31.1018 -546 0 0 0 0 0
195 1 3 31.1018 -543 0 0 0 0 0
196 1 3 31.1018 -540 0 0 0 0 0
197 1 3 31.1018 -537 0 0 0 0 0
198 1 3 31.1018 -534 0 0 0 0 0
199 1 3 31.1018 -531 0 0 0 0 0
200 1 3 31.1018 -528 0 0 0 0 0
201 1 3 31.1018 -525 0 0 0 0 0
202 1 3 31.1018 -522 0 0 0 0 0
203 1 3 31.1018 -519 0 0 0 0 0
204 1 3 31.1018 -516 0 0 0 0 0
205 1 3 31.1018 -513 0 0 0 0 0
206 1 3 31.1018 -510 0 0 0 0 0
207 1 3 31.1018 -507 0 0 0 0 0
208 1 3 31.1018 -504 0 0 0 0 0
209 1 3 31.1018 -501 0 0 0 0 0
210 1 3 31.1018 -498 0 0 0 0 0
211 1 3 31.1018 -495 0 0 0 0 0
212 1 3 31.1018 -492 0 0 0 0 0
213 1 3 31.1018 -489 0 0 0 0 0
214 1 3 31.1018 -486 0 0 0 0 0
215 1 3 31.1018 -483 0 0 0 0 0
216 1 3 31.1018 -480 0 0 0 0 0
217 1 3 31.1018 -477 0 0 0 0 0
218 1 3 31.1018 -474 0 0 0 0 0
219 1 3 31.1018 -471 0 0 0 0 0
220 1 3 31.1018 -468 0 0 0 0 0
221 1 3 31.1018 -465 0 0 0 0 0
222 1 3 31.1018 -462 0 0 0 0 0
223 1 3 31.1018 -459 0 0 0 0 0
224 1 3 31.1018 -456 0 0 0 0 0
225 1 3 31.1018 -453 0 0 0 0 0
226 1 3 31.1018 -450 0 0 0 0 0
227 1 3 31.1018 -447 0 0 0 0 0
228 1 3 31.1018 -444 0 0 0 0 0
229 1 3 31.1018 -441 0 0 0 0 0
230 1 3 31.1018 -438 0 0 0 0 0
231 1 3 31.1018 -435 0 0 0 0 0
232 1 3 31.1018 -432 0 0 0 0 0
233 1 3 31.1018 -429 0 0 0 0 0
234 1 3 31.1018 -426 0 0 0 0 0
235 1 3 31.1018 -423 0 0 0 0 0
236 1 3 31.1018 -420 0 0 0 0 0
237 1 3 31.1018 -417 0 0 0 0 0
238 1 3 31.1018 -414 0 0 0 0 0
239 1 3 31.1018 -411 0 0 0 0 0
240 1 3 31.1018 -408 0 0 0 0 0
241 1 3 31.1018 -405 0 0 0 0 0
242 1 3 31.1018 -402 0 0 0 0 0
243 1 3 31.1018 -399 0 0 0 0 0
244 1 3 31.1018 -396 0 0 0 0 0
245 1 3 31.1018 -393 0 0 0 0 0
246 1 3 31.1018 -390 0 0 0 0 0
247 1 3 31.1018 -387 0 0 0 0 0
248 1 3 31.1018 -384 0 0 0 0 0
249 1 3 31.1018 -381 0 0 0 0 0
250 1 3 31.1018 -378 0 0 0 0 0
251 1 3 31.1018 -375 0 0 0 0 0
252 1 3 31.1018 -372 0 0 0 0 0
253 1 3 31.1018 -369 0 0 0 0 0
254 1 3 31.1018 -366 0 0 0 0 0
255 1 3 31.1018 -363 0 0 0 0 0
256 1 3 31.1018 -360 0 0 0 0 0
257 1 3 31.1018 -357 0 0 0 0 0
258 1 3 31.1018 -354 0 0 0 0 0
259 1 3 31.1018 -351 0 0 0 0 0
260 1 3 31.1018 -348 0 0 0 0 0
261 1 3 31.1018 -345 0 0 0 0 0
262 1 3 31.1018 -342 0 0 0 0 0
263 1 3 31.1018 -339 0 0 0 0 0
264 1 3 31.1018 -336 0 0 0 0 0
265 1 3 31.1018 -333 0 0 0 0 0
266 1 3 31.1018 -330 0 0 0 0 0
267 1 3 31.1018 -327 0 0 0 0 0
268 1 3 31.1018 -324 0 0 0 0 0
269 1 3 31.1018 -321 0 0 0 0 0
270 1 3 31.1018 -318 0 0 0 0 0
271 1 3 31.1018 -315 0 0 0 0 0
272 1 3 31.1018 -312 0 0 0 0 0
273 1 3 31.1018 -309 0 0 0 0 0
274 1 3 31.1018 -306 0 0 0 0 0
275 1 3 31.1018 -303 0 0 0 0 0
276 1 3 31.1018 -300 0 0 0 0 0
277 1 3 31.1018 -297 0 0 0 0 0
278 1 3 31.1018 -294 0 0 0 0 0
279 1 3 31.1018 -291 0 0 0 0 0
280 1 3 31.1018 -288 0 0 0 0 0
281 1 3 31.1018 -285 0 0 0 0 0
282 1 3 31.1018 -282 0 0 0 0 0
283 1 3 31.1018 -279 0 0 0 0 0
284 1 3 31.1018 -276 0 0 0 0 0
285 1 3 31.1018 -273 0 0 0 0 0
286 1 3 31.1018 -270 0 0 0 0 0
287 1 3 31.1018 -267 0 0 0 0 0
288 1 3 31.1018 -264 0 0 0 0 0
289 1 3 31.1018 -261 0 0 0 0 0
290 1 3 31.1018 -258 0 0 0 0 0
291 1 3 31.1018 -255 0 0 0 0 0
292 1 3 31.1018 -252 0 0 0 0 0
293 1 3 31.1018 -249 0 0 0 0 0
294 1 3 31.1018 -246 0 0 0 0 0
295 1 3 31.1018 -243 0 0 0 0 0
296 1 3 31.1018 -240 0 0 0 0 0
297 1 3 31.1018 -237 0 0 0 0 0
298 1 3 31.1018 -234 0 0 0 0 0
299 1 3 31.1018 -231 0 0 0 0 0
300 1 3 31.1018 -228 0 0 0 0 0
301 1 3 31.1018 -225 0 0 0 0 0
302 1 3 31.1018 -222 0 0 0 0 0
303 1 3 31.1018 -219 0 0 0 0 0
304 1 3 31.1018 -216 0 0 0 0 0
305 1 3 31.1018 -213 0 0 0 0 0
306 1 3 31.1018 -210 0 0 0 0 0
307 1 3 31.1018 -207 0 0 0 0 0
308 1 3 31.1018 -204 0 0 0 0 0
309 1 3 31.1018 -201 0 0 0 0 0
310 1 3 31.1018 -198 0 0 0 0 0
311 1 3 31.1018 -195 0 0 0 0 0
312 1 3 31.1018 -192 0 0 0 0 0
313 1 3 31.1018 -189 0 0 0 0 0
314 1 3 31.1018 -186 0 0 0 0 0
315 1 3 31.1018 -183 0 0 0 0 0
316 1 3 31.1018 -180 0 0 0 0 0
317 1 3 31.1018 -177 0 0 0 0 0
318 1 3 31.1018 -174 0 0 0 0 0
319 1 3 31.1018 -171 0 0 0 0 0
320 1 3 31.1018 -168 0 0 0 0 0
321 1 3 31.1018 -165 0 0 0 0 0
322 1 3 31.1018 -162 0 0 0 0 0
323 1 3 31.1018 -159 0 0 0 0 0
324 1 3 31.1018 -156 0 0 0 0 0
325 1 3 31.1018 -153 0 0 0 0 0
326 1 3 31.1018 -150 0 0 0 0 0
327 1 3 31.1018 -147 0 0 0 0 0
328 1 3 31.1018 -144 0 0 0 0 0
329 1 3 31.1018 -141 0 0 0 0 0
330 1 3 31.1018 -138 0 0 0 0 0
331 1 3 31.1018 -135 0 0 0 0 0
332 1 3 31.1018 -132 0 0 0 0 0
333 1 3 31.1018 -129 0 0 0 0 0
334 1 3 31.1018 -126 0 0 0 0 0
335 1 3 31.1018 -123 0 0 0 0 0
336 1 3 31.1018 -120 0 0 0 0 0
337 1 3 31.1018 -117 0 0 0 0 0
338 1 3 31.1018 -114 0 0 0 0 0
339 1 3 31.1018 -111 0 0 0 0 0
340 1 3 31.1018 -108 0 0 0 0 0
341 1 3 31.1018 -105 0 0 0 0 0
342 1 3 31.1018 -102 0 0 0 0 0
343 1 3 31.1018 -99 0 0 0 0 0
344 1 3 31.1018 -96 0 0 0 0 0
345 1 3 31.1018 -93 0 0 0 0 0
346 1 3 31.1018 -90 0 0 0 0 0
347 1 3 31.1018 -87 0 0 0 0 0
348 1 3 31.1018 -84 0 0 0 0 0
349 1 3 31.1018 -81 0 0 0 0 0
350 1 3 31.1018 -78 0 0 0 0 0
351 1 3 31.1018 -75 0 0 0 0 0
352 1 3 31.1018 -72 0 0 0 0 0
353 1 3 31.1018 -69 0 0 0 0 0
354 1 3 31.1018 -66 0 0 0 0 0
355 1 3 31.1018 -63 0 0 0 0 0
356 1 3 31.1018 -60 0 0 0 0 0
357 1 3 31.1018 -57 0 0 0 0 0
358 1 3 31.1018 -54 0 0 0 0 0
359 1 3 31.1018 -51 0 0 0 0 0
360 1 3 31.1018 -48 0 0 0 0 0
361 1 3 31.1018 -45 0 0 0 0 0
362 1 3 31.1018 -42 0 0 0 0 0
363 1 3 31.1018 -39 0 0 0 0 0
364 1 3 31.1018 -36 0 0 0 0 0
365 1 3 31.1018 -33 0 0 0 0 0
366 1 3 31.1018 -30 0 0 0 0 0
367 1 3 31.1018 -27 0 0 0 0 0
368 1 3 31.1018 -24 0 0 0 0 0
369 1 3 31.1018 -21 0 0 0 0 0
370 1 3 31.1018 -18 0 0 0 0 0
371 1 3 31.1018 -15 0 0 0 0 0
372 1 3 31.1018 -12 0 0 0 0 0
373 1 3 31.1018 -9 0 0 0 0 0
374 1 3 31.1018 -6 0 0 0 0 0
375 1 3 31.1018 -3 0 0 0 0 0
815 2 3 31.1018 -562.500101365319324 -3.09752e-14 2.59757462258861649 0.150901 0 -0.00314472
816 2 3 31.1018 -559.50010136531921 -3.08086e-14 2.59757462249386162 0.150083 0 -0.00312419
817 2 3 31.1018 -556.500101365319097 -3.06421e-14 2.5975746223991063 0.149265 0 -0.00310362
818 2 3 31.1018 -553.500101365318869 -3.04756e-14 2.59757462230435099 0.148447 0 -0.00308303
819 2 3 31.1018 -550.500101365318756 -3.0309e-14 2.59757462220959567 0.14763 0 -0.00306225
820 2 3 31.1018 -547.500101365318642 -3.01425e-14 2.5975746221148408 0.146812 0 -0.00304147
821 2 3 31.1018 -544.500101365318528 -2.9976e-14 2.59757462202008549 0.145994 0 -0.00302069
822 2 3 31.1018 -541.500101365318301 -2.98094e-14 2.59757462192533017 0.145176 0 -0.00299992
823 2 3 31.1018 -538.500101365318187 -2.96429e-14 2.59757462183057486 0.144358 0 -0.00297915
824 2 3 31.1018 -535.500101365318073 -2.94764e-14 2.59757462173581999 0.14354 0 -0.00295837
825 2 3 31.1018 -532.50010136531796 -2.93098e-14 2.59757462164106467 0.142722 0 -0.00293759
826 2 3 31.1018 -529.500101365317732 -2.91433e-14 2.59757462154630936 0.141904 0 -0.00291682
827 2 3 31.1018 -526.500101365317619 -2.89768e-14 2.59757462145155404 0.141086 0 -0.00289604
828 2 3 31.1018 -523.500101365317505 -2.88102e-14 2.59757462135679917 0.140268 0 -0.00287527
829 2 3 31.1018 -520.500101365317391 -2.86437e-14 2.59757462126204386 0.13945 0 -0.00285449
830 2 3 31.1018 -517.500101365317164 -2.84772e-14 2.59757462116728854 0.138632 0 -0.00283372
831 2 3 31.1018 -514.500101365316937 -2.83106e-14 2.59757462107253323 0.137814 0 -0.00281296
832 2 3 31.1018 -511.500101365316823 -2.81441e-14 2.59757462097777836 0.136996 0 -0.00279218
833 2 3 31.1018 -508.500101365316652 -2.79776e-14 2.59757462088302304 0.136178 0 -0.00277141
834 2 3 31.1018 -505.500101365316539 -2.7811e-14 2.59757462078826773 0.13536 0 -0.00275063
835 2 3 31.1018 -502.500101365316368 -2.76445e-14 2.59757462069351241 0.134542 0 -0.00272986
836 2 3 31.1018 -499.500101365316254 -2.7478e-14 2.59757462059875754 0.133724 0 -0.00270908
837 2 3 31.1018 -496.500101365316084 -2.73114e-14 2.59757462050400223 0.132906 0 -0.00268831
838 2 3 31.1018 -493.50010136531597 -2.71449e-14 2.59757462040924691 0.132088 0 -0.00266753
839 2 3 31.1018 -490.5001013653158 -2.69784e-14 2.5975746203144916 0.13127 0 -0.00264676
840 2 3 31.1018 -487.500101365315686 -2.68118e-14 2.59757462021973673 0.130452 0 -0.00262598
841 2 3 31.1018 -484.500101365315516 -2.66453e-14 2.59757462012498141 0.129634 0 -0.00260521
842 2 3 31.1018 -481.500101365315402 -2.64788e-14 2.5975746200302261 0.128816 0 -0.00258443
843 2 3 31.1018 -478.500101365315231 -2.63122e-14 2.59757461993547079 0.127998 0 -0.00256366
844 2 3 31.1018 -475.500101365315118 -2.61457e-14 2.59757461984071591 0.12718 0 -0.00254288
845 2 3 31.1018 -472.500101365314947 -2.59792e-14 2.5975746197459606 0.126362 0 -0.00252211
846 2 3 31.1018 -469.500101365314833 -2.58126e-14 2.59757461965120529 0.125544 0 -0.00250133
847 2 3 31.1018 -466.500101365314663 -2.56461e-14 2.59757461955644997 0.124726 0 -0.00248056
848 2 3 31.1018 -463.500101365314549 -2.54796e-14 2.5975746194616951 0.123908 0 -0.00245978
849 2 3 31.1018 -460.500101365314379 -2.5313e-14 2.59757461936693979 0.12309 0 -0.00243901
850 2 3 31.1018 -457.500101365314265 -2.51465e-14 2.59757461927218447 0.122272 0 -0.00241823
851 2 3 31.1018 -454.500101365314094 -2.498e-14 2.59757461917742916 0.121454 0 -0.00239746
852 2 3 31.1018 -451.500101365313981 -2.48134e-14 2.59757461908267429 0.120636 0 -0.00237669
853 2 3 31.1018 -448.50010136531381 -2.46469e-14 2.59757461898791897 0.119818 0 -0.00235591
854 2 3 31.1018 -445.500101365313697 -2.44804e-14 2.59757461889316366 0.119 0 -0.00233514
855 2 3 31.1018 -442.500101365313526 -2.43138e-14 2.59757461879840834 0.118182 0 -0.00231436
856 2 3 31.1018 -439.500101365313412 -2.41473e-14 2.59757461870365347 0.117364 0 -0.00229359
857 2 3 31.1018 -436.500101365313242 -2.39808e-14 2.59757461860889816 0.116546 0 -0.00227282
858 2 3 31.1018 -433.500101365313128 -2.38142e-14 2.59757461851414284 0.115728 0 -0.00225204
859 2 3 31.1018 -430.500101365312958 -2.36477e-14 2.59757461841938753 0.11491 0 -0.00223127
860 2 3 31.1018 -427.500101365312844 -2.34812e-14 2.59757461832463266 0.114092 0 -0.00221049
861 2 3 31.1018 -424.500101365312673 -2.33146e-14 2.59757461822987734 0.113274 0 -0.00218972
862 2 3 31.1018 -421.50010136531256 -2.31481e-14 2.59757461813512203 0.112456 0 -0.00216894
863 2 3 31.1018 -418.500101365312389 -2.29816e-14 2.59757461804036671 0.111638 0 -0.00214817
864 2 3 31.1018 -415.500101365312275 -2.2815e-14 2.59757461794561184 0.11082 0 -0.0021274
865 2 3 31.1018 -412.500101365312105 -2.26485e-14 2.59757461785085653 0.110002 0 -0.00210662
866 2 3 31.1018 -409.500101365311991 -2.2482e-14 2.59757461775610121 0.109184 0 -0.00208585
867 2 3 31.1018 -406.500101365311821 -2.23154e-14 2.5975746176613459 0.108366 0 -0.00206508
868 2 3 31.1018 -403.500101365311707 -2.21489e-14 2.59757461756659103 0.107548 0 -0.0020443
869 2 3 31.1018 -400.500101365311536 -2.19824e-14 2.59757461747183571 0.10673 0 -0.00202353
870 2 3 31.1018 -397.500101365311423 -2.18158e-14 2.5975746173770804 0.105912 0 -0.00200275
871 2 3 31.1018 -394.500101365311252 -2.16493e-14 2.59757461728232508 0.105094 0 -0.00198198
872 2 3 31.1018 -391.500101365311139 -2.14828e-14 2.59757461718757021 0.104276 0 -0.0019612
873 2 3 31.1018 -388.500101365310968 -2.13162e-14 2.5975746170928149 0.103458 0 -0.00194043
874 2 3 31.1018 -385.500101365310854 -2.11497e-14 2.59757461699805958 0.10264 0 -0.00191966
875 2 3 31.1018 -382.500101365310741 -2.09832e-14 2.59757461690330427 0.101822 0 -0.00189888
876 2 3 31.1018 -379.50010136531057 -2.08166e-14 2.5975746168085494 0.101004 0 -0.00187811
877 2 3 31.1018 -376.500101365310456 -2.06501e-14 2.59757461671379408 0.100186 0 -0.00185733
878 2 3 31.1018 -373.500101365310286 -2.04836e-14 2.59757461661903877 0.0993679 0 -0.00183656
879 2 3 31.1018 -370.500101365310172 -2.0317e-14 2.59757461652428345 0.0985499 0 -0.00181579
880 2 3 31.1018 -367.500101365310002 -2.01505e-14 2.59757461642952858 0.0977319 0 -0.00179502
881 2 3 31.1018 -364.500101365309888 -1.9984e-14 2.59757461633477327 0.0969139 0 -0.00177424
882 2 3 31.1018 -361.500101365309717 -1.98174e-14 2.59757461624001795 0.0960959 0 -0.00175347
883 2 3 31.1018 -358.500101365309604 -1.96509e-14 2.59757461614526264 0.0952779 0 -0.00173269
884 2 3 31.1018 -355.500101365309433 -1.94844e-14 2.59757461605050777 0.0944599 0 -0.00171192
885 2 3 31.1018 -352.50010136530932 -1.93178e-14 2.59757461595575245 0.0936419 0 -0.00169115
886 2 3 31.1018 -349.500101365309149 -1.91513e-14 2.59757461586099714 0.0928239 0 -0.00167037
887 2 3 31.1018 -346.500101365309035 -1.89848e-14 2.59757461576624182 0.0920059 0 -0.0016496
888 2 3 31.1018 -343.500101365308865 -1.88182e-14 2.59757461567148695 0.0911879 0 -0.00162883
889 2 3 31.1018 -340.500101365308751 -1.86517e-14 2.59757461557673164 0.0903699 0 -0.00160805
890 2 3 31.1018 -337.500101365308581 -1.84852e-14 2.59757461548197632 0.0895519 0 -0.00158728
891 2 3 31.1018 -334.500101365308467 -1.83186e-14 2.59757461538722101 0.0887339 0 -0.00156651
892 2 3 31.1018 -331.500101365308296 -1.81521e-14 2.59757461529246614 0.0879159 0 -0.00154574
893 2 3 31.1018 -328.500101365308183 -1.79856e-14 2.59757461519771082 0.0870979 0 -0.00152496
894 2 3 31.1018 -325.500101365308012 -1.7819e-14 2.59757461510295551 0.0862799 0 -0.00150419
895 2 3 31.1018 -322.500101365307899 -1.76525e-14 2.59757461500820019 0.0854619 0 -0.00148342
896 2 3 31.1018 -319.500101365307728 -1.7486e-14 2.59757461491344532 0.0846439 0 -0.00146265
897 2 3 31.1018 -316.500101365307614 -1.73194e-14 2.59757461481869001 0.0838259 0 -0.00144187
898 2 3 31.1018 -313.500101365307444 -1.71529e-14 2.59757461472393469 0.0830079 0 -0.0014211
899 2 3 31.1018 -310.50010136530733 -1.69864e-14 2.59757461462917938 0.0821899 0 -0.00140032
900 2 3 31.1018 -307.50010136530716 -1.68198e-14 2.59757461453442451 0.0813719 0 -0.00137955
901 2 3 31.1018 -304.500101365307046 -1.66533e-14 2.59757461443966919 0.0805539 0 -0.00135878
902 2 3 31.1018 -301.500101365306875 -1.64868e-14 2.59757461434491388 0.0797359 0 -0.00133801
903 2 3 31.1018 -298.500101365306762 -1.63202e-14 2.59757461425015856 0.0789179 0 -0.00131723
904 2 3 31.1018 -295.500101365306591 -1.61537e-14 2.59757461415540369 0.0780999 0 -0.00129646
905 2 3 31.1018 -292.500101365306477 -1.59872e-14 2.59757461406064838 0.0772819 0 -0.00127569
906 2 3 31.1018 -289.500101365306307 -1.58206e-14 2.59757461396589306 0.0764639 0 -0.00125492
907 2 3 31.1018 -286.500101365306193 -1.56541e-14 2.59757461387113775 0.0756459 0 -0.00123414
908 2 3 31.1018 -283.500101365306023 -1.54876e-14 2.59757461377638288 0.0748279 0 -0.00121337
909 2 3 31.1018 -280.500101365305909 -1.5321e-14 2.59757461368162756 0.0740099 0 -0.0011926
910 2 3 31.1018 -277.500101365305738 -1.51545e-14 2.59757461358687225 0.0731919 0 -0.00117183
911 2 3 31.1018 -274.500101365305625 -1.4988e-14 2.59757461349211694 0.0723739 0 -0.00115105
912 2 3 31.1018 -271.500101365305454 -1.48214e-14 2.59757461339736206 0.0715559 0 -0.00113028
913 2 3 31.1018 -268.500101365305341 -1.46549e-14 2.59757461330260675 0.0707379 0 -0.00110951
914 2 3 31.1018 -265.50010136530517 -1.44884e-14 2.59757461320785143 0.0699199 0 -0.00108874
915 2 3 31.1018 -262.500101365305056 -1.43218e-14 2.59757461311309612 0.0691019 0 -0.00106796
916 2 3 31.1018 -259.500101365304943 -1.41553e-14 2.59757461301834125 0.0682839 0 -0.00104719
917 2 3 31.1018 -256.500101365304772 -1.39888e-14 2.59757461292358593 0.0674659 0 -0.00102642
918 2 3 31.1018 -253.50010136530463 -1.38222e-14 2.59757461282883062 0.0666479 0 -0.00100565
919 2 3 31.1018 -250.500101365304488 -1.36557e-14 2.59757461273407531 0.0658299 0 -0.000984875
920 2 3 31.1018 -247.500101365304346 -1.34892e-14 2.59757461263932043 0.0650119 0 -0.000964104
921 2 3 31.1018 -244.500101365304204 -1.33226e-14 2.59757461254456512 0.0641939 0 -0.000943332
922 2 3 31.1018 -241.500101365304062 -1.31561e-14 2.59757461244980981 0.0633759 0 -0.000922559
923 2 3 31.1018 -238.500101365303919 -1.29896e-14 2.59757461235505449 0.0625578 0 -0.000901786
924 2 3 31.1018 -235.500101365303777 -1.2823e-14 2.59757461226029962 0.0617398 0 -0.000881016
925 2 3 31.1018 -232.500101365303635 -1.26565e-14 2.59757461216554431 0.0609218 0 -0.000860244
926 2 3 31.1018 -229.500101365303493 -1.249e-14 2.59757461207078899 0.0601038 0 -0.000839472
927 2 3 31.1018 -226.500101365303351 -1.23234e-14 2.59757461197603368 0.0592858 0 -0.0008187
928 2 3 31.1018 -223.500101365303209 -1.21569e-14 2.59757461188127881 0.0584678 0 -0.000797929
929 2 3 31.1018 -220.500101365303067 -1.19904e-14 2.59757461178652349 0.0576498 0 -0.000777155
930 2 3 31.1018 -217.500101365302925 -1.18238e-14 2.59757461169176818 0.0568318 0 -0.000756384
931 2 3 31.1018 -214.500101365302783 -1.16573e-14 2.59757461159701286 0.0560138 0 -0.000735613
932 2 3 31.1018 -211.50010136530264 -1.14908e-14 2.59757461150225799 0.0551958 0 -0.000714842
933 2 3 31.1018 -208.500101365302498 -1.13242e-14 2.59757461140750268 0.0543778 0 -0.000694069
934 2 3 31.1018 -205.500101365302356 -1.11577e-14 2.59757461131274736 0.0535598 0 -0.000673298
935 2 3 31.1018 -202.500101365302214 -1.09912e-14 2.59757461121799205 0.0527418 0 -0.000652525
936 2 3 31.1018 -199.500101365302072 -1.08247e-14 2.59757461112323718 0.0519238 0 -0.000631755
937 2 3 31.1018 -196.50010136530193 -1.06581e-14 2.59757461102848186 0.0511058 0 -0.000610984
938 2 3 31.1018 -193.500101365301816 -1.04916e-14 2.59757461093372655 0.0502878 0 -0.000590209
939 2 3 31.1018 -190.500101365301674 -1.03251e-14 2.59757461083897123 0.0494698 0 -0.000569437
940 2 3 31.1018 -187.500101365301532 -1.01585e-14 2.59757461074421636 0.0486518 0 -0.000548667
941 2 3 31.1018 -184.50010136530139 -9.99198e-15 2.59757461064946105 0.0478338 0 -0.000527895
942 2 3 31.1018 -181.500101365301248 -9.82545e-15 2.59757461055470573 0.0470157 0 -0.000507123
943 2 3 31.1018 -178.500101365301106 -9.65892e-15 2.59757461045995042 0.0461977 0 -0.000486352
944 2 3 31.1018 -175.500101365300964 -9.49239e-15 2.59757461036519555 0.0453797 0 -0.00046558
945 2 3 31.1018 -172.500101365300821 -9.32585e-15 2.59757461027044023 0.0445617 0 -0.000444809