ITEM: TIMESTEP
3600000
ITEM: NUMBER OF ATOMS
2251
ITEM: BOX BOUNDS pp pp pp
-2.0250000000000000e+03 2.0250000000000000e+03
-1.0000000000000000e+02 1.0000000000000000e+02
-1.0000000000000000e+02 1.0000000000000000e+02
ITEM: ATOMS id type diameter mass xu yu zu fx fy fz
1 1 3 31.1018 -2025 0 0 0 0 0
2 1 3 31.1018 -2022 0 0 0 0 0
3 1 3 31.1018 -2019 0 0 0 0 0
4 1 3 31.1018 -2016 0 0 0 0 0
5 1 3 31.1018 -2013 0 0 0 0 0
6 1 3 31.1018 -2010 0 0 0 0 0
7 1 3 31.1018 -2007 0 0 0 0 0
8 1 3 31.1018 -2004 0 0 0 0 0
9 1 3 31.1018 -2001 0 0 0 0 0
10 1 3 31.1018 -1998 0 0 0 0 0
11 1 3 31.1018 -1995 0 0 0 0 0
12 1 3 31.1018 -1992 0 0 0 0 0
13 1 3 31.1018 -1989 0 0 0 0 0
14 1 3 31.1018 -1986 0 0 0 0 0
15 1 3 31.1018 -1983 0 0 0 0 0
16 1 3 31.1018 -1980 0 0 0 0 0
17 1 3 31.1018 -1977 0 0 0 0 0
18 1 3 31.1018 -1974 0 0 0 0 0
19 1 3 31.1018 -1971 0 0 0 0 0
20 1 3 31.1018 -1968 0 0 0 0 0
21 1 3 31.1018 -1965 0 0 0 0 0
22 1 3 31.1018 -1962 0 0 0 0 0
23 1 3 31.1018 -1959 0 0 0 0 0
24 1 3 31.1018 -1956 0 0 0 0 0
25 1 3 31.1018 -1953 0 0 0 0 0
26 1 3 31.1018 -1950 0 0 0 0 0
27 1 3 31.1018 -1947 0 0 0 0 0
28 1 3 31.1018 -1944 0 0 0 0 0
29 1 3 31.1018 -1941 0 0 0 0 0
30 1 3 31.1018 -1938 0 0 0 0 0
31 1 3 31.1018 -1935 0 0 0 0 0
32 1 3 31.1018 -1932 0 0 0 0 0
33 1 3 31.1018 -1929 0 0 0 0 0
34 1 3 31.1018 -1926 0 0 0 0 0
35 1 3 31.1018 -1923 0 0 0 0 0
36 1 3 31.1018 -1920 0 0 0 0 0
37 1 3 31.1018 -1917 0 0 0 0 0
38 1 3 31.1018 -1914 0 0 0 0 0
39 1 3 31.1018 -1911 0 0 0 0 0
40 1 3 31.1018 -1908 0 0 0 0 0
41 1 3 31.1018 -1905 0 0 0 0 0
42 1 3 31.1018 -1902 0 0 0 0 0
43 1 3 31.1018 -1899 0 0 0 0 0
44 1 3 31.1018 -1896 0 0 0 0 0
45 1 3 31.1018 -1893 0 0 0 0 0
46 1 3 31.1018 -1890 0 0 0 0 0
47 1 3 31.1018 -1887 0 0 0 0 0
48 1 3 31.1018 -1884 0 0 0 0 0
49 1 3 31.1018 -1881 0 0 0 0 0
50 1 3 31.1018 -1878 0 0 0 0 0
51 1 3 31.1018 -1875 0 0 0 0 0
52 1 3 31.1018 -1872 0 0 0 0 0
53 1 3 31.1018 -1869 0 0 0 0 0
54 1 3 31.1018 -1866 0 0 0 0 0
55 1 3 31.1018 -1863 0 0 0 0 0
56 1 3 31.1018 -1860 0 0 0 0 0
57 1 3 31.1018 -1857 0 0 0 0 0
58 1 3 31.1018 -1854 0 0 0 0 0
59 1 3 31.1018 -1851 0 0 0 0 0
60 1 3 31.1018 -1848 0 0 0 0 0
61 1 3 31.1018 -1845 0 0 0 0 0
62 1 3 31.1018 -1842 0 0 0 0 0
63 1 3 31.1018 -1839 0 0 0 0 0
64 1 3 31.1018 -1836 0 0 0 0 0
65 1 3 31.1018 -1833 0 0 0 0 0
66 1 3 31.1018 -1830 0 0 0 0 0
67 1 3 31.1018 -1827 0 0 0 0 0
68 1 3 31.1018 -1824 0 0 0 0 0
69 1 3 31.1018 -1821 0 0 0 0 0
70 1 3 31.1018 -1818 0 0 0 0 0
71 1 3 31.1018 -1815 0 0 0 0 0
72 1 3 31.1018 -1812 0 0 0 0 0
73 1 3 31.1018 -1809 0 0 0 0 0
74 1 3 31.1018 -1806 0 0 0 0 0
75 1 3 31.1018 -1803 0 0 0 0 0
76 1 3 31.1018 -1800 0 0 0 0 0
77 1 3 31.1018 -1797 0 0 0 0 0
78 1 3 31.1018 -1794 0 0 0 0 0
79 1 3 31.1018 -1791 0 0 0 0 0
80 1 3 31.1018 -1788 0 0 0 0 0
81 1 3 31.1018 -1785 0 0 0 0 0
82 1 3 31.1018 -1782 0 0 0 0 0
83 1 3 31.1018 -1779 0 0 0 0 0
84 1 3 31.1018 -1776 0 0 0 0 0
85 1 3 31.1018 -1773 0 0 0 0 0
86 1 3 31.1018 -1770 0 0 0 0 0
87 1 3 31.1018 -1767 0 0 0 0 0
88 1 3 31.1018 -1764 0 0 0 0 0
89 1 3 31.1018 -1761 0 0 0 0 0
90 1 3 31.1018 -1758 0 0 0 0 0
91 1 3 31.1018 -1755 0 0 0 0 0
92 1 3 31.1018 -1752 0 0 0 0 0
93 1 3 31.1018 -1749 0 0 0 0 0
94 1 3 31.1018 -1746 0 0 0 0 0
95 1 3 31.1018 -1743 0 0 0 0 0
96 1 3 31.1018 -1740 0 0 0 0 0
97 1 3 31.1018 -1737 0 0 0 0 0
98 1 3 31.1018 -1734 0 0 0 0 0
99 1 3 31.1018 -1731 0 0 0 0 0
100 1 3 31.1018 -1728 0 0 0 0 0
101 1 3 31.1018 -1725 0 0 0 0 0
102 1 3 31.1018 -1722 0 0 0 0 0
103 1 3 31.1018 -1719 0 0 0 0 0
104 1 3 31.1018 -1716 0 0 0 0 0
105 1 3 31.1018 -1713 0 0 0 0 0
106 1 3 31.1018 -1710 0 0 0 0 0
107 1 3 31.1018 -1707 0 0 0 0 0
108 1 3 31.1018 -1704 0 0 0 0 0
109 1 3 31.1018 -1701 0 0 0 0 0
110 1 3 31.1018 -1698 0 0 0 0 0
111 1 3 31.1018 -1695 0 0 0 0 0
112 1 3 31.1018 -1692 0 0 0 0 0
113 1 3 31.1018 -1689 0 0 0 0 0
114 1 3 31.1018 -1686 0 0 0 0 0
115 1 3 31.1018 -1683 0 0 0 0 0
116 1 3 31.1018 -1680 0 0 0 0 0
117 1 3 31.1018 -1677 0 0 0 0 0
118 1 3 31.1018 -1674 0 0 0 0 0
119 1 3 31.1018 -1671 0 0 0 0 0
120 1 3 31.1018 -1668 0 0 0 0 0
121 1 3 31.1018 -1665 0 0 0 0 0
122 1 3 31.1018 -1662 0 0 0 0 0
123 1 3 31.1018 -1659 0 0 0 0 0
124 1 3 31.1018 -1656 0 0 0 0 0
125 1 3 31.1018 -1653 0 0 0 0 0
126 1 3 31.1018 -1650 0 0 0 0 0
127 1 3 31.1018 -1647 0 0 0 0 0
128 1 3 31.1018 -1644 0 0 0 0 0
129 1 3 31.1018 -1641 0 0 0 0 0
130 1 3 31.1018 -1638 0 0 0 0 0
131 1 3 31.1018 -1635 0 0 0 0 0
132 1 3 31.1018 -1632 0 0 0 0 0
133 1 3 31.1018 -1629 0 0 0 0 0
134 1 3 31.1018 -1626 0 0 0 0 0
135 1 3 31.1018 -1623 0 0 0 0 0
136 1 3 31.1018 -1620 0 0 0 0 0
137 1 3 31.1018 -1617 0 0 0 0 0
138 1 3 31.1018 -1614 0 0 0 0 0
139 1 3 31.1018 -1611 0 0 0 0 0
140 1 3 31.1018 -1608 0 0 0 0 0
141 1 3 31.1018 -1605 0 0 0 0 0
142 1 3 31.1018 -1602 0 0 0 0 0
143 1 3 31.1018 -1599 0 0 0 0 0
144 1 3 31.1018 -1596 0 0 0 0 0
145 1 3 31.1018 -1593 0 0 0 0 0
146 1 3 31.1018 -1590 0 0 0 0 0
147 1 3 31.1018 -1587 0 0 0 0 0
148 1 3 31.1018 -1584 0 0 0 0 0
149 1 3 31.1018 -1581 0 0 0 0 0
150 1 3 31.1018 -1578 0 0 0 0 0
151 1 3 31.1018 -1575 0 0 0 0 0
152 1 3 31.1018 -1572 0 0 0 0 0
153 1 3 31.1018 -1569 0 0 0 0 0
154 1 3 31.1018 -1566 0 0 0 0 0
155 1 3 31.1018 -1563 0 0 0 0 0
156 1 3 31.1018 -1560 0 0 0 0 0
157 1 3 31.1018 -1557 0 0 0 0 0
158 1 3 31.1018 -1554 0 0 0 0 0
159 1 3 31.1018 -1551 0 0 0 0 0
160 1 3 31.1018 -1548 0 0 0 0 0
161 1 3 31.1018 -1545 0 0 0 0 0
162 1 3 31.1018 -1542 0 0 0 0 0
163 1 3 31.1018 -1539 0 0 0 0 0
164 1 3 31.1018 -1536 0 0 0 0 0
165 1 3 31.1018 -1533 0 0 0 0 0
166 1 3 31.1018 -1530 0 0 0 0 0
167 1 3 31.1018 -1527 0 0 0 0 0
168 1 3 31.1018 -1524 0 0 0 0 0
169 1 3 31.1018 -1521 0 0 0 0 0
170 1 3 31.1018 -1518 0 0 0 0 0
171 1 3 31.1018 -1515 0 0 0 0 0
172 1 3 31.1018 -1512 0 0 0 0 0
173 1 3 31.1018 -1509 0 0 0 0 0
174 1 3 31.1018 -1506 0 0 0 0 0
175 1 3 31.1018 -1503 0 0 0 0 0
176 1 3 31.1018 -1500 0 0 0 0 0
177 1 3 31.1018 -1497 0 0 0 0 0
178 1 3 31.1018 -1494 0 0 0 0 0
179 1 3 31.1018 -1491 0 0 0 0 0
180 1 3 31.1018 -1488 0 0 0 0 0
181 1 3 31.1018 -1485 0 0 0 0 0
182 1 3 31.1018 -1482 0 0 0 0 0
183 1 3 31.1018 -1479 0 0 0 0 0
184 1 3 31.1018 -1476 0 0 0 0 0
185 1 3 31.1018 -1473 0 0 0 0 0
186 1 3 31.1018 -1470 0 0 0 0 0
187 1 3 31.1018 -1467 0 0 0 0 0
188 1 3 31.1018 -1464 0 0 0 0 0
189 1 3 31.1018 -1461 0 0 0 0 0
190 1 3 31.1018 -1458 0 0 0 0 0
191 1 3 31.1018 -1455 0 0 0 0 0
192 1 3 31.1018 -1452 0 0 0 0 0
193 1 3 31.1018 -1449 0 0 0 0 0
194 1 3 31.1018 -1446 0 0 0 0 0
195 1 3 31.1018 -1443 0 0 0 0 0
196 1 3 31.1018 -1440 0 0 0 0 0
197 1 3 31.1018 -1437 0 0 0 0 0
198 1 3 31.1018 -1434 0 0 0 0 0
199 1 3 31.1018 -1431 0 0 0 0 0
200 1 3 31.1018 -1428 0 0 0 0 0
201 1 3 31.1018 -1425 0 0 0 0 0
202 1 3 31.1018 -1422 0 0 0 0 0
203 1 3 31.1018 -1419 0 0 0 0 0
204 1 3 31.1018 -1416 0 0 0 0 0
205 1 3 31.1018 -1413 0 0 0 0 0
206 1 3 31.1018 -1410 0 0 0 0 0
207 1 3 31.1018 -1407 0 0 0 0 0
208 1 3 31.1018 -1404 0 0 0 0 0
209 1 3 31.1018 -1401 0 0 0 0 0
210 1 3 31.1018 -1398 0 0 0 0 0
211 1 3 31.1018 -1395 0 0 0 0 0
212 1 3 31.1018 -1392 0 0 0 0 0
213 1 3 31.1018 -1389 0 0 0 0 0
214 1 3 31.1018 -1386 0 0 0 0 0
215 1 3 31.1018 -1383 0 0 0 0 0
216 1 3 31.1018 -1380 0 0 0 0 0
217 1 3 31.1018 -1377 0 0 0 0 0
218 1 3 31.1018 -1374 0 0 0 0 0
219 1 3 31.1018 -1371 0 0 0 0 0
220 1 3 31.1018 -1368 0 0 0 0 0
221 1 3 31.1018 -1365 0 0 0 0 0
222 1 3 31.1018 -1362 0 0 0 0 0
223 1 3 31.1018 -1359 0 0 0 0 0
224 1 3 31.1018 -1356 0 0 0 0 0
225 1 3 31.1018 -1353 0 0 0 0 0
226 1 3 31.1018 -1350 0 0 0 0 0
227 1 3 31.1018 -1347 0 0 0 0 0
228 1 3 31.1018 -1344 0 0 0 0 0
229 1 3 31.1018 -1341 0 0 0 0 0
230 1 3 31.1018 -1338 0 0 0 0 0
231 1 3 31.1018 -1335 0 0 0 0 0
232 1 3 31.1018 -1332 0 0 0 0 0
233 1 3 31.1018 -1329 0 0 0 0 0
234 1 3 31.1018 -1326 0 0 0 0 0
235 1 3 31.1018 -1323 0 0 0 0 0
236 1 3 31.1018 -1320 0 0 0 0 0
237 1 3 31.1018 -1317 0 0 0 0 0
238 1 3 31.1018 -1314 0 0 0 0 0
239 1 3 31.1018 -1311 0 0 0 0 0
240 1 3 31.1018 -1308 0 0 0 0 0
241 1 3 31.1018 -1305 0 0 0 0 0
242 1 3 31.1018 -1302 0 0 0 0 0
243 1 3 31.1018 -1299 0 0 0 0 0
244 1 3 31.1018 -1296 0 0 0 0 0
245 1 3 31.1018 -1293 0 0 0 0 0
246 1 3 31.1018 -1290 0 0 0 0 0
247 1 3 31.1018 -1287 0 0 0 0 0
248 1 3 31.1018 -1284 0 0 0 0 0
249 1 3 31.1018 -1281 0 0 0 0 0
250 1 3 31.1018 -1278 0 0 0 0 0
251 1 3 31.1018 -1275 0 0 0 0 0
252 1 3 31.1018 -1272 0 0 0 0 0
253 1 3 31.1018 -1269 0 0 0 0 0
254 1 3 31.1018 -1266 0 0 0 0 0
255 1 3 31.1018 -1263 0 0 0 0 0
256 1 3 31.1018 -1260 0 0 0 0 0
257 1 3 31.1018 -1257 0 0 0 0 0
258 1 3 31.1018 -1254 0 0 0 0 0
259 1 3 31.1018 -1251 0 0 0 0 0
260 1 3 31.1018 -1248 0 0 0 0 0
261 1 3 31.1018 -1245 0 0 0 0 0
262 1 3 31.1018 -1242 0 0 0 0 0
263 1 3 31.1018 -1239 0 0 0 0 0
264 1 3 31.1018 -1236 0 0 0 0 0
265 1 3 31.1018 -1233 0 0 0 0 0
266 1 3 31.1018 -1230 0 0 0 0 0
267 1 3 31.1018 -1227 0 0 0 0 0
268 1 3 31.1018 -1224 0 0 0 0 0
269 1 3 31.1018 -1221 0 0 0 0 0
270 1 3 31.1018 -1218 0 0 0 0 0
271 1 3 31.1018 -1215 0 0 0 0 0
272 1 3 31.1018 -1212 0 0 0 0 0
273 1 3 31.1018 -1209 0 0 0 0 0
274 1 3 31.1018 -1206 0 0 0 0 0
275 1 3 31.1018 -1203 0 0 0 0 0
276 1 3 31.1018 -1200 0 0 0 0 0
277 1 3 31.1018 -1197 0 0 0 0 0
278 1 3 31.1018 -1194 0 0 0 0 0
279 1 3 31.1018 -1191 0 0 0 0 0
280 1 3 31.1018 -1188 0 0 0 0 0
281 1 3 31.1018 -1185 0 0 0 0 0
282 1 3 31.1018 -1182 0 0 0 0 0
283 1 3 31.1018 -1179 0 0 0 0 0
284 1 3 31.1018 -1176 0 0 0 0 0
285 1 3 31.1018 -1173 0 0 0 0 0
286 1 3 31.1018 -1170 0 0 0 0 0
287 1 3 31.1018 -1167 0 0 0 0 0
288 1 3 31.1018 -1164 0 0 0 0 0
289 1 3 31.1018 -1161 0 0 0 0 0
290 1 3 31.1018 -1158 0 0 0 0 0
291 1 3 31.1018 -1155 0 0 0 0 0
292 1 3 31.1018 -1152 0 0 0 0 0
293 1 3 31.1018 -1149 0 0 0 0 0
294 1 3 31.1018 -1146 0 0 0 0 0
295 1 3 31.1018 -1143 0 0 0 0 0
296 1 3 31.1018 -1140 0 0 0 0 0
297 1 3 31.1018 -1137 0 0 0 0 0
298 1 3 31.1018 -1134 0 0 0 0 0
299 1 3 31.1018 -1131 0 0 0 0 0
300 1 3 31.1018 -1128 0 0 0 0 0
301 1 3 31.1018 -1125 0 0 0 0 0
302 1 3 31.1018 -1122 0 0 0 0 0
303 1 3 31.1018 -1119 0 0 0 0 0
304 1 3 31.1018 -1116 0 0 0 0 0
305 1 3 31.1018 -1113 0 0 0 0 0
306 1 3 31.1018 -1110 0 0 0 0 0
307 1 3 31.1018 -1107 0 0 0 0 0
308 1 3 31.1018 -1104 0 0 0 0 0
309 1 3 31.1018 -1101 0 0 0 0 0
310 1 3 31.1018 -1098 0 0 0 0 0
311 1 3 31.1018 -1095 0 0 0 0 0
312 1 3 31.1018 -1092 0 0 0 0 0
313 1 3 31.1018 -1089 0 0 0 0 0
314 1 3 31.1018 -1086 0 0 0 0 0
315 1 3 31.1018 -1083 0 0 0 0 0
316 1 3 31.1018 -1080 0 0 0 0 0
317 1 3 31.1018 -1077 0 0 0 0 0
318 1 3 31.1018 -1074 0 0 0 0 0
319 1 3 31.1018 -1071 0 0 0 0 0
320 1 3 31.1018 -1068 0 0 0 0 0
321 1 3 31.1018 -1065 0 0 0 0 0
322 1 3 31.1018 -1062 0 0 0 0 0
323 1 3 31.1018 -1059 0 0 0 0 0
324 1 3 31.1018 -1056 0 0 0 0 0
325 1 3 31.1018 -1053 0 0 0 0 0
326 1 3 31.1018 -1050 0 0 0 0 0
327 1 3 31.1018 -1047 0 0 0 0 0
328 1 3 31.1018 -1044 0 0 0 0 0
329 1 3 31.1018 -1041 0 0 0 0 0
330 1 3 31.1018 -1038 0 0 0 0 0
331 1 3 31.1018 -1035 0 0 0 0 0
332 1 3 31.1018 -1032 0 0 0 0 0
333 1 3 31.1018 -1029 0 0 0 0 0
334 1 3 31.1018 -1026 0 0 0 0 0
335 1 3 31.1018 -1023 0 0 0 0 0
336 1 3 31.1018 -1020 0 0 0 0 0
337 1 3 31.1018 -1017 0 0 0 0 0
338 1 3 31.1018 -1014 0 0 0 0 0
1351 2 3 31.1018 -1354.50010137375511 1.4669e-20 2.59757461318306815 0.141589 0 0.0160336
1352 2 3 31.1018 -1351.50010137375534 1.46364e-20 2.59757461315509586 0.141338 0 0.0160356
1353 2 3 31.1018 -1348.50010137375557 1.46038e-20 2.59757461312712357 0.141086 0 0.0160375
1354 2 3 31.1018 -1345.50010137375602 1.45712e-20 2.59757461309915128 0.140834 0 0.0160395
1355 2 3 31.1018 -1342.50010137375625 1.45386e-20 2.59757461307117898 0.140582 0 0.0160415
1356 2 3 31.1018 -1339.50010137375671 1.4506e-20 2.59757461304320669 0.140331 0 0.0160435
1357 2 3 31.1018 -1336.50010137375693 1.44734e-20 2.5975746130152344 0.140079 0 0.0160454
1358 2 3 31.1018 -1333.50010137375716 1.44408e-20 2.59757461298726211 0.139827 0 0.0160474
1359 2 3 31.1018 -1330.50010137375762 1.44082e-20 2.59757461295928982 0.139575 0 0.0160494
1360 2 3 31.1018 -1327.50010137375784 1.43756e-20 2.59757461293131753 0.139323 0 0.0160513
1361 2 3 31.1018 -1324.5001013737583 1.4343e-20 2.59757461290334524 0.139072 0 0.0160533
1362 2 3 31.1018 -1321.50010137375853 1.43104e-20 2.59757461287537295 0.13882 0 0.0160553
1363 2 3 31.1018 -1318.50010137375875 1.42778e-20 2.59757461284740065 0.138568 0 0.0160572
1364 2 3 31.1018 -1315.50010137375921 1.42452e-20 2.59757461281942836 0.138316 0 0.0160592
1365 2 3 31.1018 -1312.50010137375943 1.42126e-20 2.59757461279145607 0.138064 0 0.0160611
1366 2 3 31.1018 -1309.50010137375989 1.418e-20 2.59757461276348378 0.137813 0 0.0160631
1367 2 3 31.1018 -1306.50010137376012 1.41474e-20 2.59757461273551149 0.137561 0 0.0160651
1368 2 3 31.1018 -1303.50010137376057 1.41148e-20 2.5975746127075392 0.137309 0 0.0160671
1369 2 3 31.1018 -1300.5001013737608 1.40822e-20 2.59757461267956691 0.137057 0 0.016069
1370 2 3 31.1018 -1297.50010137376103 1.40496e-20 2.59757461265159462 0.136805 0 0.016071
1371 2 3 31.1018 -1294.50010137376148 1.4017e-20 2.59757461262362233 0.136554 0 0.016073
1372 2 3 31.1018 -1291.50010137376171 1.39844e-20 2.59757461259565003 0.136302 0 0.0160749
1373 2 3 31.1018 -1288.50010137376216 1.39518e-20 2.59757461256767774 0.13605 0 0.0160769
1374 2 3 31.1018 -1285.50010137376239 1.39192e-20 2.59757461253970545 0.135798 0 0.0160789
1375 2 3 31.1018 -1282.50010137376262 1.38866e-20 2.59757461251173316 0.135547 0 0.0160808
1376 2 3 31.1018 -1279.50010137376307 1.3854e-20 2.59757461248376087 0.135295 0 0.0160828
1377 2 3 31.1018 -1276.5001013737633 1.38214e-20 2.59757461245578858 0.135043 0 0.0160848
1378 2 3 31.1018 -1273.50010137376375 1.37888e-20 2.59757461242781629 0.134791 0 0.0160867
1379 2 3 31.1018 -1270.50010137376398 1.37563e-20 2.597574612399844 0.134539 0 0.0160887
1380 2 3 31.1018 -1267.50010137376444 1.37237e-20 2.59757461237187171 0.134288 0 0.0160907
1381 2 3 31.1018 -1264.50010137376466 1.36911e-20 2.59757461234389941 0.134036 0 0.0160926
1382 2 3 31.1018 -1261.50010137376489 1.36585e-20 2.59757461231592712 0.133784 0 0.0160946
1383 2 3 31.1018 -1258.50010137376535 1.36259e-20 2.59757461228795483 0.133532 0 0.0160966
1384 2 3 31.1018 -1255.50010137376557 1.35933e-20 2.59757461225998254 0.133281 0 0.0160985
1385 2 3 31.1018 -1252.50010137376603 1.35607e-20 2.59757461223201025 0.133029 0 0.0161005
1386 2 3 31.1018 -1249.50010137376626 1.35281e-20 2.59757461220403796 0.132777 0 0.0161025
1387 2 3 31.1018 -1246.50010137376648 1.34955e-20 2.59757461217606567 0.132525 0 0.0161044
1388 2 3 31.1018 -1243.50010137376694 1.34629e-20 2.59757461214809338 0.132274 0 0.0161064
1389 2 3 31.1018 -1240.50010137376717 1.34303e-20 2.59757461212012108 0.132022 0 0.0161084
1390 2 3 31.1018 -1237.50010137376762 1.33977e-20 2.59757461209214879 0.13177 0 0.0161103
1391 2 3 31.1018 -1234.50010137376785 1.33651e-20 2.5975746120641765 0.131518 0 0.0161123
1392 2 3 31.1018 -1231.50010137376808 1.33325e-20 2.59757461203620421 0.131266 0 0.0161143
1393 2 3 31.1018 -1228.50010137376853 1.32999e-20 2.59757461200823192 0.131015 0 0.0161162
1394 2 3 31.1018 -1225.50010137376876 1.32673e-20 2.59757461198025963 0.130763 0 0.0161182
1395 2 3 31.1018 -1222.50010137376921 1.32347e-20 2.59757461195228734 0.130511 0 0.0161202
1396 2 3 31.1018 -1219.50010137376944 1.32021e-20 2.59757461192431505 0.130259 0 0.0161221
1397 2 3 31.1018 -1216.50010137376989 1.31695e-20 2.59757461189634276 0.130008 0 0.0161241
1398 2 3 31.1018 -1213.50010137377012 1.31369e-20 2.59757461186837046 0.129756 0 0.0161261
1399 2 3 31.1018 -1210.50010137377035 1.31043e-20 2.59757461184039817 0.129504 0 0.016128
1400 2 3 31.1018 -1207.5001013737708 1.30717e-20 2.59757461181242588 0.129252 0 0.01613
1401 2 3 31.1018 -1204.50010137377103 1.30391e-20 2.59757461178445359 0.129 0 0.016132
1402 2 3 31.1018 -1201.50010137377149 1.30065e-20 2.5975746117564813 0.128749 0 0.016134
1403 2 3 31.1018 -1198.50010137377171 1.29739e-20 2.59757461172850901 0.128497 0 0.0161359
1404 2 3 31.1018 -1195.50010137377194 1.29413e-20 2.59757461170053672 0.128245 0 0.0161379
1405 2 3 31.1018 -1192.5001013737724 1.29087e-20 2.59757461167256443 0.127993 0 0.0161398
1406 2 3 31.1018 -1189.50010137377262 1.28761e-20 2.59757461164459214 0.127741 0 0.0161418
1407 2 3 31.1018 -1186.50010137377308 1.28435e-20 2.59757461161661984 0.12749 0 0.0161438
1408 2 3 31.1018 -1183.5001013737733 1.28109e-20 2.59757461158864755 0.127238 0 0.0161457
1409 2 3 31.1018 -1180.50010137377353 1.27783e-20 2.59757461156067526 0.126986 0 0.0161477
1410 2 3 31.1018 -1177.50010137377399 1.27457e-20 2.59757461153270297 0.126734 0 0.0161497
1411 2 3 31.1018 -1174.50010137377421 1.27131e-20 2.59757461150473068 0.126482 0 0.0161516
1412 2 3 31.1018 -1171.50010137377467 1.26805e-20 2.59757461147675839 0.126231 0 0.0161536
1413 2 3 31.1018 -1168.5001013737749 1.26479e-20 2.5975746114487861 0.125979 0 0.0161556
1414 2 3 31.1018 -1165.50010137377535 1.26153e-20 2.59757461142081381 0.125727 0 0.0161576
1415 2 3 31.1018 -1162.50010137377558 1.25827e-20 2.59757461139284151 0.125475 0 0.0161595
1416 2 3 31.1018 -1159.50010137377581 1.25501e-20 2.59757461136486922 0.125224 0 0.0161615
1417 2 3 31.1018 -1156.50010137377626 1.25175e-20 2.59757461133689693 0.124972 0 0.0161635
1418 2 3 31.1018 -1153.50010137377649 1.24849e-20 2.59757461130892464 0.12472 0 0.0161654
1419 2 3 31.1018 -1150.50010137377694 1.24523e-20 2.59757461128095235 0.124468 0 0.0161674
1420 2 3 31.1018 -1147.50010137377717 1.24197e-20 2.59757461125298006 0.124216 0 0.0161694
1421 2 3 31.1018 -1144.5001013737774 1.23871e-20 2.59757461122500777 0.123965 0 0.0161713
1422 2 3 31.1018 -1141.50010137377785 1.23545e-20 2.59757461119703548 0.123713 0 0.0161733
1423 2 3 31.1018 -1138.50010137377808 1.23219e-20 2.59757461116906319 0.123461 0 0.0161752
1424 2 3 31.1018 -1135.50010137377853 1.22894e-20 2.59757461114109089 0.123209 0 0.0161772
1425 2 3 31.1018 -1132.50010137377876 1.22568e-20 2.5975746111131186 0.122958 0 0.0161792
1426 2 3 31.1018 -1129.50010137377899 1.22242e-20 2.59757461108514631 0.122706 0 0.0161811
1427 2 3 31.1018 -1126.50010137377944 1.21916e-20 2.59757461105717402 0.122454 0 0.0161831
1428 2 3 31.1018 -1123.50010137377967 1.2159e-20 2.59757461102920173 0.122202 0 0.0161851
1429 2 3 31.1018 -1120.50010137378013 1.21264e-20 2.59757461100122944 0.12195 0 0.0161871
1430 2 3 31.1018 -1117.50010137378035 1.20938e-20 2.59757461097325715 0.121699 0 0.016189
1431 2 3 31.1018 -1114.50010137378081 1.20612e-20 2.59757461094528486 0.121447 0 0.016191
1432 2 3 31.1018 -1111.50010137378104 1.20286e-20 2.59757461091731257 0.121195 0 0.016193
1433 2 3 31.1018 -1108.50010137378126 1.1996e-20 2.59757461088934027 0.120943 0 0.0161949
1434 2 3 31.1018 -1105.50010137378172 1.19634e-20 2.59757461086136798 0.120691 0 0.016197
1435 2 3 31.1018 -1102.50010137378194 1.19308e-20 2.59757461083339569 0.120439 0 0.016199
1436 2 3 31.1018 -1099.5001013737824 1.18982e-20 2.5975746108054234 0.120188 0 0.016201
1437 2 3 31.1018 -1096.50010137378263 1.18656e-20 2.59757461077745111 0.119936 0 0.016203
1438 2 3 31.1018 -1093.50010137378285 1.1833e-20 2.59757461074947882 0.119684 0 0.0162051
1439 2 3 31.1018 -1090.50010137378331 1.18004e-20 2.59757461072150653 0.119432 0 0.0162071
1440 2 3 31.1018 -1087.50010137378354 1.17678e-20 2.59757461069353424 0.11918 0 0.0162091
1441 2 3 31.1018 -1084.50010137378399 1.17352e-20 2.59757461066556194 0.118928 0 0.0162112
1442 2 3 31.1018 -1081.50010137378422 1.17026e-20 2.59757461063758965 0.118676 0 0.0162132
1443 2 3 31.1018 -1078.50010137378445 1.167e-20 2.59757461060961736 0.118424 0 0.0162152
1444 2 3 31.1018 -1075.5001013737849 1.16374e-20 2.59757461058164507 0.118172 0 0.0162173
1445 2 3 31.1018 -1072.50010137378513 1.16048e-20 2.59757461055367278 0.11792 0 0.0162193
1446 2 3 31.1018 -1069.50010137378558 1.15722e-20 2.59757461052570049 0.117669 0 0.0162213
1447 2 3 31.1018 -1066.50010137378581 1.15396e-20 2.5975746104977282 0.117417 0 0.0162234
1448 2 3 31.1018 -1063.50010137378626 1.1507e-20 2.59757461046975591 0.117165 0 0.0162254
1449 2 3 31.1018 -1060.50010137378649 1.14744e-20 2.59757461044178362 0.116913 0 0.0162274
1450 2 3 31.1018 -1057.50010137378672 1.14418e-20 2.59757461041381132 0.116661 0 0.0162294
1451 2 3 31.1018 -1054.50010137378717 1.14092e-20 2.59757461038583903 0.116409 0 0.0162315
1452 2 3 31.1018 -1051.5001013737874 1.13766e-20 2.59757461035786674 0.116157 0 0.0162335
1453 2 3 31.1018 -1048.50010137378786 1.1344e-20 2.59757461032989445 0.115905 0 0.0162356
1454 2 3 31.1018 -1045.50010137378808 1.13114e-20 2.59757461030192216 0.115653 0 0.0162376
1455 2 3 31.1018 -1042.50010137378831 1.12788e-20 2.59757461027394987 0.115402 0 0.0162396
1456 2 3 31.1018 -1039.50010137378877 1.12462e-20 2.59757461024597758 0.11515 0 0.0162417
1457 2 3 31.1018 -1036.50010137378899 1.12136e-20 2.59757461021800529 0.114898 0 0.0162437
1458 2 3 31.1018 -1033.50010137378945 1.1181e-20 2.597574610190033 0.114646 0 0.0162457
1459 2 3 31.1018 -1030.50010137378968 1.11484e-20 2.5975746101620607 0.114394 0 0.0162477
1460 2 3 31.1018 -1027.50010137379013 1.11158e-20 2.59757461013408841 0.114142 0 0.0162498
1461 2 3 31.1018 -1024.50010137379036 1.10832e-20 2.59757461010611612 0.11389 0 0.0162518
1462 2 3 31.1018 -1021.5001013737907 1.10506e-20 2.59757461007814383 0.113638 0 0.0162538
1463 2 3 31.1018 -1018.50010137379093 1.1018e-20 2.59757461005017154 0.113386 0 0.0162559
1464 2 3 31.1018 -1015.50010137379127 1.09854e-20 2.59757461002219925 0.113135 0 0.0162579
339 1 3 31.1018 -1011 0 0 0 0 0
340 1 3 31.1018 -1008 0 0 0 0 0
341 1 3 31.1018 -1005 0 0 0 0 0
342 1 3 31.1018 -1002 0 0 0 0 0
343 1 3 31.1018 -999 0 0 0 0 0
344 1 3 31.1018 -996 0 0 0 0 0
345 1 3 31.1018 -993 0 0 0 0 0
346 1 3 31.1018 -990 0 0 0 0 0
347 1 3 31.1018 -987 0 0 0 0 0
348 1 3 31.1018 -984 0 0 0 0 0
349 1 3 31.1018 -981 0 0 0 0 0
350 1 3 31.1018 -978 0 0 0 0 0
351 1 3 31.1018 -975 0 0 0 0 0
352 1 3 31.1018 -972 0 0 0 0 0
353 1 3 31.1018 -969 0 0 0 0 0
354 1 3 31.1018 -966 0 0 0 0 0
355 1 3 31.1018 -963 0 0 0 0 0
356 1 3 31.1018 -960 0 0 0 0 0
357 1 3 31.1018 -957 0 0 0 0 0
358 1 3 31.1018 -954 0 0 0 0 0
359 1 3 31.1018 -951 0 0 0 0 0
360 1 3 31.1018 -948 0 0 0 0 0
361 1 3 31.1018 -945 0 0 0 0 0
362 1 3 31.1018 -942 0 0 0 0 0
363 1 3 31.1018 -939 0 0 0 0 0
364 1 3 31.1018 -936 0 0 0 0 0
365 1 3 31.1018 -933 0 0 0 0 0
366 1 3 31.1018 -930 0 0 0 0 0
367 1 3 31.1018 -927 0 0 0 0 0
368 1 3 31.1018 -924 0 0 0 0 0
369 1 3 31.1018 -921 0 0 0 0 0
370 1 3 31.1018 -918 0 0 0 0 0
371 1 3 31.1018 -915 0 0 0 0 0
372 1 3 31.1018 -912 0 0 0 0 0
373 1 3 31.1018 -909 0 0 0 0 0
374 1 3 31.1018 -906 0 0 0 0 0
375 1 3 31.1018 -903 0 0 0 0 0
376 1 3 31.1018 -900 0 0 0 0 0
377 1 3 31.1018 -897 0 0 0 0 0
378 1 3 31.1018 -894 0 0 0 0 0
379 1 3 31.1018 -891 0 0 0 0 0
380 1 3 31.1018 -888 0 0 0 0 0
381 1 3 31.1018 -885 0 0 0 0 0
382 1 3 31.1018 -882 0 0 0 0 0
383 1 3 31.1018 -879 0 0 0 0 0
384 1 3 31.1018 -876 0 0 0 0 0
385 1 3 31.1018 -873 0 0 0 0 0
386 1 3 31.1018 -870 0 0 0 0 0
387 1 3 31.1018 -867 0 0 0 0 0
388 1 3 31.1018 -864 0 0 0 0 0
389 1 3 31.1018 -861 0 0 0 0 0
390 1 3 31.1018 -858 0 0 0 0 0
391 1 3 31.1018 -855 0 0 0 0 0
392 1 3 31.1018 -852 0 0 0 0 0
393 1 3 31.1018 -849 0 0 0 0 0
394 1 3 31.1018 -846 0 0 0 0 0
395 1 3 31.1018 -843 0 0 0 0 0
396 1 3 31.1018 -840 0 0 0 0 0
397 1 3 31.1018 -837 0 0 0 0 0
398 1 3 31.1018 -834 0 0 0 0 0
399 1 3 31.1018 -831 0 0 0 0 0
400 1 3 31.1018 -828 0 0 0 0 0
401 1 3 31.1018 -825 0 0 0 0 0
402 1 3 31.1018 -822 0 0 0 0 0
403 1 3 31.1018 -819 0 0 0 0 0
404 1 3 31.1018 -816 0 0 0 0 0
405 1 3 31.1018 -813 0 0 0 0 0
406 1 3 31.1018 -810 0 0 0 0 0
407 1 3 31.1018 -807 0 0 0 0 0
408 1 3 31.1018 -804 0 0 0 0 0
409 1 3 31.1018 -801 0 0 0 0 0
410 1 3 31.1018 -798 0 0 0 0 0
411 1 3 31.1018 -795 0 0 0 0 0
412 1 3 31.1018 -792 0 0 0 0 0
413 1 3 31.1018 -789 0 0 0 0 0
414 1 3 31.1018 -786 0 0 0 0 0
415 1 3 31.1018 -783 0 0 0 0 0
416 1 3 31.1018 -780 0 0 0 0 0
417 1 3 31.1018 -777 0 0 0 0 0
418 1 3 31.1018 -774 0 0 0 0 0
419 1 3 31.1018 -771 0 0 0 0 0
420 1 3 31.1018 -768 0 0 0 0 0
421 1 3 31.1018 -765 0 0 0 0 0
422 1 3 31.1018 -762 0 0 0 0 0
423 1 3 31.1018 -759 0 0 0 0 0
424 1 3 31.1018 -756 0 0 0 0 0
425 1 3 31.1018 -753 0 0 0 0 0
426 1 3 31.1018 -750 0 0 0 0 0
427 1 3 31.1018 -747 0 0 0 0 0
428 1 3 31.1018 -744 0 0 0 0 0
429 1 3 31.1018 -741 0 0 0 0 0
430 1 3 31.1018 -738 0 0 0 0 0
431 1 3 31.1018 -735 0 0 0 0 0
432 1 3 31.1018 -732 0 0 0 0 0
433 1 3 31.1018 -729 0 0 0 0 0
434 1 3 31.1018 -726 0 0 0 0 0
435 1 3 31.1018 -723 0 0 0 0 0
436 1 3 31.1018 -720 0 0 0 0 0
437 1 3 31.1018 -717 0 0 0 0 0
438 1 3 31.1018 -714 0 0 0 0 0
439 1 3 31.1018 -711 0 0 0 0 0
440 1 3 31.1018 -708 0 0 0 0 0
441 1 3 31.1018 -705 0 0 0 0 0
442 1 3 31.1018 -702 0 0 0 0 0
443 1 3 31.1018 -699 0 0 0 0 0
444 1 3 31.1018 -696 0 0 0 0 0
445 1 3 31.1018 -693 0 0 0 0 0
446 1 3 31.1018 -690 0 0 0 0 0
447 1 3 31.1018 -687 0 0 0 0 0
448 1 3 31.1018 -684 0 0 0 0 0
449 1 3 31.1018 -681 0 0 0 0 0
450 1 3 31.1018 -678 0 0 0 0 0
451 1 3 31.1018 -675 0 0 0 0 0
452 1 3 31.1018 -672 0 0 0 0 0
453 1 3 31.1018 -669 0 0 0 0 0
454 1 3 31.1018 -666 0 0 0 0 0
455 1 3 31.1018 -663 0 0 0 0 0
456 1 3 31.1018 -660 0 0 0 0 0
457 1 3 31.1018 -657 0 0 0 0 0
458 1 3 31.1018 -654 0 0 0 0 0
459 1 3 31.1018 -651 0 0 0 0 0
460 1 3 31.1018 -648 0 0 0 0 0
461 1 3 31.1018 -645 0 0 0 0 0
462 1 3 31.1018 -642 0 0 0 0 0
463 1 3 31.1018 -639 0 0 0 0 0
464 1 3 31.1018 -636 0 0 0 0 0
465 1 3 31.1018 -633 0 0 0 0 0
466 1 3 31.1018 -630 0 0 0 0 0
467 1 3 31.1018 -627 0 0 0 0 0
468 1 3 31.1018 -624 0 0 0 0 0
469 1 3 31.1018 -621 0 0 0 0 0
470 1 3 31.1018 -618 0 0 0 0 0
471 1 3 31.1018 -615 0 0 0 0 0
472 1 3 31.1018 -612 0 0 0 0 0
473 1 3 31.1018 -609 0 0 0 0 0
474 1 3 31.1018 -606 0 0 0 0 0
475 1 3 31.1018 -603 0 0 0 0 0
476 1 3 31.1018 -600 0 0 0 0 0
477 1 3 31.1018 -597 0 0 0 0 0
478 1 3 31.1018 -594 0 0 0 0 0
479 1 3 31.1018 -591 0 0 0 0 0
480 1 3 31.1018 -588 0 0 0 0 0
481 1 3 31.1018 -585 0 0 0 0 0
482 1 3 31.1018 -582 0 0 0 0 0
483 1 3 31.1018 -579 0 0 0 0 0
484 1 3 31.1018 -576 0 0 0 0 0
485 1 3 31.1018 -573 0 0 0 0 0
486 1 3 31.1018 -570 0 0 0 0 0
487 1 3 31.1018 -567 0 0 0 0 0
488 1 3 31.1018 -564 0 0 0 0 0
489 1 3 31.1018 -561 0 0 0 0 0
490 1 3 31.1018 -558 0 0 0 0 0
491 1 3 31.1018 -555 0 0 0 0 0
492 1 3 31.1018 -552 0 0 0 0 0
493 1 3 31.1018 -549 0 0 0 0 0
494 1 3 31.1018 -546 0 0 0 0 0
495 1 3 31.1018 -543 0 0 0 0 0
496 1 3 31.1018 -540 0 0 0 0 0
497 1 3 31.1018 -537 0 0 0 0 0
498 1 3 31.1018 -534 0 0 0 0 0
499 1 3 31.1018 -531 0 0 0 0 0
500 1 3 31.1018 -528 0 0 0 0 0
501 1 3 31.1018 -525 0 0 0 0 0
502 1 3 31.1018 -522 0 0 0 0 0
503 1 3 31.1018 -519 0 0 0 0 0
504 1 3 31.1018 -516 0 0 0 0 0
505 1 3 31.1018 -513 0 0 0 0 0
506 1 3 31.1018 -510 0 0 0 0 0
507 1 3 31.1018 -507 0 0 0 0 0
508 1 3 31.1018 -504 0 0 0 0 0
509 1 3 31.1018 -501 0 0 0 0 0
510 1 3 31.1018 -498 0 0 0 0 0
511 1 3 31.1018 -495 0 0 0 0 0
512 1 3 31.1018 -492 0 0 0 0 0
513 1 3 31.1018 -489 0 0 0 0 0
514 1 3 31.1018 -486 0 0 0 0 0
515 1 3 31.1018 -483 0 0 0 0 0
516 1 3 31.1018 -480 0 0 0 0 0
517 1 3 31.1018 -477 0 0 0 0 0
518 1 3 31.1018 -474 0 0 0 0 0
519 1 3 31.1018 -471 0 0 0 0 0
520 1 3 31.1018 -468 0 0 0 0 0
521 1 3 31.1018 -465 0 0 0 0 0
522 1 3 31.1018 -462 0 0 0 0 0
523 1 3 31.1018 -459 0 0 0 0 0
524 1 3 31.1018 -456 0 0 0 0 0
525 1 3 31.1018 -453 0 0 0 0 0
526 1 3 31.1018 -450 0 0 0 0 0
527 1 3 31.1018 -447 0 0 0 0 0
528 1 3 31.1018 -444 0 0 0 0 0
529 1 3 31.1018 -441 0 0 0 0 0
530 1 3 31.1018 -438 0 0 0 0 0
531 1 3 31.1018 -435 0 0 0 0 0
532 1 3 31.1018 -432 0 0 0 0 0
533 1 3 31.1018 -429 0 0 0 0 0
534 1 3 31.1018 -426 0 0 0 0 0
535 1 3 31.1018 -423 0 0 0 0 0
536 1 3 31.1018 -420 0 0 0 0 0
537 1 3 31.1018 -417 0 0 0 0 0
538 1 3 31.1018 -414 0 0 0 0 0
539 1 3 31.1018 -411 0 0 0 0 0
540 1 3 31.1018 -408 0 0 0 0 0
541 1 3 31.1018 -405 0 0 0 0 0
542 1 3 31.1018 -402 0 0 0 0 0
543 1 3 31.1018 -399 0 0 0 0 0
544 1 3 31.1018 -396 0 0 0 0 0
545 1 3 31.1018 -393 0 0 0 0 0
546 1 3 31.1018 -390 0 0 0 0 0
547 1 3 31.1018 -387 0 0 0 0 0
548 1 3 31.1018 -384 0 0 0 0 0
549 1 3 31.1018 -381 0 0 0 0 0
550 1 3 31.1018 -378 0 0 0 0 0
551 1 3 31.1018 -375 0 0 0 0 0
552 1 3 31.1018 -372 0 0 0 0 0
553 1 3 31.1018 -369 0 0 0 0 0
554 1 3 31.1018 -366 0 0 0 0 0
555 1 3 31.1018 -363 0 0 0 0 0
556 1 3 31.1018 -360 0 0 0 0 0
557 1 3 31.1018 -357 0 0 0 0 0
558 1 3 31.1018 -354 0 0 0 0 0
559 1 3 31.1018 -351 0 0 0 0 0
560 1 3 31.1018 -348 0 0 0 0 0
561 1 3 31.1018 -345 0 0 0 0 0
562 1 3 31.1018 -342 0 0 0 0 0
563 1 3 31.1018 -339 0 0 0 0 0
564 1 3 31.1018 -336 0 0 0 0 0
565 1 3 31.1018 -333 0 0 0 0 0
566 1 3 31.1018 -330 0 0 0 0 0
567 1 3 31.1018 -327 0 0 0 0 0
568 1 3 31.1018 -324 0 0 0 0 0
569 1 3 31.1018 -321 0 0 0 0 0
570 1 3 31.1018 -318 0 0 0 0 0
571 1 3 31.1018 -315 0 0 0 0 0
572 1 3 31.1018 -312 0 0 0 0 0
573 1 3 31.1018 -309 0 0 0 0 0
574 1 3 31.1018 -306 0 0 0 0 0
575 1 3 31.1018 -303 0 0 0 0 0
576 1 3 31.1018 -300 0 0 0 0 0
577 1 3 31.1018 -297 0 0 0 0 0
578 1 3 31.1018 -294 0 0 0 0 0
579 1 3 31.1018 -291 0 0 0 0 0
580 1 3 31.1018 -288 0 0 0 0 0
581 1 3 31.1018 -285 0 0 0 0 0
582 1 3 31.1018 -282 0 0 0 0 0
583 1 3 31.1018 -279 0 0 0 0 0
584 1 3 31.1018 -276 0 0 0 0 0
585 1 3 31.1018 -273 0 0 0 0 0
586 1 3 31.1018 -270 0 0 0 0 0
587 1 3 31.1018 -267 0 0 0 0 0
588 1 3 31.1018 -264 0 0 0 0 0
589 1 3 31.1018 -261 0 0 0 0 0
590 1 3 31.1018 -258 0 0 0 0 0
591 1 3 31.1018 -255 0 0 0 0 0
592 1 3 31.1018 -252 0 0 0 0 0
593 1 3 31.1018 -249 0 0 0 0 0
594 1 3 31.1018 -246 0 0 0 0 0
595 1 3 31.1018 -243 0 0 0 0 0
596 1 3 31.1018 -240 0 0 0 0 0
597 1 3 31.1018 -237 0 0 0 0 0
598 1 3 31.1018 -234 0 0 0 0 0
599 1 3 31.1018 -231 0 0 0 0 0
600 1 3 31.1018 -228 0 0 0 0 0
601 1 3 31.1018 -225 0 0 0 0 0
602 1 3 31.1018 -222 0 0 0 0 0
603 1 3 31.1018 -219 0 0 0 0 0
604 1 3 31.1018 -216 0 0 0 0 0
605 1 3 31.1018 -213 0 0 0 0 0
606 1 3 31.1018 -210 0 0 0 0 0
607 1 3 31.1018 -207 0 0 0 0 0
608 1 3 31.1018 -204 0 0 0 0 0
609 1 3 31.1018 -201 0 0 0 0 0
610 1 3 31.1018 -198 0 0 0 0 0
611 1 3 31.1018 -195 0 0 0 0 0
612 1 3 31.1018 -192 0 0 0 0 0
613 1 3 31.1018 -189 0 0 0 0 0
614 1 3 31.1018 -186 0 0 0 0 0
615 1 3 31.1018 -183 0 0 0 0 0
616 1 3 31.1018 -180 0 0 0 0 0
617 1 3 31.1018 -177 0 0 0 0 0
618 1 3 31.1018 -174 0 0 0 0 0
619 1 3 31.1018 -171 0 0 0 0 0