ITEM: TIMESTEP
3800000
ITEM: NUMBER OF ATOMS
3251
ITEM: BOX BOUNDS pp pp pp
-2.9250000000000000e+03 2.9250000000000000e+03
-1.0000000000000000e+02 1.0000000000000000e+02
-1.0000000000000000e+02 1.0000000000000000e+02
ITEM: ATOMS id type diameter mass xu yu zu fx fy fz
1 1 3 31.1018 -2925 0 0 0 0 0
2 1 3 31.1018 -2922 0 0 0 0 0
3 1 3 31.1018 -2919 0 0 0 0 0
4 1 3 31.1018 -2916 0 0 0 0 0
5 1 3 31.1018 -2913 0 0 0 0 0
6 1 3 31.1018 -2910 0 0 0 0 0
7 1 3 31.1018 -2907 0 0 0 0 0
8 1 3 31.1018 -2904 0 0 0 0 0
9 1 3 31.1018 -2901 0 0 0 0 0
10 1 3 31.1018 -2898 0 0 0 0 0
11 1 3 31.1018 -2895 0 0 0 0 0
12 1 3 31.1018 -2892 0 0 0 0 0
13 1 3 31.1018 -2889 0 0 0 0 0
14 1 3 31.1018 -2886 0 0 0 0 0
15 1 3 31.1018 -2883 0 0 0 0 0
16 1 3 31.1018 -2880 0 0 0 0 0
17 1 3 31.1018 -2877 0 0 0 0 0
18 1 3 31.1018 -2874 0 0 0 0 0
19 1 3 31.1018 -2871 0 0 0 0 0
20 1 3 31.1018 -2868 0 0 0 0 0
21 1 3 31.1018 -2865 0 0 0 0 0
22 1 3 31.1018 -2862 0 0 0 0 0
23 1 3 31.1018 -2859 0 0 0 0 0
24 1 3 31.1018 -2856 0 0 0 0 0
25 1 3 31.1018 -2853 0 0 0 0 0
26 1 3 31.1018 -2850 0 0 0 0 0
27 1 3 31.1018 -2847 0 0 0 0 0
28 1 3 31.1018 -2844 0 0 0 0 0
29 1 3 31.1018 -2841 0 0 0 0 0
30 1 3 31.1018 -2838 0 0 0 0 0
31 1 3 31.1018 -2835 0 0 0 0 0
32 1 3 31.1018 -2832 0 0 0 0 0
33 1 3 31.1018 -2829 0 0 0 0 0
34 1 3 31.1018 -2826 0 0 0 0 0
35 1 3 31.1018 -2823 0 0 0 0 0
36 1 3 31.1018 -2820 0 0 0 0 0
37 1 3 31.1018 -2817 0 0 0 0 0
38 1 3 31.1018 -2814 0 0 0 0 0
39 1 3 31.1018 -2811 0 0 0 0 0
40 1 3 31.1018 -2808 0 0 0 0 0
41 1 3 31.1018 -2805 0 0 0 0 0
42 1 3 31.1018 -2802 0 0 0 0 0
43 1 3 31.1018 -2799 0 0 0 0 0
44 1 3 31.1018 -2796 0 0 0 0 0
45 1 3 31.1018 -2793 0 0 0 0 0
46 1 3 31.1018 -2790 0 0 0 0 0
47 1 3 31.1018 -2787 0 0 0 0 0
48 1 3 31.1018 -2784 0 0 0 0 0
49 1 3 31.1018 -2781 0 0 0 0 0
50 1 3 31.1018 -2778 0 0 0 0 0
51 1 3 31.1018 -2775 0 0 0 0 0
52 1 3 31.1018 -2772 0 0 0 0 0
53 1 3 31.1018 -2769 0 0 0 0 0
54 1 3 31.1018 -2766 0 0 0 0 0
55 1 3 31.1018 -2763 0 0 0 0 0
56 1 3 31.1018 -2760 0 0 0 0 0
57 1 3 31.1018 -2757 0 0 0 0 0
58 1 3 31.1018 -2754 0 0 0 0 0
59 1 3 31.1018 -2751 0 0 0 0 0
60 1 3 31.1018 -2748 0 0 0 0 0
61 1 3 31.1018 -2745 0 0 0 0 0
62 1 3 31.1018 -2742 0 0 0 0 0
63 1 3 31.1018 -2739 0 0 0 0 0
64 1 3 31.1018 -2736 0 0 0 0 0
65 1 3 31.1018 -2733 0 0 0 0 0
66 1 3 31.1018 -2730 0 0 0 0 0
67 1 3 31.1018 -2727 0 0 0 0 0
68 1 3 31.1018 -2724 0 0 0 0 0
69 1 3 31.1018 -2721 0 0 0 0 0
70 1 3 31.1018 -2718 0 0 0 0 0
71 1 3 31.1018 -2715 0 0 0 0 0
72 1 3 31.1018 -2712 0 0 0 0 0
73 1 3 31.1018 -2709 0 0 0 0 0
74 1 3 31.1018 -2706 0 0 0 0 0
75 1 3 31.1018 -2703 0 0 0 0 0
76 1 3 31.1018 -2700 0 0 0 0 0
77 1 3 31.1018 -2697 0 0 0 0 0
78 1 3 31.1018 -2694 0 0 0 0 0
79 1 3 31.1018 -2691 0 0 0 0 0
80 1 3 31.1018 -2688 0 0 0 0 0
81 1 3 31.1018 -2685 0 0 0 0 0
82 1 3 31.1018 -2682 0 0 0 0 0
83 1 3 31.1018 -2679 0 0 0 0 0
84 1 3 31.1018 -2676 0 0 0 0 0
85 1 3 31.1018 -2673 0 0 0 0 0
86 1 3 31.1018 -2670 0 0 0 0 0
87 1 3 31.1018 -2667 0 0 0 0 0
88 1 3 31.1018 -2664 0 0 0 0 0
89 1 3 31.1018 -2661 0 0 0 0 0
90 1 3 31.1018 -2658 0 0 0 0 0
91 1 3 31.1018 -2655 0 0 0 0 0
92 1 3 31.1018 -2652 0 0 0 0 0
93 1 3 31.1018 -2649 0 0 0 0 0
94 1 3 31.1018 -2646 0 0 0 0 0
95 1 3 31.1018 -2643 0 0 0 0 0
96 1 3 31.1018 -2640 0 0 0 0 0
97 1 3 31.1018 -2637 0 0 0 0 0
98 1 3 31.1018 -2634 0 0 0 0 0
99 1 3 31.1018 -2631 0 0 0 0 0
100 1 3 31.1018 -2628 0 0 0 0 0
101 1 3 31.1018 -2625 0 0 0 0 0
102 1 3 31.1018 -2622 0 0 0 0 0
103 1 3 31.1018 -2619 0 0 0 0 0
104 1 3 31.1018 -2616 0 0 0 0 0
105 1 3 31.1018 -2613 0 0 0 0 0
106 1 3 31.1018 -2610 0 0 0 0 0
107 1 3 31.1018 -2607 0 0 0 0 0
108 1 3 31.1018 -2604 0 0 0 0 0
109 1 3 31.1018 -2601 0 0 0 0 0
110 1 3 31.1018 -2598 0 0 0 0 0
111 1 3 31.1018 -2595 0 0 0 0 0
112 1 3 31.1018 -2592 0 0 0 0 0
113 1 3 31.1018 -2589 0 0 0 0 0
114 1 3 31.1018 -2586 0 0 0 0 0
115 1 3 31.1018 -2583 0 0 0 0 0
116 1 3 31.1018 -2580 0 0 0 0 0
117 1 3 31.1018 -2577 0 0 0 0 0
118 1 3 31.1018 -2574 0 0 0 0 0
119 1 3 31.1018 -2571 0 0 0 0 0
120 1 3 31.1018 -2568 0 0 0 0 0
121 1 3 31.1018 -2565 0 0 0 0 0
122 1 3 31.1018 -2562 0 0 0 0 0
123 1 3 31.1018 -2559 0 0 0 0 0
124 1 3 31.1018 -2556 0 0 0 0 0
125 1 3 31.1018 -2553 0 0 0 0 0
126 1 3 31.1018 -2550 0 0 0 0 0
127 1 3 31.1018 -2547 0 0 0 0 0
128 1 3 31.1018 -2544 0 0 0 0 0
129 1 3 31.1018 -2541 0 0 0 0 0
130 1 3 31.1018 -2538 0 0 0 0 0
131 1 3 31.1018 -2535 0 0 0 0 0
132 1 3 31.1018 -2532 0 0 0 0 0
133 1 3 31.1018 -2529 0 0 0 0 0
134 1 3 31.1018 -2526 0 0 0 0 0
135 1 3 31.1018 -2523 0 0 0 0 0
136 1 3 31.1018 -2520 0 0 0 0 0
137 1 3 31.1018 -2517 0 0 0 0 0
138 1 3 31.1018 -2514 0 0 0 0 0
139 1 3 31.1018 -2511 0 0 0 0 0
140 1 3 31.1018 -2508 0 0 0 0 0
141 1 3 31.1018 -2505 0 0 0 0 0
142 1 3 31.1018 -2502 0 0 0 0 0
143 1 3 31.1018 -2499 0 0 0 0 0
144 1 3 31.1018 -2496 0 0 0 0 0
145 1 3 31.1018 -2493 0 0 0 0 0
146 1 3 31.1018 -2490 0 0 0 0 0
147 1 3 31.1018 -2487 0 0 0 0 0
148 1 3 31.1018 -2484 0 0 0 0 0
149 1 3 31.1018 -2481 0 0 0 0 0
150 1 3 31.1018 -2478 0 0 0 0 0
151 1 3 31.1018 -2475 0 0 0 0 0
152 1 3 31.1018 -2472 0 0 0 0 0
153 1 3 31.1018 -2469 0 0 0 0 0
154 1 3 31.1018 -2466 0 0 0 0 0
155 1 3 31.1018 -2463 0 0 0 0 0
156 1 3 31.1018 -2460 0 0 0 0 0
157 1 3 31.1018 -2457 0 0 0 0 0
158 1 3 31.1018 -2454 0 0 0 0 0
159 1 3 31.1018 -2451 0 0 0 0 0
160 1 3 31.1018 -2448 0 0 0 0 0
161 1 3 31.1018 -2445 0 0 0 0 0
162 1 3 31.1018 -2442 0 0 0 0 0
163 1 3 31.1018 -2439 0 0 0 0 0
164 1 3 31.1018 -2436 0 0 0 0 0
165 1 3 31.1018 -2433 0 0 0 0 0
166 1 3 31.1018 -2430 0 0 0 0 0
167 1 3 31.1018 -2427 0 0 0 0 0
168 1 3 31.1018 -2424 0 0 0 0 0
169 1 3 31.1018 -2421 0 0 0 0 0
170 1 3 31.1018 -2418 0 0 0 0 0
171 1 3 31.1018 -2415 0 0 0 0 0
172 1 3 31.1018 -2412 0 0 0 0 0
173 1 3 31.1018 -2409 0 0 0 0 0
174 1 3 31.1018 -2406 0 0 0 0 0
175 1 3 31.1018 -2403 0 0 0 0 0
176 1 3 31.1018 -2400 0 0 0 0 0
177 1 3 31.1018 -2397 0 0 0 0 0
178 1 3 31.1018 -2394 0 0 0 0 0
179 1 3 31.1018 -2391 0 0 0 0 0
180 1 3 31.1018 -2388 0 0 0 0 0
181 1 3 31.1018 -2385 0 0 0 0 0
182 1 3 31.1018 -2382 0 0 0 0 0
183 1 3 31.1018 -2379 0 0 0 0 0
184 1 3 31.1018 -2376 0 0 0 0 0
185 1 3 31.1018 -2373 0 0 0 0 0
186 1 3 31.1018 -2370 0 0 0 0 0
187 1 3 31.1018 -2367 0 0 0 0 0
188 1 3 31.1018 -2364 0 0 0 0 0
189 1 3 31.1018 -2361 0 0 0 0 0
190 1 3 31.1018 -2358 0 0 0 0 0
191 1 3 31.1018 -2355 0 0 0 0 0
192 1 3 31.1018 -2352 0 0 0 0 0
193 1 3 31.1018 -2349 0 0 0 0 0
194 1 3 31.1018 -2346 0 0 0 0 0
195 1 3 31.1018 -2343 0 0 0 0 0
196 1 3 31.1018 -2340 0 0 0 0 0
197 1 3 31.1018 -2337 0 0 0 0 0
198 1 3 31.1018 -2334 0 0 0 0 0
199 1 3 31.1018 -2331 0 0 0 0 0
200 1 3 31.1018 -2328 0 0 0 0 0
201 1 3 31.1018 -2325 0 0 0 0 0
202 1 3 31.1018 -2322 0 0 0 0 0
203 1 3 31.1018 -2319 0 0 0 0 0
204 1 3 31.1018 -2316 0 0 0 0 0
205 1 3 31.1018 -2313 0 0 0 0 0
206 1 3 31.1018 -2310 0 0 0 0 0
207 1 3 31.1018 -2307 0 0 0 0 0
208 1 3 31.1018 -2304 0 0 0 0 0
209 1 3 31.1018 -2301 0 0 0 0 0
210 1 3 31.1018 -2298 0 0 0 0 0
211 1 3 31.1018 -2295 0 0 0 0 0
212 1 3 31.1018 -2292 0 0 0 0 0
213 1 3 31.1018 -2289 0 0 0 0 0
214 1 3 31.1018 -2286 0 0 0 0 0
215 1 3 31.1018 -2283 0 0 0 0 0
216 1 3 31.1018 -2280 0 0 0 0 0
217 1 3 31.1018 -2277 0 0 0 0 0
218 1 3 31.1018 -2274 0 0 0 0 0
219 1 3 31.1018 -2271 0 0 0 0 0
220 1 3 31.1018 -2268 0 0 0 0 0
221 1 3 31.1018 -2265 0 0 0 0 0
222 1 3 31.1018 -2262 0 0 0 0 0
223 1 3 31.1018 -2259 0 0 0 0 0
224 1 3 31.1018 -2256 0 0 0 0 0
225 1 3 31.1018 -2253 0 0 0 0 0
226 1 3 31.1018 -2250 0 0 0 0 0
227 1 3 31.1018 -2247 0 0 0 0 0
228 1 3 31.1018 -2244 0 0 0 0 0
229 1 3 31.1018 -2241 0 0 0 0 0
230 1 3 31.1018 -2238 0 0 0 0 0
231 1 3 31.1018 -2235 0 0 0 0 0
232 1 3 31.1018 -2232 0 0 0 0 0
233 1 3 31.1018 -2229 0 0 0 0 0
234 1 3 31.1018 -2226 0 0 0 0 0
235 1 3 31.1018 -2223 0 0 0 0 0
236 1 3 31.1018 -2220 0 0 0 0 0
237 1 3 31.1018 -2217 0 0 0 0 0
238 1 3 31.1018 -2214 0 0 0 0 0
239 1 3 31.1018 -2211 0 0 0 0 0
240 1 3 31.1018 -2208 0 0 0 0 0
241 1 3 31.1018 -2205 0 0 0 0 0
242 1 3 31.1018 -2202 0 0 0 0 0
243 1 3 31.1018 -2199 0 0 0 0 0
244 1 3 31.1018 -2196 0 0 0 0 0
245 1 3 31.1018 -2193 0 0 0 0 0
246 1 3 31.1018 -2190 0 0 0 0 0
247 1 3 31.1018 -2187 0 0 0 0 0
248 1 3 31.1018 -2184 0 0 0 0 0
249 1 3 31.1018 -2181 0 0 0 0 0
250 1 3 31.1018 -2178 0 0 0 0 0
251 1 3 31.1018 -2175 0 0 0 0 0
252 1 3 31.1018 -2172 0 0 0 0 0
253 1 3 31.1018 -2169 0 0 0 0 0
254 1 3 31.1018 -2166 0 0 0 0 0
255 1 3 31.1018 -2163 0 0 0 0 0
256 1 3 31.1018 -2160 0 0 0 0 0
257 1 3 31.1018 -2157 0 0 0 0 0
258 1 3 31.1018 -2154 0 0 0 0 0
259 1 3 31.1018 -2151 0 0 0 0 0
260 1 3 31.1018 -2148 0 0 0 0 0
261 1 3 31.1018 -2145 0 0 0 0 0
262 1 3 31.1018 -2142 0 0 0 0 0
263 1 3 31.1018 -2139 0 0 0 0 0
264 1 3 31.1018 -2136 0 0 0 0 0
265 1 3 31.1018 -2133 0 0 0 0 0
266 1 3 31.1018 -2130 0 0 0 0 0
267 1 3 31.1018 -2127 0 0 0 0 0
268 1 3 31.1018 -2124 0 0 0 0 0
269 1 3 31.1018 -2121 0 0 0 0 0
270 1 3 31.1018 -2118 0 0 0 0 0
271 1 3 31.1018 -2115 0 0 0 0 0
272 1 3 31.1018 -2112 0 0 0 0 0
273 1 3 31.1018 -2109 0 0 0 0 0
274 1 3 31.1018 -2106 0 0 0 0 0
275 1 3 31.1018 -2103 0 0 0 0 0
276 1 3 31.1018 -2100 0 0 0 0 0
277 1 3 31.1018 -2097 0 0 0 0 0
278 1 3 31.1018 -2094 0 0 0 0 0
279 1 3 31.1018 -2091 0 0 0 0 0
280 1 3 31.1018 -2088 0 0 0 0 0
281 1 3 31.1018 -2085 0 0 0 0 0
282 1 3 31.1018 -2082 0 0 0 0 0
283 1 3 31.1018 -2079 0 0 0 0 0
284 1 3 31.1018 -2076 0 0 0 0 0
285 1 3 31.1018 -2073 0 0 0 0 0
286 1 3 31.1018 -2070 0 0 0 0 0
287 1 3 31.1018 -2067 0 0 0 0 0
288 1 3 31.1018 -2064 0 0 0 0 0
289 1 3 31.1018 -2061 0 0 0 0 0
290 1 3 31.1018 -2058 0 0 0 0 0
291 1 3 31.1018 -2055 0 0 0 0 0
292 1 3 31.1018 -2052 0 0 0 0 0
293 1 3 31.1018 -2049 0 0 0 0 0
294 1 3 31.1018 -2046 0 0 0 0 0
295 1 3 31.1018 -2043 0 0 0 0 0
296 1 3 31.1018 -2040 0 0 0 0 0
297 1 3 31.1018 -2037 0 0 0 0 0
298 1 3 31.1018 -2034 0 0 0 0 0
299 1 3 31.1018 -2031 0 0 0 0 0
300 1 3 31.1018 -2028 0 0 0 0 0
301 1 3 31.1018 -2025 0 0 0 0 0
302 1 3 31.1018 -2022 0 0 0 0 0
303 1 3 31.1018 -2019 0 0 0 0 0
304 1 3 31.1018 -2016 0 0 0 0 0
305 1 3 31.1018 -2013 0 0 0 0 0
306 1 3 31.1018 -2010 0 0 0 0 0
307 1 3 31.1018 -2007 0 0 0 0 0
308 1 3 31.1018 -2004 0 0 0 0 0
309 1 3 31.1018 -2001 0 0 0 0 0
310 1 3 31.1018 -1998 0 0 0 0 0
311 1 3 31.1018 -1995 0 0 0 0 0
312 1 3 31.1018 -1992 0 0 0 0 0
313 1 3 31.1018 -1989 0 0 0 0 0
314 1 3 31.1018 -1986 0 0 0 0 0
315 1 3 31.1018 -1983 0 0 0 0 0
316 1 3 31.1018 -1980 0 0 0 0 0
317 1 3 31.1018 -1977 0 0 0 0 0
318 1 3 31.1018 -1974 0 0 0 0 0
319 1 3 31.1018 -1971 0 0 0 0 0
320 1 3 31.1018 -1968 0 0 0 0 0
321 1 3 31.1018 -1965 0 0 0 0 0
322 1 3 31.1018 -1962 0 0 0 0 0
323 1 3 31.1018 -1959 0 0 0 0 0
324 1 3 31.1018 -1956 0 0 0 0 0
325 1 3 31.1018 -1953 0 0 0 0 0
326 1 3 31.1018 -1950 0 0 0 0 0
327 1 3 31.1018 -1947 0 0 0 0 0
328 1 3 31.1018 -1944 0 0 0 0 0
329 1 3 31.1018 -1941 0 0 0 0 0
330 1 3 31.1018 -1938 0 0 0 0 0
331 1 3 31.1018 -1935 0 0 0 0 0
332 1 3 31.1018 -1932 0 0 0 0 0
333 1 3 31.1018 -1929 0 0 0 0 0
334 1 3 31.1018 -1926 0 0 0 0 0
335 1 3 31.1018 -1923 0 0 0 0 0
336 1 3 31.1018 -1920 0 0 0 0 0
337 1 3 31.1018 -1917 0 0 0 0 0
338 1 3 31.1018 -1914 0 0 0 0 0
339 1 3 31.1018 -1911 0 0 0 0 0
340 1 3 31.1018 -1908 0 0 0 0 0
341 1 3 31.1018 -1905 0 0 0 0 0
342 1 3 31.1018 -1902 0 0 0 0 0
343 1 3 31.1018 -1899 0 0 0 0 0
344 1 3 31.1018 -1896 0 0 0 0 0
345 1 3 31.1018 -1893 0 0 0 0 0
346 1 3 31.1018 -1890 0 0 0 0 0
347 1 3 31.1018 -1887 0 0 0 0 0
348 1 3 31.1018 -1884 0 0 0 0 0
349 1 3 31.1018 -1881 0 0 0 0 0
350 1 3 31.1018 -1878 0 0 0 0 0
351 1 3 31.1018 -1875 0 0 0 0 0
352 1 3 31.1018 -1872 0 0 0 0 0
353 1 3 31.1018 -1869 0 0 0 0 0
354 1 3 31.1018 -1866 0 0 0 0 0
355 1 3 31.1018 -1863 0 0 0 0 0
356 1 3 31.1018 -1860 0 0 0 0 0
357 1 3 31.1018 -1857 0 0 0 0 0
358 1 3 31.1018 -1854 0 0 0 0 0
359 1 3 31.1018 -1851 0 0 0 0 0
360 1 3 31.1018 -1848 0 0 0 0 0
361 1 3 31.1018 -1845 0 0 0 0 0
362 1 3 31.1018 -1842 0 0 0 0 0
363 1 3 31.1018 -1839 0 0 0 0 0
364 1 3 31.1018 -1836 0 0 0 0 0
365 1 3 31.1018 -1833 0 0 0 0 0
366 1 3 31.1018 -1830 0 0 0 0 0
367 1 3 31.1018 -1827 0 0 0 0 0
368 1 3 31.1018 -1824 0 0 0 0 0
369 1 3 31.1018 -1821 0 0 0 0 0
370 1 3 31.1018 -1818 0 0 0 0 0
371 1 3 31.1018 -1815 0 0 0 0 0
372 1 3 31.1018 -1812 0 0 0 0 0
373 1 3 31.1018 -1809 0 0 0 0 0
374 1 3 31.1018 -1806 0 0 0 0 0
375 1 3 31.1018 -1803 0 0 0 0 0
376 1 3 31.1018 -1800 0 0 0 0 0
377 1 3 31.1018 -1797 0 0 0 0 0
378 1 3 31.1018 -1794 0 0 0 0 0
379 1 3 31.1018 -1791 0 0 0 0 0
380 1 3 31.1018 -1788 0 0 0 0 0
381 1 3 31.1018 -1785 0 0 0 0 0
382 1 3 31.1018 -1782 0 0 0 0 0
383 1 3 31.1018 -1779 0 0 0 0 0
384 1 3 31.1018 -1776 0 0 0 0 0
385 1 3 31.1018 -1773 0 0 0 0 0
386 1 3 31.1018 -1770 0 0 0 0 0
387 1 3 31.1018 -1767 0 0 0 0 0
388 1 3 31.1018 -1764 0 0 0 0 0
389 1 3 31.1018 -1761 0 0 0 0 0
390 1 3 31.1018 -1758 0 0 0 0 0
391 1 3 31.1018 -1755 0 0 0 0 0
392 1 3 31.1018 -1752 0 0 0 0 0
393 1 3 31.1018 -1749 0 0 0 0 0
394 1 3 31.1018 -1746 0 0 0 0 0
395 1 3 31.1018 -1743 0 0 0 0 0
396 1 3 31.1018 -1740 0 0 0 0 0
397 1 3 31.1018 -1737 0 0 0 0 0
398 1 3 31.1018 -1734 0 0 0 0 0
399 1 3 31.1018 -1731 0 0 0 0 0
400 1 3 31.1018 -1728 0 0 0 0 0
401 1 3 31.1018 -1725 0 0 0 0 0
402 1 3 31.1018 -1722 0 0 0 0 0
403 1 3 31.1018 -1719 0 0 0 0 0
404 1 3 31.1018 -1716 0 0 0 0 0
405 1 3 31.1018 -1713 0 0 0 0 0
406 1 3 31.1018 -1710 0 0 0 0 0
407 1 3 31.1018 -1707 0 0 0 0 0
408 1 3 31.1018 -1704 0 0 0 0 0
409 1 3 31.1018 -1701 0 0 0 0 0
410 1 3 31.1018 -1698 0 0 0 0 0
411 1 3 31.1018 -1695 0 0 0 0 0
412 1 3 31.1018 -1692 0 0 0 0 0
413 1 3 31.1018 -1689 0 0 0 0 0
414 1 3 31.1018 -1686 0 0 0 0 0
415 1 3 31.1018 -1683 0 0 0 0 0
416 1 3 31.1018 -1680 0 0 0 0 0
417 1 3 31.1018 -1677 0 0 0 0 0
418 1 3 31.1018 -1674 0 0 0 0 0
419 1 3 31.1018 -1671 0 0 0 0 0
420 1 3 31.1018 -1668 0 0 0 0 0
421 1 3 31.1018 -1665 0 0 0 0 0
422 1 3 31.1018 -1662 0 0 0 0 0
423 1 3 31.1018 -1659 0 0 0 0 0
424 1 3 31.1018 -1656 0 0 0 0 0
425 1 3 31.1018 -1653 0 0 0 0 0
426 1 3 31.1018 -1650 0 0 0 0 0
427 1 3 31.1018 -1647 0 0 0 0 0
428 1 3 31.1018 -1644 0 0 0 0 0
429 1 3 31.1018 -1641 0 0 0 0 0
430 1 3 31.1018 -1638 0 0 0 0 0
431 1 3 31.1018 -1635 0 0 0 0 0
432 1 3 31.1018 -1632 0 0 0 0 0
433 1 3 31.1018 -1629 0 0 0 0 0
434 1 3 31.1018 -1626 0 0 0 0 0
435 1 3 31.1018 -1623 0 0 0 0 0
436 1 3 31.1018 -1620 0 0 0 0 0
437 1 3 31.1018 -1617 0 0 0 0 0
438 1 3 31.1018 -1614 0 0 0 0 0
439 1 3 31.1018 -1611 0 0 0 0 0
440 1 3 31.1018 -1608 0 0 0 0 0
441 1 3 31.1018 -1605 0 0 0 0 0
442 1 3 31.1018 -1602 0 0 0 0 0
443 1 3 31.1018 -1599 0 0 0 0 0
444 1 3 31.1018 -1596 0 0 0 0 0
445 1 3 31.1018 -1593 0 0 0 0 0
446 1 3 31.1018 -1590 0 0 0 0 0
447 1 3 31.1018 -1587 0 0 0 0 0
448 1 3 31.1018 -1584 0 0 0 0 0
449 1 3 31.1018 -1581 0 0 0 0 0
450 1 3 31.1018 -1578 0 0 0 0 0
451 1 3 31.1018 -1575 0 0 0 0 0
452 1 3 31.1018 -1572 0 0 0 0 0
453 1 3 31.1018 -1569 0 0 0 0 0
454 1 3 31.1018 -1566 0 0 0 0 0
455 1 3 31.1018 -1563 0 0 0 0 0
456 1 3 31.1018 -1560 0 0 0 0 0
457 1 3 31.1018 -1557 0 0 0 0 0
458 1 3 31.1018 -1554 0 0 0 0 0
459 1 3 31.1018 -1551 0 0 0 0 0
460 1 3 31.1018 -1548 0 0 0 0 0
461 1 3 31.1018 -1545 0 0 0 0 0
462 1 3 31.1018 -1542 0 0 0 0 0
463 1 3 31.1018 -1539 0 0 0 0 0
464 1 3 31.1018 -1536 0 0 0 0 0
465 1 3 31.1018 -1533 0 0 0 0 0
466 1 3 31.1018 -1530 0 0 0 0 0
467 1 3 31.1018 -1527 0 0 0 0 0
468 1 3 31.1018 -1524 0 0 0 0 0
469 1 3 31.1018 -1521 0 0 0 0 0
470 1 3 31.1018 -1518 0 0 0 0 0
471 1 3 31.1018 -1515 0 0 0 0 0
472 1 3 31.1018 -1512 0 0 0 0 0
473 1 3 31.1018 -1509 0 0 0 0 0
474 1 3 31.1018 -1506 0 0 0 0 0
475 1 3 31.1018 -1503 0 0 0 0 0
476 1 3 31.1018 -1500 0 0 0 0 0
477 1 3 31.1018 -1497 0 0 0 0 0
478 1 3 31.1018 -1494 0 0 0 0 0
479 1 3 31.1018 -1491 0 0 0 0 0
480 1 3 31.1018 -1488 0 0 0 0 0
481 1 3 31.1018 -1485 0 0 0 0 0
482 1 3 31.1018 -1482 0 0 0 0 0
483 1 3 31.1018 -1479 0 0 0 0 0
484 1 3 31.1018 -1476 0 0 0 0 0
485 1 3 31.1018 -1473 0 0 0 0 0
486 1 3 31.1018 -1470 0 0 0 0 0
487 1 3 31.1018 -1467 0 0 0 0 0
488 1 3 31.1018 -1464 0 0 0 0 0
1951 2 3 31.1018 -1954.50010136503147 5.04932e-21 2.59757461294359793 0.0784158 0 0.000725476
1952 2 3 31.1018 -1951.5001013650317 5.04156e-21 2.59757461292993863 0.0782951 0 0.00072763
1953 2 3 31.1018 -1948.50010136503215 5.03379e-21 2.59757461291627978 0.0781748 0 0.000729808
1954 2 3 31.1018 -1945.50010136503238 5.02602e-21 2.59757461290262048 0.0780541 0 0.000731964
1955 2 3 31.1018 -1942.50010136503283 5.01825e-21 2.59757461288896163 0.0779337 0 0.000734141
1956 2 3 31.1018 -1939.50010136503329 5.01048e-21 2.59757461287530234 0.0778134 0 0.000736319
1957 2 3 31.1018 -1936.50010136503352 5.00271e-21 2.59757461286164348 0.0776927 0 0.000738473
1958 2 3 31.1018 -1933.50010136503397 4.99495e-21 2.59757461284798419 0.0775724 0 0.000740652
1959 2 3 31.1018 -1930.5001013650342 4.98718e-21 2.59757461283432534 0.0774517 0 0.000742806
1960 2 3 31.1018 -1927.50010136503465 4.97941e-21 2.59757461282066604 0.0773313 0 0.000744985
1961 2 3 31.1018 -1924.50010136503511 4.97164e-21 2.59757461280700719 0.077211 0 0.000747162
1962 2 3 31.1018 -1921.50010136503533 4.96387e-21 2.59757461279334789 0.0770903 0 0.000749318
1963 2 3 31.1018 -1918.50010136503579 4.95611e-21 2.59757461277968904 0.0769699 0 0.000751494
1964 2 3 31.1018 -1915.50010136503602 4.94834e-21 2.59757461276602974 0.0768493 0 0.000753649
1965 2 3 31.1018 -1912.50010136503647 4.94057e-21 2.59757461275237089 0.0767289 0 0.000755827
1966 2 3 31.1018 -1909.50010136503693 4.9328e-21 2.5975746127387116 0.0766086 0 0.000758004
1967 2 3 31.1018 -1906.50010136503715 4.92503e-21 2.59757461272505275 0.0764879 0 0.00076016
1968 2 3 31.1018 -1903.50010136503761 4.91726e-21 2.59757461271139345 0.0763675 0 0.000762337
1969 2 3 31.1018 -1900.50010136503784 4.9095e-21 2.5975746126977346 0.0762469 0 0.000764492
1970 2 3 31.1018 -1897.50010136503829 4.90173e-21 2.5975746126840753 0.0761265 0 0.00076667
1971 2 3 31.1018 -1894.50010136503874 4.89396e-21 2.59757461267041645 0.0760061 0 0.000768848
1972 2 3 31.1018 -1891.50010136503897 4.88619e-21 2.59757461265675715 0.0758855 0 0.000771003
1973 2 3 31.1018 -1888.50010136503943 4.87842e-21 2.5975746126430983 0.0757651 0 0.000773179
1974 2 3 31.1018 -1885.50010136503988 4.87066e-21 2.59757461262943901 0.0756448 0 0.000775359
1975 2 3 31.1018 -1882.50010136504011 4.86289e-21 2.59757461261578015 0.0755241 0 0.000777512
1976 2 3 31.1018 -1879.50010136504056 4.85512e-21 2.59757461260212086 0.0754037 0 0.000779691
1977 2 3 31.1018 -1876.50010136504079 4.84735e-21 2.59757461258846201 0.0752831 0 0.000781846
1978 2 3 31.1018 -1873.50010136504125 4.83958e-21 2.59757461257480271 0.0751627 0 0.000784024
1979 2 3 31.1018 -1870.5001013650417 4.83181e-21 2.59757461256114386 0.0750423 0 0.000786201
1980 2 3 31.1018 -1867.50010136504193 4.82405e-21 2.59757461254748456 0.0749217 0 0.000788357
1981 2 3 31.1018 -1864.50010136504238 4.81628e-21 2.59757461253382571 0.0748013 0 0.000790534
1982 2 3 31.1018 -1861.50010136504261 4.80851e-21 2.59757461252016641 0.0746807 0 0.00079269
1983 2 3 31.1018 -1858.50010136504307 4.80074e-21 2.59757461250650756 0.0745603 0 0.000794867
1984 2 3 31.1018 -1855.50010136504352 4.79297e-21 2.59757461249284827 0.0744399 0 0.000797045
1985 2 3 31.1018 -1852.50010136504375 4.7852e-21 2.59757461247918942 0.0743193 0 0.000799198
1986 2 3 31.1018 -1849.5001013650442 4.77744e-21 2.59757461246553012 0.0741989 0 0.000801378
1987 2 3 31.1018 -1846.50010136504443 4.76967e-21 2.59757461245187127 0.0740783 0 0.000803531
1988 2 3 31.1018 -1843.50010136504488 4.7619e-21 2.59757461243821197 0.0739579 0 0.00080571
1989 2 3 31.1018 -1840.50010136504534 4.75413e-21 2.59757461242455312 0.0738375 0 0.000807888
1990 2 3 31.1018 -1837.50010136504557 4.74636e-21 2.59757461241089382 0.0737169 0 0.000810043
1991 2 3 31.1018 -1834.50010136504602 4.7386e-21 2.59757461239723497 0.0735965 0 0.00081222
1992 2 3 31.1018 -1831.50010136504625 4.73083e-21 2.59757461238357568 0.0734759 0 0.000814375
1993 2 3 31.1018 -1828.5001013650467 4.72306e-21 2.59757461236991682 0.0733555 0 0.000816553
1994 2 3 31.1018 -1825.50010136504716 4.71529e-21 2.59757461235625753 0.0732351 0 0.000818731
1995 2 3 31.1018 -1822.50010136504739 4.70752e-21 2.59757461234259868 0.0731145 0 0.000820884
1996 2 3 31.1018 -1819.50010136504784 4.69975e-21 2.59757461232893938 0.0729941 0 0.000823063
1997 2 3 31.1018 -1816.50010136504829 4.69199e-21 2.59757461231528053 0.0728737 0 0.000825239
1998 2 3 31.1018 -1813.50010136504852 4.68422e-21 2.59757461230162123 0.0727531 0 0.000827395
1999 2 3 31.1018 -1810.50010136504898 4.67645e-21 2.59757461228796238 0.0726327 0 0.000829572
2000 2 3 31.1018 -1807.5001013650492 4.66868e-21 2.59757461227430309 0.0725121 0 0.000831728
2001 2 3 31.1018 -1804.50010136504966 4.66091e-21 2.59757461226064423 0.0723917 0 0.000833904
2002 2 3 31.1018 -1801.50010136505011 4.65315e-21 2.59757461224698494 0.0722713 0 0.000836084
2003 2 3 31.1018 -1798.50010136505034 4.64538e-21 2.59757461223332609 0.0721507 0 0.000838237
2004 2 3 31.1018 -1795.5001013650508 4.63761e-21 2.59757461221966679 0.0720303 0 0.000840416
2005 2 3 31.1018 -1792.50010136505102 4.62984e-21 2.59757461220600794 0.0719097 0 0.000842571
2006 2 3 31.1018 -1789.50010136505148 4.62207e-21 2.59757461219234864 0.0717893 0 0.000844749
2007 2 3 31.1018 -1786.50010136505193 4.6143e-21 2.59757461217868979 0.0716689 0 0.000846925
2008 2 3 31.1018 -1783.50010136505216 4.60654e-21 2.59757461216503049 0.0715483 0 0.00084908
2009 2 3 31.1018 -1780.50010136505261 4.59877e-21 2.59757461215137164 0.0714279 0 0.000851258
2010 2 3 31.1018 -1777.50010136505284 4.591e-21 2.59757461213771235 0.0713073 0 0.000853412
2011 2 3 31.1018 -1774.5001013650533 4.58323e-21 2.59757461212405349 0.0711869 0 0.000855591
2012 2 3 31.1018 -1771.50010136505375 4.57546e-21 2.5975746121103942 0.0710665 0 0.000857769
2013 2 3 31.1018 -1768.50010136505398 4.5677e-21 2.59757461209673535 0.0709459 0 0.000859923
2014 2 3 31.1018 -1765.50010136505443 4.55993e-21 2.59757461208307605 0.0708255 0 0.000862103
2015 2 3 31.1018 -1762.50010136505466 4.55216e-21 2.5975746120694172 0.0707049 0 0.000864256
2016 2 3 31.1018 -1759.50010136505512 4.54439e-21 2.5975746120557579 0.0705845 0 0.000866434
2017 2 3 31.1018 -1756.50010136505557 4.53662e-21 2.59757461204209905 0.0704641 0 0.000868612
2018 2 3 31.1018 -1753.5001013650558 4.52885e-21 2.59757461202843976 0.0703435 0 0.000870767
2019 2 3 31.1018 -1750.50010136505625 4.52109e-21 2.5975746120147809 0.0702231 0 0.000872944
2020 2 3 31.1018 -1747.50010136505671 4.51332e-21 2.59757461200112161 0.0701027 0 0.000875122
2021 2 3 31.1018 -1744.50010136505693 4.50555e-21 2.59757461198746276 0.0699821 0 0.000877277
2022 2 3 31.1018 -1741.50010136505739 4.49778e-21 2.59757461197380346 0.0698617 0 0.000879455
2023 2 3 31.1018 -1738.50010136505762 4.49001e-21 2.59757461196014461 0.0697411 0 0.000881609
2024 2 3 31.1018 -1735.50010136505807 4.48225e-21 2.59757461194648531 0.0696207 0 0.000883788
2025 2 3 31.1018 -1732.50010136505853 4.47448e-21 2.59757461193282646 0.0695003 0 0.000885965
2026 2 3 31.1018 -1729.50010136505875 4.46671e-21 2.59757461191916716 0.0693797 0 0.00088812
2027 2 3 31.1018 -1726.50010136505921 4.45894e-21 2.59757461190550831 0.0692593 0 0.000890298
2028 2 3 31.1018 -1723.50010136505944 4.45117e-21 2.59757461189184902 0.0691387 0 0.000892453
2029 2 3 31.1018 -1720.50010136505989 4.4434e-21 2.59757461187819017 0.0690183 0 0.000894629
2030 2 3 31.1018 -1717.50010136506035 4.43564e-21 2.59757461186453087 0.0688979 0 0.000896808
2031 2 3 31.1018 -1714.50010136506057 4.42787e-21 2.59757461185087202 0.0687773 0 0.000898962
2032 2 3 31.1018 -1711.50010136506103 4.4201e-21 2.59757461183721272 0.0686569 0 0.00090114
2033 2 3 31.1018 -1708.50010136506125 4.41233e-21 2.59757461182355387 0.0685363 0 0.000903295
2034 2 3 31.1018 -1705.50010136506171 4.40456e-21 2.59757461180989457 0.0684159 0 0.000905473
2035 2 3 31.1018 -1702.50010136506216 4.3968e-21 2.59757461179623572 0.0682955 0 0.00090765
2036 2 3 31.1018 -1699.50010136506239 4.38903e-21 2.59757461178257643 0.0681749 0 0.000909805
2037 2 3 31.1018 -1696.50010136506285 4.38126e-21 2.59757461176891757 0.0680545 0 0.000911983
2038 2 3 31.1018 -1693.50010136506307 4.37349e-21 2.59757461175525828 0.0679339 0 0.000914137
2039 2 3 31.1018 -1690.50010136506353 4.36572e-21 2.59757461174159943 0.0678135 0 0.000916314
2040 2 3 31.1018 -1687.50010136506398 4.35795e-21 2.59757461172794013 0.0676931 0 0.000918493
2041 2 3 31.1018 -1684.50010136506421 4.35019e-21 2.59757461171428128 0.0675725 0 0.000920647
2042 2 3 31.1018 -1681.50010136506467 4.34242e-21 2.59757461170062198 0.0674521 0 0.000922825
2043 2 3 31.1018 -1678.50010136506512 4.33465e-21 2.59757461168696313 0.0673317 0 0.000925003
2044 2 3 31.1018 -1675.50010136506535 4.32688e-21 2.59757461167330383 0.0672111 0 0.000927158
2045 2 3 31.1018 -1672.5001013650658 4.31911e-21 2.59757461165964498 0.0670907 0 0.000929336
2046 2 3 31.1018 -1669.50010136506603 4.31135e-21 2.59757461164598569 0.0669701 0 0.000931491
2047 2 3 31.1018 -1666.50010136506648 4.30358e-21 2.59757461163232684 0.0668497 0 0.000933669
2048 2 3 31.1018 -1663.50010136506694 4.29581e-21 2.59757461161866754 0.0667293 0 0.000935846
2049 2 3 31.1018 -1660.50010136506717 4.28804e-21 2.59757461160500869 0.0666087 0 0.000938
2050 2 3 31.1018 -1657.50010136506762 4.28027e-21 2.59757461159134939 0.0664883 0 0.000940179
2051 2 3 31.1018 -1654.50010136506785 4.2725e-21 2.59757461157769054 0.0663677 0 0.000942331
2052 2 3 31.1018 -1651.5001013650683 4.26474e-21 2.59757461156403124 0.0662473 0 0.000944511
2053 2 3 31.1018 -1648.50010136506876 4.25697e-21 2.59757461155037239 0.0661269 0 0.000946688
2054 2 3 31.1018 -1645.50010136506899 4.2492e-21 2.5975746115367131 0.0660063 0 0.000948843
2055 2 3 31.1018 -1642.50010136506944 4.24143e-21 2.59757461152305424 0.0658859 0 0.000951021
2056 2 3 31.1018 -1639.50010136506967 4.23366e-21 2.59757461150939495 0.0657653 0 0.000953176
2057 2 3 31.1018 -1636.50010136507012 4.2259e-21 2.5975746114957361 0.0656449 0 0.000955353
2058 2 3 31.1018 -1633.50010136507058 4.21813e-21 2.5975746114820768 0.0655245 0 0.000957533
2059 2 3 31.1018 -1630.5001013650708 4.21036e-21 2.59757461146841795 0.0654039 0 0.000959686
2060 2 3 31.1018 -1627.50010136507126 4.20259e-21 2.59757461145475865 0.0652835 0 0.000961865
2061 2 3 31.1018 -1624.50010136507149 4.19482e-21 2.5975746114410998 0.0651629 0 0.000964019
2062 2 3 31.1018 -1621.50010136507194 4.18705e-21 2.59757461142744051 0.0650425 0 0.000966196
2063 2 3 31.1018 -1618.5001013650724 4.17929e-21 2.59757461141378165 0.0649221 0 0.000968373
2064 2 3 31.1018 -1615.50010136507262 4.17152e-21 2.59757461140012236 0.0648015 0 0.000970529
2065 2 3 31.1018 -1612.50010136507308 4.16375e-21 2.59757461138646351 0.0646811 0 0.000972706
2066 2 3 31.1018 -1609.50010136507353 4.15598e-21 2.59757461137280421 0.0645607 0 0.000974884
2067 2 3 31.1018 -1606.50010136507376 4.14821e-21 2.59757461135914536 0.0644401 0 0.000977038
2068 2 3 31.1018 -1603.50010136507422 4.14045e-21 2.59757461134548606 0.0643197 0 0.000979217
2069 2 3 31.1018 -1600.50010136507444 4.13268e-21 2.59757461133182721 0.0641991 0 0.000981371
2070 2 3 31.1018 -1597.5001013650749 4.12491e-21 2.59757461131816791 0.0640787 0 0.00098355
2071 2 3 31.1018 -1594.50010136507535 4.11714e-21 2.59757461130450906 0.0639583 0 0.000985727
2072 2 3 31.1018 -1591.50010136507558 4.10937e-21 2.59757461129084977 0.0638377 0 0.000987882
2073 2 3 31.1018 -1588.50010136507603 4.1016e-21 2.59757461127719091 0.0637173 0 0.000990058
2074 2 3 31.1018 -1585.50010136507626 4.09384e-21 2.59757461126353162 0.0635967 0 0.000992214
2075 2 3 31.1018 -1582.50010136507672 4.08607e-21 2.59757461124987277 0.0634763 0 0.000994391
2076 2 3 31.1018 -1579.50010136507717 4.0783e-21 2.59757461123621347 0.0633559 0 0.000996569
2077 2 3 31.1018 -1576.5001013650774 4.07053e-21 2.59757461122255462 0.0632353 0 0.000998724
2078 2 3 31.1018 -1573.50010136507785 4.06276e-21 2.59757461120889532 0.0631149 0 0.0010009
2079 2 3 31.1018 -1570.50010136507808 4.055e-21 2.59757461119523647 0.0629943 0 0.00100306
2080 2 3 31.1018 -1567.50010136507854 4.04723e-21 2.59757461118157718 0.0628739 0 0.00100523
2081 2 3 31.1018 -1564.50010136507899 4.03946e-21 2.59757461116791832 0.0627535 0 0.00100741
2082 2 3 31.1018 -1561.50010136507922 4.03169e-21 2.59757461115425903 0.0626329 0 0.00100957
2083 2 3 31.1018 -1558.50010136507967 4.02392e-21 2.59757461114060018 0.0625125 0 0.00101174
2084 2 3 31.1018 -1555.5001013650799 4.01615e-21 2.59757461112694088 0.0623919 0 0.0010139
2085 2 3 31.1018 -1552.50010136508035 4.00839e-21 2.59757461111328203 0.0622715 0 0.00101608
2086 2 3 31.1018 -1549.50010136508081 4.00062e-21 2.59757461109962273 0.0621511 0 0.00101825
2087 2 3 31.1018 -1546.50010136508104 3.99285e-21 2.59757461108596388 0.0620305 0 0.00102041
2088 2 3 31.1018 -1543.50010136508149 3.98508e-21 2.59757461107230458 0.0619101 0 0.00102259
2089 2 3 31.1018 -1540.50010136508195 3.97731e-21 2.59757461105864573 0.0617897 0 0.00102477
2090 2 3 31.1018 -1537.50010136508217 3.96955e-21 2.59757461104498644 0.0616691 0 0.00102692
2091 2 3 31.1018 -1534.50010136508263 3.96178e-21 2.59757461103132758 0.0615487 0 0.0010291
2092 2 3 31.1018 -1531.50010136508286 3.95401e-21 2.59757461101766829 0.0614281 0 0.00103125
2093 2 3 31.1018 -1528.50010136508331 3.94624e-21 2.59757461100400944 0.0613077 0 0.00103343
2094 2 3 31.1018 -1525.50010136508376 3.93847e-21 2.59757461099035014 0.0611873 0 0.00103561
2095 2 3 31.1018 -1522.50010136508399 3.9307e-21 2.59757461097669129 0.0610667 0 0.00103776
2096 2 3 31.1018 -1519.50010136508445 3.92294e-21 2.59757461096303199 0.0609463 0 0.00103994
2097 2 3 31.1018 -1516.50010136508467 3.91517e-21 2.59757461094937314 0.0608257 0 0.00104209
2098 2 3 31.1018 -1513.50010136508513 3.9074e-21 2.59757461093571385 0.0607053 0 0.00104427
2099 2 3 31.1018 -1510.50010136508558 3.89963e-21 2.59757461092205499 0.0605849 0 0.00104645
2100 2 3 31.1018 -1507.50010136508581 3.89186e-21 2.5975746109083957 0.0604643 0 0.00104861
2101 2 3 31.1018 -1504.50010136508627 3.88409e-21 2.59757461089473685 0.0603439 0 0.00105078
2102 2 3 31.1018 -1501.50010136508649 3.87633e-21 2.59757461088107755 0.0602233 0 0.00105294