ITEM: TIMESTEP
4700000
ITEM: NUMBER OF ATOMS
2751
ITEM: BOX BOUNDS pp pp pp
-2.4750000000000000e+03 2.4750000000000000e+03
-1.0000000000000000e+02 1.0000000000000000e+02
-1.0000000000000000e+02 1.0000000000000000e+02
ITEM: ATOMS id type diameter mass xu yu zu fx fy fz
1 1 3 31.1018 -2475 0 0 0 0 0
2 1 3 31.1018 -2472 0 0 0 0 0
3 1 3 31.1018 -2469 0 0 0 0 0
4 1 3 31.1018 -2466 0 0 0 0 0
5 1 3 31.1018 -2463 0 0 0 0 0
6 1 3 31.1018 -2460 0 0 0 0 0
7 1 3 31.1018 -2457 0 0 0 0 0
8 1 3 31.1018 -2454 0 0 0 0 0
9 1 3 31.1018 -2451 0 0 0 0 0
10 1 3 31.1018 -2448 0 0 0 0 0
11 1 3 31.1018 -2445 0 0 0 0 0
12 1 3 31.1018 -2442 0 0 0 0 0
13 1 3 31.1018 -2439 0 0 0 0 0
14 1 3 31.1018 -2436 0 0 0 0 0
15 1 3 31.1018 -2433 0 0 0 0 0
16 1 3 31.1018 -2430 0 0 0 0 0
17 1 3 31.1018 -2427 0 0 0 0 0
18 1 3 31.1018 -2424 0 0 0 0 0
19 1 3 31.1018 -2421 0 0 0 0 0
20 1 3 31.1018 -2418 0 0 0 0 0
21 1 3 31.1018 -2415 0 0 0 0 0
22 1 3 31.1018 -2412 0 0 0 0 0
23 1 3 31.1018 -2409 0 0 0 0 0
24 1 3 31.1018 -2406 0 0 0 0 0
25 1 3 31.1018 -2403 0 0 0 0 0
26 1 3 31.1018 -2400 0 0 0 0 0
27 1 3 31.1018 -2397 0 0 0 0 0
28 1 3 31.1018 -2394 0 0 0 0 0
29 1 3 31.1018 -2391 0 0 0 0 0
30 1 3 31.1018 -2388 0 0 0 0 0
31 1 3 31.1018 -2385 0 0 0 0 0
32 1 3 31.1018 -2382 0 0 0 0 0
33 1 3 31.1018 -2379 0 0 0 0 0
34 1 3 31.1018 -2376 0 0 0 0 0
35 1 3 31.1018 -2373 0 0 0 0 0
36 1 3 31.1018 -2370 0 0 0 0 0
37 1 3 31.1018 -2367 0 0 0 0 0
38 1 3 31.1018 -2364 0 0 0 0 0
39 1 3 31.1018 -2361 0 0 0 0 0
40 1 3 31.1018 -2358 0 0 0 0 0
41 1 3 31.1018 -2355 0 0 0 0 0
42 1 3 31.1018 -2352 0 0 0 0 0
43 1 3 31.1018 -2349 0 0 0 0 0
44 1 3 31.1018 -2346 0 0 0 0 0
45 1 3 31.1018 -2343 0 0 0 0 0
46 1 3 31.1018 -2340 0 0 0 0 0
47 1 3 31.1018 -2337 0 0 0 0 0
48 1 3 31.1018 -2334 0 0 0 0 0
49 1 3 31.1018 -2331 0 0 0 0 0
50 1 3 31.1018 -2328 0 0 0 0 0
51 1 3 31.1018 -2325 0 0 0 0 0
52 1 3 31.1018 -2322 0 0 0 0 0
53 1 3 31.1018 -2319 0 0 0 0 0
54 1 3 31.1018 -2316 0 0 0 0 0
55 1 3 31.1018 -2313 0 0 0 0 0
56 1 3 31.1018 -2310 0 0 0 0 0
57 1 3 31.1018 -2307 0 0 0 0 0
58 1 3 31.1018 -2304 0 0 0 0 0
59 1 3 31.1018 -2301 0 0 0 0 0
60 1 3 31.1018 -2298 0 0 0 0 0
61 1 3 31.1018 -2295 0 0 0 0 0
62 1 3 31.1018 -2292 0 0 0 0 0
63 1 3 31.1018 -2289 0 0 0 0 0
64 1 3 31.1018 -2286 0 0 0 0 0
65 1 3 31.1018 -2283 0 0 0 0 0
66 1 3 31.1018 -2280 0 0 0 0 0
67 1 3 31.1018 -2277 0 0 0 0 0
68 1 3 31.1018 -2274 0 0 0 0 0
69 1 3 31.1018 -2271 0 0 0 0 0
70 1 3 31.1018 -2268 0 0 0 0 0
71 1 3 31.1018 -2265 0 0 0 0 0
72 1 3 31.1018 -2262 0 0 0 0 0
73 1 3 31.1018 -2259 0 0 0 0 0
74 1 3 31.1018 -2256 0 0 0 0 0
75 1 3 31.1018 -2253 0 0 0 0 0
76 1 3 31.1018 -2250 0 0 0 0 0
77 1 3 31.1018 -2247 0 0 0 0 0
78 1 3 31.1018 -2244 0 0 0 0 0
79 1 3 31.1018 -2241 0 0 0 0 0
80 1 3 31.1018 -2238 0 0 0 0 0
81 1 3 31.1018 -2235 0 0 0 0 0
82 1 3 31.1018 -2232 0 0 0 0 0
83 1 3 31.1018 -2229 0 0 0 0 0
84 1 3 31.1018 -2226 0 0 0 0 0
85 1 3 31.1018 -2223 0 0 0 0 0
86 1 3 31.1018 -2220 0 0 0 0 0
87 1 3 31.1018 -2217 0 0 0 0 0
88 1 3 31.1018 -2214 0 0 0 0 0
89 1 3 31.1018 -2211 0 0 0 0 0
90 1 3 31.1018 -2208 0 0 0 0 0
91 1 3 31.1018 -2205 0 0 0 0 0
92 1 3 31.1018 -2202 0 0 0 0 0
93 1 3 31.1018 -2199 0 0 0 0 0
94 1 3 31.1018 -2196 0 0 0 0 0
95 1 3 31.1018 -2193 0 0 0 0 0
96 1 3 31.1018 -2190 0 0 0 0 0
97 1 3 31.1018 -2187 0 0 0 0 0
98 1 3 31.1018 -2184 0 0 0 0 0
99 1 3 31.1018 -2181 0 0 0 0 0
100 1 3 31.1018 -2178 0 0 0 0 0
101 1 3 31.1018 -2175 0 0 0 0 0
102 1 3 31.1018 -2172 0 0 0 0 0
103 1 3 31.1018 -2169 0 0 0 0 0
104 1 3 31.1018 -2166 0 0 0 0 0
105 1 3 31.1018 -2163 0 0 0 0 0
106 1 3 31.1018 -2160 0 0 0 0 0
107 1 3 31.1018 -2157 0 0 0 0 0
108 1 3 31.1018 -2154 0 0 0 0 0
109 1 3 31.1018 -2151 0 0 0 0 0
110 1 3 31.1018 -2148 0 0 0 0 0
111 1 3 31.1018 -2145 0 0 0 0 0
112 1 3 31.1018 -2142 0 0 0 0 0
113 1 3 31.1018 -2139 0 0 0 0 0
114 1 3 31.1018 -2136 0 0 0 0 0
115 1 3 31.1018 -2133 0 0 0 0 0
116 1 3 31.1018 -2130 0 0 0 0 0
117 1 3 31.1018 -2127 0 0 0 0 0
118 1 3 31.1018 -2124 0 0 0 0 0
119 1 3 31.1018 -2121 0 0 0 0 0
120 1 3 31.1018 -2118 0 0 0 0 0
121 1 3 31.1018 -2115 0 0 0 0 0
122 1 3 31.1018 -2112 0 0 0 0 0
123 1 3 31.1018 -2109 0 0 0 0 0
124 1 3 31.1018 -2106 0 0 0 0 0
125 1 3 31.1018 -2103 0 0 0 0 0
126 1 3 31.1018 -2100 0 0 0 0 0
127 1 3 31.1018 -2097 0 0 0 0 0
128 1 3 31.1018 -2094 0 0 0 0 0
129 1 3 31.1018 -2091 0 0 0 0 0
130 1 3 31.1018 -2088 0 0 0 0 0
131 1 3 31.1018 -2085 0 0 0 0 0
132 1 3 31.1018 -2082 0 0 0 0 0
133 1 3 31.1018 -2079 0 0 0 0 0
134 1 3 31.1018 -2076 0 0 0 0 0
135 1 3 31.1018 -2073 0 0 0 0 0
136 1 3 31.1018 -2070 0 0 0 0 0
137 1 3 31.1018 -2067 0 0 0 0 0
138 1 3 31.1018 -2064 0 0 0 0 0
139 1 3 31.1018 -2061 0 0 0 0 0
140 1 3 31.1018 -2058 0 0 0 0 0
141 1 3 31.1018 -2055 0 0 0 0 0
142 1 3 31.1018 -2052 0 0 0 0 0
143 1 3 31.1018 -2049 0 0 0 0 0
144 1 3 31.1018 -2046 0 0 0 0 0
145 1 3 31.1018 -2043 0 0 0 0 0
146 1 3 31.1018 -2040 0 0 0 0 0
147 1 3 31.1018 -2037 0 0 0 0 0
148 1 3 31.1018 -2034 0 0 0 0 0
149 1 3 31.1018 -2031 0 0 0 0 0
150 1 3 31.1018 -2028 0 0 0 0 0
151 1 3 31.1018 -2025 0 0 0 0 0
152 1 3 31.1018 -2022 0 0 0 0 0
153 1 3 31.1018 -2019 0 0 0 0 0
154 1 3 31.1018 -2016 0 0 0 0 0
155 1 3 31.1018 -2013 0 0 0 0 0
156 1 3 31.1018 -2010 0 0 0 0 0
157 1 3 31.1018 -2007 0 0 0 0 0
158 1 3 31.1018 -2004 0 0 0 0 0
159 1 3 31.1018 -2001 0 0 0 0 0
160 1 3 31.1018 -1998 0 0 0 0 0
161 1 3 31.1018 -1995 0 0 0 0 0
162 1 3 31.1018 -1992 0 0 0 0 0
163 1 3 31.1018 -1989 0 0 0 0 0
164 1 3 31.1018 -1986 0 0 0 0 0
165 1 3 31.1018 -1983 0 0 0 0 0
166 1 3 31.1018 -1980 0 0 0 0 0
167 1 3 31.1018 -1977 0 0 0 0 0
168 1 3 31.1018 -1974 0 0 0 0 0
169 1 3 31.1018 -1971 0 0 0 0 0
170 1 3 31.1018 -1968 0 0 0 0 0
171 1 3 31.1018 -1965 0 0 0 0 0
172 1 3 31.1018 -1962 0 0 0 0 0
173 1 3 31.1018 -1959 0 0 0 0 0
174 1 3 31.1018 -1956 0 0 0 0 0
175 1 3 31.1018 -1953 0 0 0 0 0
176 1 3 31.1018 -1950 0 0 0 0 0
177 1 3 31.1018 -1947 0 0 0 0 0
178 1 3 31.1018 -1944 0 0 0 0 0
179 1 3 31.1018 -1941 0 0 0 0 0
180 1 3 31.1018 -1938 0 0 0 0 0
181 1 3 31.1018 -1935 0 0 0 0 0
182 1 3 31.1018 -1932 0 0 0 0 0
183 1 3 31.1018 -1929 0 0 0 0 0
184 1 3 31.1018 -1926 0 0 0 0 0
185 1 3 31.1018 -1923 0 0 0 0 0
186 1 3 31.1018 -1920 0 0 0 0 0
187 1 3 31.1018 -1917 0 0 0 0 0
188 1 3 31.1018 -1914 0 0 0 0 0
189 1 3 31.1018 -1911 0 0 0 0 0
190 1 3 31.1018 -1908 0 0 0 0 0
191 1 3 31.1018 -1905 0 0 0 0 0
192 1 3 31.1018 -1902 0 0 0 0 0
193 1 3 31.1018 -1899 0 0 0 0 0
194 1 3 31.1018 -1896 0 0 0 0 0
195 1 3 31.1018 -1893 0 0 0 0 0
196 1 3 31.1018 -1890 0 0 0 0 0
197 1 3 31.1018 -1887 0 0 0 0 0
198 1 3 31.1018 -1884 0 0 0 0 0
199 1 3 31.1018 -1881 0 0 0 0 0
200 1 3 31.1018 -1878 0 0 0 0 0
201 1 3 31.1018 -1875 0 0 0 0 0
202 1 3 31.1018 -1872 0 0 0 0 0
203 1 3 31.1018 -1869 0 0 0 0 0
204 1 3 31.1018 -1866 0 0 0 0 0
205 1 3 31.1018 -1863 0 0 0 0 0
206 1 3 31.1018 -1860 0 0 0 0 0
207 1 3 31.1018 -1857 0 0 0 0 0
208 1 3 31.1018 -1854 0 0 0 0 0
209 1 3 31.1018 -1851 0 0 0 0 0
210 1 3 31.1018 -1848 0 0 0 0 0
211 1 3 31.1018 -1845 0 0 0 0 0
212 1 3 31.1018 -1842 0 0 0 0 0
213 1 3 31.1018 -1839 0 0 0 0 0
214 1 3 31.1018 -1836 0 0 0 0 0
215 1 3 31.1018 -1833 0 0 0 0 0
216 1 3 31.1018 -1830 0 0 0 0 0
217 1 3 31.1018 -1827 0 0 0 0 0
218 1 3 31.1018 -1824 0 0 0 0 0
219 1 3 31.1018 -1821 0 0 0 0 0
220 1 3 31.1018 -1818 0 0 0 0 0
221 1 3 31.1018 -1815 0 0 0 0 0
222 1 3 31.1018 -1812 0 0 0 0 0
223 1 3 31.1018 -1809 0 0 0 0 0
224 1 3 31.1018 -1806 0 0 0 0 0
225 1 3 31.1018 -1803 0 0 0 0 0
226 1 3 31.1018 -1800 0 0 0 0 0
227 1 3 31.1018 -1797 0 0 0 0 0
228 1 3 31.1018 -1794 0 0 0 0 0
229 1 3 31.1018 -1791 0 0 0 0 0
230 1 3 31.1018 -1788 0 0 0 0 0
231 1 3 31.1018 -1785 0 0 0 0 0
232 1 3 31.1018 -1782 0 0 0 0 0
233 1 3 31.1018 -1779 0 0 0 0 0
234 1 3 31.1018 -1776 0 0 0 0 0
235 1 3 31.1018 -1773 0 0 0 0 0
236 1 3 31.1018 -1770 0 0 0 0 0
237 1 3 31.1018 -1767 0 0 0 0 0
238 1 3 31.1018 -1764 0 0 0 0 0
239 1 3 31.1018 -1761 0 0 0 0 0
240 1 3 31.1018 -1758 0 0 0 0 0
241 1 3 31.1018 -1755 0 0 0 0 0
242 1 3 31.1018 -1752 0 0 0 0 0
243 1 3 31.1018 -1749 0 0 0 0 0
244 1 3 31.1018 -1746 0 0 0 0 0
245 1 3 31.1018 -1743 0 0 0 0 0
246 1 3 31.1018 -1740 0 0 0 0 0
247 1 3 31.1018 -1737 0 0 0 0 0
248 1 3 31.1018 -1734 0 0 0 0 0
249 1 3 31.1018 -1731 0 0 0 0 0
250 1 3 31.1018 -1728 0 0 0 0 0
251 1 3 31.1018 -1725 0 0 0 0 0
252 1 3 31.1018 -1722 0 0 0 0 0
253 1 3 31.1018 -1719 0 0 0 0 0
254 1 3 31.1018 -1716 0 0 0 0 0
255 1 3 31.1018 -1713 0 0 0 0 0
256 1 3 31.1018 -1710 0 0 0 0 0
257 1 3 31.1018 -1707 0 0 0 0 0
258 1 3 31.1018 -1704 0 0 0 0 0
259 1 3 31.1018 -1701 0 0 0 0 0
260 1 3 31.1018 -1698 0 0 0 0 0
261 1 3 31.1018 -1695 0 0 0 0 0
262 1 3 31.1018 -1692 0 0 0 0 0
263 1 3 31.1018 -1689 0 0 0 0 0
264 1 3 31.1018 -1686 0 0 0 0 0
265 1 3 31.1018 -1683 0 0 0 0 0
266 1 3 31.1018 -1680 0 0 0 0 0
267 1 3 31.1018 -1677 0 0 0 0 0
268 1 3 31.1018 -1674 0 0 0 0 0
269 1 3 31.1018 -1671 0 0 0 0 0
270 1 3 31.1018 -1668 0 0 0 0 0
271 1 3 31.1018 -1665 0 0 0 0 0
272 1 3 31.1018 -1662 0 0 0 0 0
273 1 3 31.1018 -1659 0 0 0 0 0
274 1 3 31.1018 -1656 0 0 0 0 0
275 1 3 31.1018 -1653 0 0 0 0 0
276 1 3 31.1018 -1650 0 0 0 0 0
277 1 3 31.1018 -1647 0 0 0 0 0
278 1 3 31.1018 -1644 0 0 0 0 0
279 1 3 31.1018 -1641 0 0 0 0 0
280 1 3 31.1018 -1638 0 0 0 0 0
281 1 3 31.1018 -1635 0 0 0 0 0
282 1 3 31.1018 -1632 0 0 0 0 0
283 1 3 31.1018 -1629 0 0 0 0 0
284 1 3 31.1018 -1626 0 0 0 0 0
285 1 3 31.1018 -1623 0 0 0 0 0
286 1 3 31.1018 -1620 0 0 0 0 0
287 1 3 31.1018 -1617 0 0 0 0 0
288 1 3 31.1018 -1614 0 0 0 0 0
289 1 3 31.1018 -1611 0 0 0 0 0
290 1 3 31.1018 -1608 0 0 0 0 0
291 1 3 31.1018 -1605 0 0 0 0 0
292 1 3 31.1018 -1602 0 0 0 0 0
293 1 3 31.1018 -1599 0 0 0 0 0
294 1 3 31.1018 -1596 0 0 0 0 0
295 1 3 31.1018 -1593 0 0 0 0 0
296 1 3 31.1018 -1590 0 0 0 0 0
297 1 3 31.1018 -1587 0 0 0 0 0
298 1 3 31.1018 -1584 0 0 0 0 0
299 1 3 31.1018 -1581 0 0 0 0 0
300 1 3 31.1018 -1578 0 0 0 0 0
301 1 3 31.1018 -1575 0 0 0 0 0
302 1 3 31.1018 -1572 0 0 0 0 0
303 1 3 31.1018 -1569 0 0 0 0 0
304 1 3 31.1018 -1566 0 0 0 0 0
305 1 3 31.1018 -1563 0 0 0 0 0
306 1 3 31.1018 -1560 0 0 0 0 0
307 1 3 31.1018 -1557 0 0 0 0 0
308 1 3 31.1018 -1554 0 0 0 0 0
309 1 3 31.1018 -1551 0 0 0 0 0
310 1 3 31.1018 -1548 0 0 0 0 0
311 1 3 31.1018 -1545 0 0 0 0 0
312 1 3 31.1018 -1542 0 0 0 0 0
313 1 3 31.1018 -1539 0 0 0 0 0
314 1 3 31.1018 -1536 0 0 0 0 0
315 1 3 31.1018 -1533 0 0 0 0 0
316 1 3 31.1018 -1530 0 0 0 0 0
317 1 3 31.1018 -1527 0 0 0 0 0
318 1 3 31.1018 -1524 0 0 0 0 0
319 1 3 31.1018 -1521 0 0 0 0 0
320 1 3 31.1018 -1518 0 0 0 0 0
321 1 3 31.1018 -1515 0 0 0 0 0
322 1 3 31.1018 -1512 0 0 0 0 0
323 1 3 31.1018 -1509 0 0 0 0 0
324 1 3 31.1018 -1506 0 0 0 0 0
325 1 3 31.1018 -1503 0 0 0 0 0
326 1 3 31.1018 -1500 0 0 0 0 0
327 1 3 31.1018 -1497 0 0 0 0 0
328 1 3 31.1018 -1494 0 0 0 0 0
329 1 3 31.1018 -1491 0 0 0 0 0
330 1 3 31.1018 -1488 0 0 0 0 0
331 1 3 31.1018 -1485 0 0 0 0 0
332 1 3 31.1018 -1482 0 0 0 0 0
333 1 3 31.1018 -1479 0 0 0 0 0
334 1 3 31.1018 -1476 0 0 0 0 0
335 1 3 31.1018 -1473 0 0 0 0 0
336 1 3 31.1018 -1470 0 0 0 0 0
337 1 3 31.1018 -1467 0 0 0 0 0
338 1 3 31.1018 -1464 0 0 0 0 0
339 1 3 31.1018 -1461 0 0 0 0 0
340 1 3 31.1018 -1458 0 0 0 0 0
341 1 3 31.1018 -1455 0 0 0 0 0
342 1 3 31.1018 -1452 0 0 0 0 0
343 1 3 31.1018 -1449 0 0 0 0 0
344 1 3 31.1018 -1446 0 0 0 0 0
345 1 3 31.1018 -1443 0 0 0 0 0
346 1 3 31.1018 -1440 0 0 0 0 0
347 1 3 31.1018 -1437 0 0 0 0 0
348 1 3 31.1018 -1434 0 0 0 0 0
349 1 3 31.1018 -1431 0 0 0 0 0
350 1 3 31.1018 -1428 0 0 0 0 0
351 1 3 31.1018 -1425 0 0 0 0 0
352 1 3 31.1018 -1422 0 0 0 0 0
353 1 3 31.1018 -1419 0 0 0 0 0
354 1 3 31.1018 -1416 0 0 0 0 0
355 1 3 31.1018 -1413 0 0 0 0 0
356 1 3 31.1018 -1410 0 0 0 0 0
357 1 3 31.1018 -1407 0 0 0 0 0
358 1 3 31.1018 -1404 0 0 0 0 0
359 1 3 31.1018 -1401 0 0 0 0 0
360 1 3 31.1018 -1398 0 0 0 0 0
361 1 3 31.1018 -1395 0 0 0 0 0
362 1 3 31.1018 -1392 0 0 0 0 0
363 1 3 31.1018 -1389 0 0 0 0 0
364 1 3 31.1018 -1386 0 0 0 0 0
365 1 3 31.1018 -1383 0 0 0 0 0
366 1 3 31.1018 -1380 0 0 0 0 0
367 1 3 31.1018 -1377 0 0 0 0 0
368 1 3 31.1018 -1374 0 0 0 0 0
369 1 3 31.1018 -1371 0 0 0 0 0
370 1 3 31.1018 -1368 0 0 0 0 0
371 1 3 31.1018 -1365 0 0 0 0 0
372 1 3 31.1018 -1362 0 0 0 0 0
373 1 3 31.1018 -1359 0 0 0 0 0
374 1 3 31.1018 -1356 0 0 0 0 0
375 1 3 31.1018 -1353 0 0 0 0 0
376 1 3 31.1018 -1350 0 0 0 0 0
377 1 3 31.1018 -1347 0 0 0 0 0
378 1 3 31.1018 -1344 0 0 0 0 0
379 1 3 31.1018 -1341 0 0 0 0 0
380 1 3 31.1018 -1338 0 0 0 0 0
381 1 3 31.1018 -1335 0 0 0 0 0
382 1 3 31.1018 -1332 0 0 0 0 0
383 1 3 31.1018 -1329 0 0 0 0 0
384 1 3 31.1018 -1326 0 0 0 0 0
385 1 3 31.1018 -1323 0 0 0 0 0
386 1 3 31.1018 -1320 0 0 0 0 0
387 1 3 31.1018 -1317 0 0 0 0 0
388 1 3 31.1018 -1314 0 0 0 0 0
389 1 3 31.1018 -1311 0 0 0 0 0
390 1 3 31.1018 -1308 0 0 0 0 0
391 1 3 31.1018 -1305 0 0 0 0 0
392 1 3 31.1018 -1302 0 0 0 0 0
393 1 3 31.1018 -1299 0 0 0 0 0
394 1 3 31.1018 -1296 0 0 0 0 0
395 1 3 31.1018 -1293 0 0 0 0 0
396 1 3 31.1018 -1290 0 0 0 0 0
397 1 3 31.1018 -1287 0 0 0 0 0
398 1 3 31.1018 -1284 0 0 0 0 0
399 1 3 31.1018 -1281 0 0 0 0 0
400 1 3 31.1018 -1278 0 0 0 0 0
401 1 3 31.1018 -1275 0 0 0 0 0
402 1 3 31.1018 -1272 0 0 0 0 0
403 1 3 31.1018 -1269 0 0 0 0 0
404 1 3 31.1018 -1266 0 0 0 0 0
405 1 3 31.1018 -1263 0 0 0 0 0
406 1 3 31.1018 -1260 0 0 0 0 0
407 1 3 31.1018 -1257 0 0 0 0 0
408 1 3 31.1018 -1254 0 0 0 0 0
409 1 3 31.1018 -1251 0 0 0 0 0
410 1 3 31.1018 -1248 0 0 0 0 0
411 1 3 31.1018 -1245 0 0 0 0 0
412 1 3 31.1018 -1242 0 0 0 0 0
413 1 3 31.1018 -1239 0 0 0 0 0
1651 2 3 31.1018 -1654.50010136577703 8.19261e-21 2.59757461521165212 0.0927576 0 -0.00147839
1652 2 3 31.1018 -1651.50010136577725 8.17772e-21 2.59757461519274235 0.0925889 0 -0.00147574
1653 2 3 31.1018 -1648.50010136577748 8.16282e-21 2.59757461517383303 0.0924203 0 -0.00147309
1654 2 3 31.1018 -1645.50010136577771 8.14792e-21 2.59757461515492327 0.0922516 0 -0.00147044
1655 2 3 31.1018 -1642.50010136577816 8.13303e-21 2.59757461513601395 0.0920832 0 -0.00146776
1656 2 3 31.1018 -1639.50010136577839 8.11813e-21 2.59757461511710419 0.0919146 0 -0.00146511
1657 2 3 31.1018 -1636.50010136577862 8.10324e-21 2.59757461509819487 0.091746 0 -0.00146246
1658 2 3 31.1018 -1633.50010136577885 8.08834e-21 2.59757461507928511 0.0915773 0 -0.00145981
1659 2 3 31.1018 -1630.50010136577907 8.07345e-21 2.59757461506037579 0.0914087 0 -0.00145716
1660 2 3 31.1018 -1627.50010136577953 8.05855e-21 2.59757461504146603 0.0912403 0 -0.00145448
1661 2 3 31.1018 -1624.50010136577976 8.04365e-21 2.59757461502255671 0.0910716 0 -0.00145183
1662 2 3 31.1018 -1621.50010136577998 8.02876e-21 2.59757461500364695 0.090903 0 -0.00144918
1663 2 3 31.1018 -1618.50010136578021 8.01386e-21 2.59757461498473763 0.0907344 0 -0.00144652
1664 2 3 31.1018 -1615.50010136578044 7.99897e-21 2.59757461496582787 0.0905657 0 -0.00144387
1665 2 3 31.1018 -1612.50010136578089 7.98407e-21 2.59757461494691855 0.0903973 0 -0.0014412
1666 2 3 31.1018 -1609.50010136578112 7.96918e-21 2.59757461492800878 0.0902287 0 -0.00143855
1667 2 3 31.1018 -1606.50010136578135 7.95428e-21 2.59757461490909947 0.09006 0 -0.00143589
1668 2 3 31.1018 -1603.50010136578157 7.93939e-21 2.5975746148901897 0.0898914 0 -0.00143324
1669 2 3 31.1018 -1600.5001013657818 7.92449e-21 2.59757461487128039 0.0897227 0 -0.00143059
1670 2 3 31.1018 -1597.50010136578226 7.90959e-21 2.59757461485237062 0.0895543 0 -0.00142791
1671 2 3 31.1018 -1594.50010136578248 7.8947e-21 2.5975746148334613 0.0893857 0 -0.00142526
1672 2 3 31.1018 -1591.50010136578271 7.8798e-21 2.59757461481455154 0.0892171 0 -0.00142261
1673 2 3 31.1018 -1588.50010136578294 7.86491e-21 2.59757461479564222 0.0890484 0 -0.00141996
1674 2 3 31.1018 -1585.50010136578317 7.85001e-21 2.59757461477673246 0.0888798 0 -0.00141731
1675 2 3 31.1018 -1582.50010136578362 7.83512e-21 2.59757461475782314 0.0887114 0 -0.00141463
1676 2 3 31.1018 -1579.50010136578385 7.82022e-21 2.59757461473891338 0.0885427 0 -0.00141198
1677 2 3 31.1018 -1576.50010136578408 7.80532e-21 2.59757461472000406 0.0883741 0 -0.00140933
1678 2 3 31.1018 -1573.5001013657843 7.79043e-21 2.5975746147010943 0.0882055 0 -0.00140668
1679 2 3 31.1018 -1570.50010136578453 7.77553e-21 2.59757461468218498 0.0880368 0 -0.00140403
1680 2 3 31.1018 -1567.50010136578499 7.76064e-21 2.59757461466327522 0.0878684 0 -0.00140135
1681 2 3 31.1018 -1564.50010136578521 7.74574e-21 2.5975746146443659 0.0876998 0 -0.0013987
1682 2 3 31.1018 -1561.50010136578544 7.73085e-21 2.59757461462545614 0.0875311 0 -0.00139605
1683 2 3 31.1018 -1558.50010136578567 7.71595e-21 2.59757461460654682 0.0873625 0 -0.00139339
1684 2 3 31.1018 -1555.50010136578589 7.70105e-21 2.59757461458763705 0.0871939 0 -0.00139074
1685 2 3 31.1018 -1552.50010136578635 7.68616e-21 2.59757461456872774 0.0870254 0 -0.00138807
1686 2 3 31.1018 -1549.50010136578658 7.67126e-21 2.59757461454981797 0.0868568 0 -0.00138541
1687 2 3 31.1018 -1546.5001013657868 7.65637e-21 2.59757461453090865 0.0866882 0 -0.00138276
1688 2 3 31.1018 -1543.50010136578703 7.64147e-21 2.59757461451199889 0.0865195 0 -0.00138011
1689 2 3 31.1018 -1540.50010136578749 7.62658e-21 2.59757461449308957 0.0863511 0 -0.00137744
1690 2 3 31.1018 -1537.50010136578771 7.61168e-21 2.59757461447417981 0.0861825 0 -0.00137478
1691 2 3 31.1018 -1534.50010136578794 7.59679e-21 2.59757461445527049 0.0860138 0 -0.00137213
1692 2 3 31.1018 -1531.50010136578817 7.58189e-21 2.59757461443636073 0.0858452 0 -0.00136948
1693 2 3 31.1018 -1528.5001013657884 7.56699e-21 2.59757461441745141 0.0856766 0 -0.00136683
1694 2 3 31.1018 -1525.50010136578885 7.5521e-21 2.59757461439854165 0.0855081 0 -0.00136415
1695 2 3 31.1018 -1522.50010136578908 7.5372e-21 2.59757461437963233 0.0853395 0 -0.0013615
1696 2 3 31.1018 -1519.50010136578931 7.52231e-21 2.59757461436072257 0.0851709 0 -0.00135885
1697 2 3 31.1018 -1516.50010136578953 7.50741e-21 2.59757461434181325 0.0850022 0 -0.0013562
1698 2 3 31.1018 -1513.50010136578976 7.49252e-21 2.59757461432290349 0.0848336 0 -0.00135355
1699 2 3 31.1018 -1510.50010136579021 7.47762e-21 2.59757461430399417 0.0846652 0 -0.00135087
1700 2 3 31.1018 -1507.50010136579044 7.46272e-21 2.5975746142850844 0.0844965 0 -0.00134822
1701 2 3 31.1018 -1504.50010136579067 7.44783e-21 2.59757461426617509 0.0843279 0 -0.00134557
1702 2 3 31.1018 -1501.5001013657909 7.43293e-21 2.59757461424726532 0.0841593 0 -0.00134292
1703 2 3 31.1018 -1498.50010136579112 7.41804e-21 2.597574614228356 0.0839906 0 -0.00134026
1704 2 3 31.1018 -1495.50010136579158 7.40314e-21 2.59757461420944624 0.0838222 0 -0.00133759
1705 2 3 31.1018 -1492.50010136579181 7.38825e-21 2.59757461419053692 0.0836536 0 -0.00133494
1706 2 3 31.1018 -1489.50010136579203 7.37335e-21 2.59757461417162716 0.0834849 0 -0.00133229
1707 2 3 31.1018 -1486.50010136579226 7.35845e-21 2.59757461415271784 0.0833163 0 -0.00132964
1708 2 3 31.1018 -1483.50010136579249 7.34356e-21 2.59757461413380808 0.0831477 0 -0.00132698
1709 2 3 31.1018 -1480.50010136579294 7.32866e-21 2.59757461411489876 0.0829792 0 -0.00132431
1710 2 3 31.1018 -1477.50010136579317 7.31377e-21 2.597574614095989 0.0828106 0 -0.00132166
1711 2 3 31.1018 -1474.5001013657934 7.29887e-21 2.59757461407707968 0.082642 0 -0.001319
1712 2 3 31.1018 -1471.50010136579363 7.28398e-21 2.59757461405816992 0.0824733 0 -0.00131635
1713 2 3 31.1018 -1468.50010136579385 7.26908e-21 2.5975746140392606 0.0823047 0 -0.0013137
1714 2 3 31.1018 -1465.50010136579431 7.25418e-21 2.59757461402035084 0.0821363 0 -0.00131103
1715 2 3 31.1018 -1462.50010136579454 7.23929e-21 2.59757461400144152 0.0819676 0 -0.00130837
1716 2 3 31.1018 -1459.50010136579476 7.22439e-21 2.59757461398253175 0.081799 0 -0.00130572
1717 2 3 31.1018 -1456.50010136579499 7.2095e-21 2.59757461396362244 0.0816304 0 -0.00130307
1718 2 3 31.1018 -1453.50010136579522 7.1946e-21 2.59757461394471267 0.0814617 0 -0.00130042
1719 2 3 31.1018 -1450.50010136579567 7.17971e-21 2.59757461392580336 0.0812933 0 -0.00129774
1720 2 3 31.1018 -1447.5001013657959 7.16481e-21 2.59757461390689359 0.0811247 0 -0.00129509
1721 2 3 31.1018 -1444.50010136579613 7.14992e-21 2.59757461388798427 0.080956 0 -0.00129244
1722 2 3 31.1018 -1441.50010136579635 7.13502e-21 2.59757461386907451 0.0807874 0 -0.00128979
1723 2 3 31.1018 -1438.50010136579658 7.12012e-21 2.59757461385016519 0.0806188 0 -0.00128714
1724 2 3 31.1018 -1435.50010136579704 7.10523e-21 2.59757461383125543 0.0804503 0 -0.00128446
1725 2 3 31.1018 -1432.50010136579726 7.09033e-21 2.59757461381234611 0.0802817 0 -0.00128181
1726 2 3 31.1018 -1429.50010136579749 7.07544e-21 2.59757461379343635 0.0801131 0 -0.00127916
1727 2 3 31.1018 -1426.50010136579772 7.06054e-21 2.59757461377452703 0.0799444 0 -0.00127651
1728 2 3 31.1018 -1423.50010136579795 7.04565e-21 2.59757461375561727 0.0797758 0 -0.00127385
1729 2 3 31.1018 -1420.5001013657984 7.03075e-21 2.59757461373670795 0.0796074 0 -0.00127118
1730 2 3 31.1018 -1417.50010136579863 7.01585e-21 2.59757461371779819 0.0794387 0 -0.00126853
1731 2 3 31.1018 -1414.50010136579886 7.00096e-21 2.59757461369888887 0.0792701 0 -0.00126588
1732 2 3 31.1018 -1411.50010136579908 6.98606e-21 2.59757461367997911 0.0791015 0 -0.00126322
1733 2 3 31.1018 -1408.50010136579931 6.97117e-21 2.59757461366106979 0.0789328 0 -0.00126057
1734 2 3 31.1018 -1405.50010136579976 6.95627e-21 2.59757461364216002 0.0787644 0 -0.0012579
1735 2 3 31.1018 -1402.50010136579999 6.94138e-21 2.59757461362325071 0.0785958 0 -0.00125524
1736 2 3 31.1018 -1399.50010136580022 6.92648e-21 2.59757461360434094 0.0784271 0 -0.00125259
1737 2 3 31.1018 -1396.50010136580045 6.91158e-21 2.59757461358543162 0.0782585 0 -0.00124994
1738 2 3 31.1018 -1393.5001013658009 6.89669e-21 2.59757461356652186 0.0780901 0 -0.00124727
1739 2 3 31.1018 -1390.50010136580113 6.88179e-21 2.59757461354761254 0.0779214 0 -0.00124462
1740 2 3 31.1018 -1387.50010136580136 6.8669e-21 2.59757461352870278 0.0777528 0 -0.00124196
1741 2 3 31.1018 -1384.50010136580158 6.852e-21 2.59757461350979346 0.0775842 0 -0.00123931
1742 2 3 31.1018 -1381.50010136580181 6.83711e-21 2.5975746134908837 0.0774155 0 -0.00123666
1743 2 3 31.1018 -1378.50010136580227 6.82221e-21 2.59757461347197438 0.0772471 0 -0.00123398
1744 2 3 31.1018 -1375.50010136580249 6.80732e-21 2.59757461345306462 0.0770785 0 -0.00123133
1745 2 3 31.1018 -1372.50010136580272 6.79242e-21 2.5975746134341553 0.0769098 0 -0.00122868
1746 2 3 31.1018 -1369.50010136580295 6.77752e-21 2.59757461341524554 0.0767412 0 -0.00122603
1747 2 3 31.1018 -1366.50010136580318 6.76263e-21 2.59757461339633622 0.0765726 0 -0.00122338
1748 2 3 31.1018 -1363.50010136580363 6.74773e-21 2.59757461337742646 0.0764041 0 -0.0012207
1749 2 3 31.1018 -1360.50010136580386 6.73284e-21 2.59757461335851714 0.0762355 0 -0.00121805
1750 2 3 31.1018 -1357.50010136580408 6.71794e-21 2.59757461333960737 0.0760669 0 -0.0012154
1751 2 3 31.1018 -1354.50010136580431 6.70305e-21 2.59757461332069806 0.0758982 0 -0.00121275
1752 2 3 31.1018 -1351.50010136580454 6.68815e-21 2.59757461330178829 0.0757296 0 -0.00121009
1753 2 3 31.1018 -1348.50010136580499 6.67325e-21 2.59757461328287897 0.0755612 0 -0.00120742
1754 2 3 31.1018 -1345.50010136580522 6.65836e-21 2.59757461326396921 0.0753925 0 -0.00120477
1755 2 3 31.1018 -1342.50010136580545 6.64346e-21 2.59757461324505989 0.0752239 0 -0.00120212
1756 2 3 31.1018 -1339.50010136580568 6.62857e-21 2.59757461322615013 0.0750553 0 -0.00119947
1757 2 3 31.1018 -1336.5001013658059 6.61367e-21 2.59757461320724081 0.0748866 0 -0.00119681
1758 2 3 31.1018 -1333.50010136580636 6.59878e-21 2.59757461318833105 0.0747182 0 -0.00119414
1759 2 3 31.1018 -1330.50010136580659 6.58388e-21 2.59757461316942173 0.0745496 0 -0.00119149
1760 2 3 31.1018 -1327.50010136580681 6.56898e-21 2.59757461315051197 0.0743809 0 -0.00118883
1761 2 3 31.1018 -1324.50010136580704 6.55409e-21 2.59757461313160265 0.0742123 0 -0.00118618
1762 2 3 31.1018 -1321.50010136580727 6.53919e-21 2.59757461311269289 0.0740436 0 -0.00118353
1763 2 3 31.1018 -1318.50010136580772 6.5243e-21 2.59757461309378357 0.0738752 0 -0.00118086
1764 2 3 31.1018 -1315.50010136580795 6.5094e-21 2.59757461307487381 0.0737066 0 -0.00117821
1765 2 3 31.1018 -1312.50010136580818 6.49451e-21 2.59757461305596449 0.073538 0 -0.00117555
1766 2 3 31.1018 -1309.5001013658084 6.47961e-21 2.59757461303705472 0.0733693 0 -0.0011729
1767 2 3 31.1018 -1306.50010136580863 6.46472e-21 2.59757461301814541 0.0732007 0 -0.00117025
1768 2 3 31.1018 -1303.50010136580909 6.44982e-21 2.59757461299923564 0.0730323 0 -0.00116757
1769 2 3 31.1018 -1300.50010136580931 6.43492e-21 2.59757461298032633 0.0728636 0 -0.00116492
1770 2 3 31.1018 -1297.50010136580954 6.42003e-21 2.59757461296141656 0.072695 0 -0.00116227
1771 2 3 31.1018 -1294.50010136580977 6.40513e-21 2.59757461294250724 0.0725263 0 -0.00115962
1772 2 3 31.1018 -1291.50010136581 6.39024e-21 2.59757461292359748 0.0723577 0 -0.00115697
1773 2 3 31.1018 -1288.50010136581045 6.37534e-21 2.59757461290468816 0.0721893 0 -0.00115429
1774 2 3 31.1018 -1285.50010136581068 6.36045e-21 2.5975746128857784 0.0720207 0 -0.00115164
1775 2 3 31.1018 -1282.50010136581091 6.34555e-21 2.59757461286686908 0.071852 0 -0.00114899
1776 2 3 31.1018 -1279.50010136581113 6.33065e-21 2.59757461284795932 0.0716834 0 -0.00114634
1777 2 3 31.1018 -1276.50010136581136 6.31576e-21 2.59757461282905 0.0715147 0 -0.00114369
1778 2 3 31.1018 -1273.50010136581182 6.30086e-21 2.59757461281014024 0.0713463 0 -0.00114101
1779 2 3 31.1018 -1270.50010136581204 6.28597e-21 2.59757461279123092 0.0711777 0 -0.00113836
1780 2 3 31.1018 -1267.50010136581227 6.27107e-21 2.59757461277232116 0.071009 0 -0.00113571
1781 2 3 31.1018 -1264.5001013658125 6.25618e-21 2.59757461275341184 0.0708404 0 -0.00113306
1782 2 3 31.1018 -1261.50010136581272 6.24128e-21 2.59757461273450208 0.0706718 0 -0.0011304
1783 2 3 31.1018 -1258.50010136581318 6.22638e-21 2.59757461271559276 0.0705034 0 -0.00112773
1784 2 3 31.1018 -1255.50010136581341 6.21149e-21 2.59757461269668299 0.0703347 0 -0.00112508
1785 2 3 31.1018 -1252.50010136581363 6.19659e-21 2.59757461267777368 0.0701661 0 -0.00112243
1786 2 3 31.1018 -1249.50010136581386 6.1817e-21 2.59757461265886391 0.0699974 0 -0.00111977
1787 2 3 31.1018 -1246.50010136581432 6.1668e-21 2.59757461263995459 0.069829 0 -0.0011171
1788 2 3 31.1018 -1243.50010136581454 6.15191e-21 2.59757461262104483 0.0696604 0 -0.00111445
1789 2 3 31.1018 -1240.50010136581477 6.13701e-21 2.59757461260213551 0.0694917 0 -0.0011118
414 1 3 31.1018 -1236 0 0 0 0 0
415 1 3 31.1018 -1233 0 0 0 0 0
416 1 3 31.1018 -1230 0 0 0 0 0
417 1 3 31.1018 -1227 0 0 0 0 0
418 1 3 31.1018 -1224 0 0 0 0 0
419 1 3 31.1018 -1221 0 0 0 0 0
420 1 3 31.1018 -1218 0 0 0 0 0
421 1 3 31.1018 -1215 0 0 0 0 0
422 1 3 31.1018 -1212 0 0 0 0 0
423 1 3 31.1018 -1209 0 0 0 0 0
424 1 3 31.1018 -1206 0 0 0 0 0
425 1 3 31.1018 -1203 0 0 0 0 0
426 1 3 31.1018 -1200 0 0 0 0 0
427 1 3 31.1018 -1197 0 0 0 0 0
428 1 3 31.1018 -1194 0 0 0 0 0
429 1 3 31.1018 -1191 0 0 0 0 0
430 1 3 31.1018 -1188 0 0 0 0 0
431 1 3 31.1018 -1185 0 0 0 0 0
432 1 3 31.1018 -1182 0 0 0 0 0
433 1 3 31.1018 -1179 0 0 0 0 0
434 1 3 31.1018 -1176 0 0 0 0 0
435 1 3 31.1018 -1173 0 0 0 0 0
436 1 3 31.1018 -1170 0 0 0 0 0
437 1 3 31.1018 -1167 0 0 0 0 0
438 1 3 31.1018 -1164 0 0 0 0 0
439 1 3 31.1018 -1161 0 0 0 0 0
440 1 3 31.1018 -1158 0 0 0 0 0
441 1 3 31.1018 -1155 0 0 0 0 0
442 1 3 31.1018 -1152 0 0 0 0 0
443 1 3 31.1018 -1149 0 0 0 0 0
444 1 3 31.1018 -1146 0 0 0 0 0
445 1 3 31.1018 -1143 0 0 0 0 0
446 1 3 31.1018 -1140 0 0 0 0 0
447 1 3 31.1018 -1137 0 0 0 0 0
448 1 3 31.1018 -1134 0 0 0 0 0
449 1 3 31.1018 -1131 0 0 0 0 0
450 1 3 31.1018 -1128 0 0 0 0 0
451 1 3 31.1018 -1125 0 0 0 0 0
452 1 3 31.1018 -1122 0 0 0 0 0
453 1 3 31.1018 -1119 0 0 0 0 0
454 1 3 31.1018 -1116 0 0 0 0 0
455 1 3 31.1018 -1113 0 0 0 0 0
456 1 3 31.1018 -1110 0 0 0 0 0
457 1 3 31.1018 -1107 0 0 0 0 0
458 1 3 31.1018 -1104 0 0 0 0 0
459 1 3 31.1018 -1101 0 0 0 0 0
460 1 3 31.1018 -1098 0 0 0 0 0
461 1 3 31.1018 -1095 0 0 0 0 0
462 1 3 31.1018 -1092 0 0 0 0 0
463 1 3 31.1018 -1089 0 0 0 0 0
464 1 3 31.1018 -1086 0 0 0 0 0
465 1 3 31.1018 -1083 0 0 0 0 0
466 1 3 31.1018 -1080 0 0 0 0 0
467 1 3 31.1018 -1077 0 0 0 0 0
468 1 3 31.1018 -1074 0 0 0 0 0
469 1 3 31.1018 -1071 0 0 0 0 0
470 1 3 31.1018 -1068 0 0 0 0 0
471 1 3 31.1018 -1065 0 0 0 0 0
472 1 3 31.1018 -1062 0 0 0 0 0
473 1 3 31.1018 -1059 0 0 0 0 0
474 1 3 31.1018 -1056 0 0 0 0 0
475 1 3 31.1018 -1053 0 0 0 0 0
476 1 3 31.1018 -1050 0 0 0 0 0
477 1 3 31.1018 -1047 0 0 0 0 0
478 1 3 31.1018 -1044 0 0 0 0 0
479 1 3 31.1018 -1041 0 0 0 0 0
480 1 3 31.1018 -1038 0 0 0 0 0
481 1 3 31.1018 -1035 0 0 0 0 0
482 1 3 31.1018 -1032 0 0 0 0 0
483 1 3 31.1018 -1029 0 0 0 0 0
484 1 3 31.1018 -1026 0 0 0 0 0
485 1 3 31.1018 -1023 0 0 0 0 0
486 1 3 31.1018 -1020 0 0 0 0 0
487 1 3 31.1018 -1017 0 0 0 0 0
488 1 3 31.1018 -1014 0 0 0 0 0
489 1 3 31.1018 -1011 0 0 0 0 0
490 1 3 31.1018 -1008 0 0 0 0 0
491 1 3 31.1018 -1005 0 0 0 0 0
492 1 3 31.1018 -1002 0 0 0 0 0
493 1 3 31.1018 -999 0 0 0 0 0
494 1 3 31.1018 -996 0 0 0 0 0
495 1 3 31.1018 -993 0 0 0 0 0
496 1 3 31.1018 -990 0 0 0 0 0
497 1 3 31.1018 -987 0 0 0 0 0
498 1 3 31.1018 -984 0 0 0 0 0
499 1 3 31.1018 -981 0 0 0 0 0
500 1 3 31.1018 -978 0 0 0 0 0
501 1 3 31.1018 -975 0 0 0 0 0
502 1 3 31.1018 -972 0 0 0 0 0
503 1 3 31.1018 -969 0 0 0 0 0
504 1 3 31.1018 -966 0 0 0 0 0
505 1 3 31.1018 -963 0 0 0 0 0
506 1 3 31.1018 -960 0 0 0 0 0
507 1 3 31.1018 -957 0 0 0 0 0
508 1 3 31.1018 -954 0 0 0 0 0
509 1 3 31.1018 -951 0 0 0 0 0
510 1 3 31.1018 -948 0 0 0 0 0
511 1 3 31.1018 -945 0 0 0 0 0
512 1 3 31.1018 -942 0 0 0 0 0
513 1 3 31.1018 -939 0 0 0 0 0
514 1 3 31.1018 -936 0 0 0 0 0
515 1 3 31.1018 -933 0 0 0 0 0
516 1 3 31.1018 -930 0 0 0 0 0
517 1 3 31.1018 -927 0 0 0 0 0
518 1 3 31.1018 -924 0 0 0 0 0
519 1 3 31.1018 -921 0 0 0 0 0
520 1 3 31.1018 -918 0 0 0 0 0
521 1 3 31.1018 -915 0 0 0 0 0
522 1 3 31.1018 -912 0 0 0 0 0
523 1 3 31.1018 -909 0 0 0 0 0
524 1 3 31.1018 -906 0 0 0 0 0
525 1 3 31.1018 -903 0 0 0 0 0
526 1 3 31.1018 -900 0 0 0 0 0
527 1 3 31.1018 -897 0 0 0 0 0