ITEM: TIMESTEP
3300000
ITEM: NUMBER OF ATOMS
3751
ITEM: BOX BOUNDS pp pp pp
-3.3750000000000000e+03 3.3750000000000000e+03
-1.0000000000000000e+02 1.0000000000000000e+02
-1.0000000000000000e+02 1.0000000000000000e+02
ITEM: ATOMS id type diameter mass xu yu zu fx fy fz
1 1 3 31.1018 -3375 0 0 0 0 0
2 1 3 31.1018 -3372 0 0 0 0 0
3 1 3 31.1018 -3369 0 0 0 0 0
4 1 3 31.1018 -3366 0 0 0 0 0
5 1 3 31.1018 -3363 0 0 0 0 0
6 1 3 31.1018 -3360 0 0 0 0 0
7 1 3 31.1018 -3357 0 0 0 0 0
8 1 3 31.1018 -3354 0 0 0 0 0
9 1 3 31.1018 -3351 0 0 0 0 0
10 1 3 31.1018 -3348 0 0 0 0 0
11 1 3 31.1018 -3345 0 0 0 0 0
12 1 3 31.1018 -3342 0 0 0 0 0
13 1 3 31.1018 -3339 0 0 0 0 0
14 1 3 31.1018 -3336 0 0 0 0 0
15 1 3 31.1018 -3333 0 0 0 0 0
16 1 3 31.1018 -3330 0 0 0 0 0
17 1 3 31.1018 -3327 0 0 0 0 0
18 1 3 31.1018 -3324 0 0 0 0 0
19 1 3 31.1018 -3321 0 0 0 0 0
20 1 3 31.1018 -3318 0 0 0 0 0
21 1 3 31.1018 -3315 0 0 0 0 0
22 1 3 31.1018 -3312 0 0 0 0 0
23 1 3 31.1018 -3309 0 0 0 0 0
24 1 3 31.1018 -3306 0 0 0 0 0
25 1 3 31.1018 -3303 0 0 0 0 0
26 1 3 31.1018 -3300 0 0 0 0 0
27 1 3 31.1018 -3297 0 0 0 0 0
28 1 3 31.1018 -3294 0 0 0 0 0
29 1 3 31.1018 -3291 0 0 0 0 0
30 1 3 31.1018 -3288 0 0 0 0 0
31 1 3 31.1018 -3285 0 0 0 0 0
32 1 3 31.1018 -3282 0 0 0 0 0
33 1 3 31.1018 -3279 0 0 0 0 0
34 1 3 31.1018 -3276 0 0 0 0 0
35 1 3 31.1018 -3273 0 0 0 0 0
36 1 3 31.1018 -3270 0 0 0 0 0
37 1 3 31.1018 -3267 0 0 0 0 0
38 1 3 31.1018 -3264 0 0 0 0 0
39 1 3 31.1018 -3261 0 0 0 0 0
40 1 3 31.1018 -3258 0 0 0 0 0
41 1 3 31.1018 -3255 0 0 0 0 0
42 1 3 31.1018 -3252 0 0 0 0 0
43 1 3 31.1018 -3249 0 0 0 0 0
44 1 3 31.1018 -3246 0 0 0 0 0
45 1 3 31.1018 -3243 0 0 0 0 0
46 1 3 31.1018 -3240 0 0 0 0 0
47 1 3 31.1018 -3237 0 0 0 0 0
48 1 3 31.1018 -3234 0 0 0 0 0
49 1 3 31.1018 -3231 0 0 0 0 0
50 1 3 31.1018 -3228 0 0 0 0 0
51 1 3 31.1018 -3225 0 0 0 0 0
52 1 3 31.1018 -3222 0 0 0 0 0
53 1 3 31.1018 -3219 0 0 0 0 0
54 1 3 31.1018 -3216 0 0 0 0 0
55 1 3 31.1018 -3213 0 0 0 0 0
56 1 3 31.1018 -3210 0 0 0 0 0
57 1 3 31.1018 -3207 0 0 0 0 0
58 1 3 31.1018 -3204 0 0 0 0 0
59 1 3 31.1018 -3201 0 0 0 0 0
60 1 3 31.1018 -3198 0 0 0 0 0
61 1 3 31.1018 -3195 0 0 0 0 0
62 1 3 31.1018 -3192 0 0 0 0 0
63 1 3 31.1018 -3189 0 0 0 0 0
64 1 3 31.1018 -3186 0 0 0 0 0
65 1 3 31.1018 -3183 0 0 0 0 0
66 1 3 31.1018 -3180 0 0 0 0 0
67 1 3 31.1018 -3177 0 0 0 0 0
68 1 3 31.1018 -3174 0 0 0 0 0
69 1 3 31.1018 -3171 0 0 0 0 0
70 1 3 31.1018 -3168 0 0 0 0 0
71 1 3 31.1018 -3165 0 0 0 0 0
72 1 3 31.1018 -3162 0 0 0 0 0
73 1 3 31.1018 -3159 0 0 0 0 0
74 1 3 31.1018 -3156 0 0 0 0 0
75 1 3 31.1018 -3153 0 0 0 0 0
76 1 3 31.1018 -3150 0 0 0 0 0
77 1 3 31.1018 -3147 0 0 0 0 0
78 1 3 31.1018 -3144 0 0 0 0 0
79 1 3 31.1018 -3141 0 0 0 0 0
80 1 3 31.1018 -3138 0 0 0 0 0
81 1 3 31.1018 -3135 0 0 0 0 0
82 1 3 31.1018 -3132 0 0 0 0 0
83 1 3 31.1018 -3129 0 0 0 0 0
84 1 3 31.1018 -3126 0 0 0 0 0
85 1 3 31.1018 -3123 0 0 0 0 0
86 1 3 31.1018 -3120 0 0 0 0 0
87 1 3 31.1018 -3117 0 0 0 0 0
88 1 3 31.1018 -3114 0 0 0 0 0
89 1 3 31.1018 -3111 0 0 0 0 0
90 1 3 31.1018 -3108 0 0 0 0 0
91 1 3 31.1018 -3105 0 0 0 0 0
92 1 3 31.1018 -3102 0 0 0 0 0
93 1 3 31.1018 -3099 0 0 0 0 0
94 1 3 31.1018 -3096 0 0 0 0 0
95 1 3 31.1018 -3093 0 0 0 0 0
96 1 3 31.1018 -3090 0 0 0 0 0
97 1 3 31.1018 -3087 0 0 0 0 0
98 1 3 31.1018 -3084 0 0 0 0 0
99 1 3 31.1018 -3081 0 0 0 0 0
100 1 3 31.1018 -3078 0 0 0 0 0
101 1 3 31.1018 -3075 0 0 0 0 0
102 1 3 31.1018 -3072 0 0 0 0 0
103 1 3 31.1018 -3069 0 0 0 0 0
104 1 3 31.1018 -3066 0 0 0 0 0
105 1 3 31.1018 -3063 0 0 0 0 0
106 1 3 31.1018 -3060 0 0 0 0 0
107 1 3 31.1018 -3057 0 0 0 0 0
108 1 3 31.1018 -3054 0 0 0 0 0
109 1 3 31.1018 -3051 0 0 0 0 0
110 1 3 31.1018 -3048 0 0 0 0 0
111 1 3 31.1018 -3045 0 0 0 0 0
112 1 3 31.1018 -3042 0 0 0 0 0
113 1 3 31.1018 -3039 0 0 0 0 0
114 1 3 31.1018 -3036 0 0 0 0 0
115 1 3 31.1018 -3033 0 0 0 0 0
116 1 3 31.1018 -3030 0 0 0 0 0
117 1 3 31.1018 -3027 0 0 0 0 0
118 1 3 31.1018 -3024 0 0 0 0 0
119 1 3 31.1018 -3021 0 0 0 0 0
120 1 3 31.1018 -3018 0 0 0 0 0
121 1 3 31.1018 -3015 0 0 0 0 0
122 1 3 31.1018 -3012 0 0 0 0 0
123 1 3 31.1018 -3009 0 0 0 0 0
124 1 3 31.1018 -3006 0 0 0 0 0
125 1 3 31.1018 -3003 0 0 0 0 0
126 1 3 31.1018 -3000 0 0 0 0 0
127 1 3 31.1018 -2997 0 0 0 0 0
128 1 3 31.1018 -2994 0 0 0 0 0
129 1 3 31.1018 -2991 0 0 0 0 0
130 1 3 31.1018 -2988 0 0 0 0 0
131 1 3 31.1018 -2985 0 0 0 0 0
132 1 3 31.1018 -2982 0 0 0 0 0
133 1 3 31.1018 -2979 0 0 0 0 0
134 1 3 31.1018 -2976 0 0 0 0 0
135 1 3 31.1018 -2973 0 0 0 0 0
136 1 3 31.1018 -2970 0 0 0 0 0
137 1 3 31.1018 -2967 0 0 0 0 0
138 1 3 31.1018 -2964 0 0 0 0 0
139 1 3 31.1018 -2961 0 0 0 0 0
140 1 3 31.1018 -2958 0 0 0 0 0
141 1 3 31.1018 -2955 0 0 0 0 0
142 1 3 31.1018 -2952 0 0 0 0 0
143 1 3 31.1018 -2949 0 0 0 0 0
144 1 3 31.1018 -2946 0 0 0 0 0
145 1 3 31.1018 -2943 0 0 0 0 0
146 1 3 31.1018 -2940 0 0 0 0 0
147 1 3 31.1018 -2937 0 0 0 0 0
148 1 3 31.1018 -2934 0 0 0 0 0
149 1 3 31.1018 -2931 0 0 0 0 0
150 1 3 31.1018 -2928 0 0 0 0 0
151 1 3 31.1018 -2925 0 0 0 0 0
152 1 3 31.1018 -2922 0 0 0 0 0
153 1 3 31.1018 -2919 0 0 0 0 0
154 1 3 31.1018 -2916 0 0 0 0 0
155 1 3 31.1018 -2913 0 0 0 0 0
156 1 3 31.1018 -2910 0 0 0 0 0
157 1 3 31.1018 -2907 0 0 0 0 0
158 1 3 31.1018 -2904 0 0 0 0 0
159 1 3 31.1018 -2901 0 0 0 0 0
160 1 3 31.1018 -2898 0 0 0 0 0
161 1 3 31.1018 -2895 0 0 0 0 0
162 1 3 31.1018 -2892 0 0 0 0 0
163 1 3 31.1018 -2889 0 0 0 0 0
164 1 3 31.1018 -2886 0 0 0 0 0
165 1 3 31.1018 -2883 0 0 0 0 0
166 1 3 31.1018 -2880 0 0 0 0 0
167 1 3 31.1018 -2877 0 0 0 0 0
168 1 3 31.1018 -2874 0 0 0 0 0
169 1 3 31.1018 -2871 0 0 0 0 0
170 1 3 31.1018 -2868 0 0 0 0 0
171 1 3 31.1018 -2865 0 0 0 0 0
172 1 3 31.1018 -2862 0 0 0 0 0
173 1 3 31.1018 -2859 0 0 0 0 0
174 1 3 31.1018 -2856 0 0 0 0 0
175 1 3 31.1018 -2853 0 0 0 0 0
176 1 3 31.1018 -2850 0 0 0 0 0
177 1 3 31.1018 -2847 0 0 0 0 0
178 1 3 31.1018 -2844 0 0 0 0 0
179 1 3 31.1018 -2841 0 0 0 0 0
180 1 3 31.1018 -2838 0 0 0 0 0
181 1 3 31.1018 -2835 0 0 0 0 0
182 1 3 31.1018 -2832 0 0 0 0 0
183 1 3 31.1018 -2829 0 0 0 0 0
184 1 3 31.1018 -2826 0 0 0 0 0
185 1 3 31.1018 -2823 0 0 0 0 0
186 1 3 31.1018 -2820 0 0 0 0 0
187 1 3 31.1018 -2817 0 0 0 0 0
188 1 3 31.1018 -2814 0 0 0 0 0
189 1 3 31.1018 -2811 0 0 0 0 0
190 1 3 31.1018 -2808 0 0 0 0 0
191 1 3 31.1018 -2805 0 0 0 0 0
192 1 3 31.1018 -2802 0 0 0 0 0
193 1 3 31.1018 -2799 0 0 0 0 0
194 1 3 31.1018 -2796 0 0 0 0 0
195 1 3 31.1018 -2793 0 0 0 0 0
196 1 3 31.1018 -2790 0 0 0 0 0
197 1 3 31.1018 -2787 0 0 0 0 0
198 1 3 31.1018 -2784 0 0 0 0 0
199 1 3 31.1018 -2781 0 0 0 0 0
200 1 3 31.1018 -2778 0 0 0 0 0
201 1 3 31.1018 -2775 0 0 0 0 0
202 1 3 31.1018 -2772 0 0 0 0 0
203 1 3 31.1018 -2769 0 0 0 0 0
204 1 3 31.1018 -2766 0 0 0 0 0
205 1 3 31.1018 -2763 0 0 0 0 0
206 1 3 31.1018 -2760 0 0 0 0 0
207 1 3 31.1018 -2757 0 0 0 0 0
208 1 3 31.1018 -2754 0 0 0 0 0
209 1 3 31.1018 -2751 0 0 0 0 0
210 1 3 31.1018 -2748 0 0 0 0 0
211 1 3 31.1018 -2745 0 0 0 0 0
212 1 3 31.1018 -2742 0 0 0 0 0
213 1 3 31.1018 -2739 0 0 0 0 0
214 1 3 31.1018 -2736 0 0 0 0 0
215 1 3 31.1018 -2733 0 0 0 0 0
216 1 3 31.1018 -2730 0 0 0 0 0
217 1 3 31.1018 -2727 0 0 0 0 0
218 1 3 31.1018 -2724 0 0 0 0 0
219 1 3 31.1018 -2721 0 0 0 0 0
220 1 3 31.1018 -2718 0 0 0 0 0
221 1 3 31.1018 -2715 0 0 0 0 0
222 1 3 31.1018 -2712 0 0 0 0 0
223 1 3 31.1018 -2709 0 0 0 0 0
224 1 3 31.1018 -2706 0 0 0 0 0
225 1 3 31.1018 -2703 0 0 0 0 0
226 1 3 31.1018 -2700 0 0 0 0 0
227 1 3 31.1018 -2697 0 0 0 0 0
228 1 3 31.1018 -2694 0 0 0 0 0
229 1 3 31.1018 -2691 0 0 0 0 0
230 1 3 31.1018 -2688 0 0 0 0 0
231 1 3 31.1018 -2685 0 0 0 0 0
232 1 3 31.1018 -2682 0 0 0 0 0
233 1 3 31.1018 -2679 0 0 0 0 0
234 1 3 31.1018 -2676 0 0 0 0 0
235 1 3 31.1018 -2673 0 0 0 0 0
236 1 3 31.1018 -2670 0 0 0 0 0
237 1 3 31.1018 -2667 0 0 0 0 0
238 1 3 31.1018 -2664 0 0 0 0 0
239 1 3 31.1018 -2661 0 0 0 0 0
240 1 3 31.1018 -2658 0 0 0 0 0
241 1 3 31.1018 -2655 0 0 0 0 0
242 1 3 31.1018 -2652 0 0 0 0 0
243 1 3 31.1018 -2649 0 0 0 0 0
244 1 3 31.1018 -2646 0 0 0 0 0
245 1 3 31.1018 -2643 0 0 0 0 0
246 1 3 31.1018 -2640 0 0 0 0 0
247 1 3 31.1018 -2637 0 0 0 0 0
248 1 3 31.1018 -2634 0 0 0 0 0
249 1 3 31.1018 -2631 0 0 0 0 0
250 1 3 31.1018 -2628 0 0 0 0 0
251 1 3 31.1018 -2625 0 0 0 0 0
252 1 3 31.1018 -2622 0 0 0 0 0
253 1 3 31.1018 -2619 0 0 0 0 0
254 1 3 31.1018 -2616 0 0 0 0 0
255 1 3 31.1018 -2613 0 0 0 0 0
256 1 3 31.1018 -2610 0 0 0 0 0
257 1 3 31.1018 -2607 0 0 0 0 0
258 1 3 31.1018 -2604 0 0 0 0 0
259 1 3 31.1018 -2601 0 0 0 0 0
260 1 3 31.1018 -2598 0 0 0 0 0
261 1 3 31.1018 -2595 0 0 0 0 0
262 1 3 31.1018 -2592 0 0 0 0 0
263 1 3 31.1018 -2589 0 0 0 0 0
264 1 3 31.1018 -2586 0 0 0 0 0
265 1 3 31.1018 -2583 0 0 0 0 0
266 1 3 31.1018 -2580 0 0 0 0 0
267 1 3 31.1018 -2577 0 0 0 0 0
268 1 3 31.1018 -2574 0 0 0 0 0
269 1 3 31.1018 -2571 0 0 0 0 0
270 1 3 31.1018 -2568 0 0 0 0 0
271 1 3 31.1018 -2565 0 0 0 0 0
272 1 3 31.1018 -2562 0 0 0 0 0
273 1 3 31.1018 -2559 0 0 0 0 0
274 1 3 31.1018 -2556 0 0 0 0 0
275 1 3 31.1018 -2553 0 0 0 0 0
276 1 3 31.1018 -2550 0 0 0 0 0
277 1 3 31.1018 -2547 0 0 0 0 0
278 1 3 31.1018 -2544 0 0 0 0 0
279 1 3 31.1018 -2541 0 0 0 0 0
280 1 3 31.1018 -2538 0 0 0 0 0
281 1 3 31.1018 -2535 0 0 0 0 0
282 1 3 31.1018 -2532 0 0 0 0 0
283 1 3 31.1018 -2529 0 0 0 0 0
284 1 3 31.1018 -2526 0 0 0 0 0
285 1 3 31.1018 -2523 0 0 0 0 0
286 1 3 31.1018 -2520 0 0 0 0 0
287 1 3 31.1018 -2517 0 0 0 0 0
288 1 3 31.1018 -2514 0 0 0 0 0
289 1 3 31.1018 -2511 0 0 0 0 0
290 1 3 31.1018 -2508 0 0 0 0 0
291 1 3 31.1018 -2505 0 0 0 0 0
292 1 3 31.1018 -2502 0 0 0 0 0
293 1 3 31.1018 -2499 0 0 0 0 0
294 1 3 31.1018 -2496 0 0 0 0 0
295 1 3 31.1018 -2493 0 0 0 0 0
296 1 3 31.1018 -2490 0 0 0 0 0
297 1 3 31.1018 -2487 0 0 0 0 0
298 1 3 31.1018 -2484 0 0 0 0 0
299 1 3 31.1018 -2481 0 0 0 0 0
300 1 3 31.1018 -2478 0 0 0 0 0
301 1 3 31.1018 -2475 0 0 0 0 0
302 1 3 31.1018 -2472 0 0 0 0 0
303 1 3 31.1018 -2469 0 0 0 0 0
304 1 3 31.1018 -2466 0 0 0 0 0
305 1 3 31.1018 -2463 0 0 0 0 0
306 1 3 31.1018 -2460 0 0 0 0 0
307 1 3 31.1018 -2457 0 0 0 0 0
308 1 3 31.1018 -2454 0 0 0 0 0
309 1 3 31.1018 -2451 0 0 0 0 0
310 1 3 31.1018 -2448 0 0 0 0 0
311 1 3 31.1018 -2445 0 0 0 0 0
312 1 3 31.1018 -2442 0 0 0 0 0
313 1 3 31.1018 -2439 0 0 0 0 0
314 1 3 31.1018 -2436 0 0 0 0 0
315 1 3 31.1018 -2433 0 0 0 0 0
316 1 3 31.1018 -2430 0 0 0 0 0
317 1 3 31.1018 -2427 0 0 0 0 0
318 1 3 31.1018 -2424 0 0 0 0 0
319 1 3 31.1018 -2421 0 0 0 0 0
320 1 3 31.1018 -2418 0 0 0 0 0
321 1 3 31.1018 -2415 0 0 0 0 0
322 1 3 31.1018 -2412 0 0 0 0 0
323 1 3 31.1018 -2409 0 0 0 0 0
324 1 3 31.1018 -2406 0 0 0 0 0
325 1 3 31.1018 -2403 0 0 0 0 0
326 1 3 31.1018 -2400 0 0 0 0 0
327 1 3 31.1018 -2397 0 0 0 0 0
328 1 3 31.1018 -2394 0 0 0 0 0
329 1 3 31.1018 -2391 0 0 0 0 0
330 1 3 31.1018 -2388 0 0 0 0 0
331 1 3 31.1018 -2385 0 0 0 0 0
332 1 3 31.1018 -2382 0 0 0 0 0
333 1 3 31.1018 -2379 0 0 0 0 0
334 1 3 31.1018 -2376 0 0 0 0 0
335 1 3 31.1018 -2373 0 0 0 0 0
336 1 3 31.1018 -2370 0 0 0 0 0
337 1 3 31.1018 -2367 0 0 0 0 0
338 1 3 31.1018 -2364 0 0 0 0 0
339 1 3 31.1018 -2361 0 0 0 0 0
340 1 3 31.1018 -2358 0 0 0 0 0
341 1 3 31.1018 -2355 0 0 0 0 0
342 1 3 31.1018 -2352 0 0 0 0 0
343 1 3 31.1018 -2349 0 0 0 0 0
344 1 3 31.1018 -2346 0 0 0 0 0
345 1 3 31.1018 -2343 0 0 0 0 0
346 1 3 31.1018 -2340 0 0 0 0 0
347 1 3 31.1018 -2337 0 0 0 0 0
348 1 3 31.1018 -2334 0 0 0 0 0
349 1 3 31.1018 -2331 0 0 0 0 0
350 1 3 31.1018 -2328 0 0 0 0 0
351 1 3 31.1018 -2325 0 0 0 0 0
352 1 3 31.1018 -2322 0 0 0 0 0
353 1 3 31.1018 -2319 0 0 0 0 0
354 1 3 31.1018 -2316 0 0 0 0 0
355 1 3 31.1018 -2313 0 0 0 0 0
356 1 3 31.1018 -2310 0 0 0 0 0
357 1 3 31.1018 -2307 0 0 0 0 0
358 1 3 31.1018 -2304 0 0 0 0 0
359 1 3 31.1018 -2301 0 0 0 0 0
360 1 3 31.1018 -2298 0 0 0 0 0
361 1 3 31.1018 -2295 0 0 0 0 0
362 1 3 31.1018 -2292 0 0 0 0 0
363 1 3 31.1018 -2289 0 0 0 0 0
364 1 3 31.1018 -2286 0 0 0 0 0
365 1 3 31.1018 -2283 0 0 0 0 0
366 1 3 31.1018 -2280 0 0 0 0 0
367 1 3 31.1018 -2277 0 0 0 0 0
368 1 3 31.1018 -2274 0 0 0 0 0
369 1 3 31.1018 -2271 0 0 0 0 0
370 1 3 31.1018 -2268 0 0 0 0 0
371 1 3 31.1018 -2265 0 0 0 0 0
372 1 3 31.1018 -2262 0 0 0 0 0
373 1 3 31.1018 -2259 0 0 0 0 0
374 1 3 31.1018 -2256 0 0 0 0 0
375 1 3 31.1018 -2253 0 0 0 0 0
376 1 3 31.1018 -2250 0 0 0 0 0
377 1 3 31.1018 -2247 0 0 0 0 0
378 1 3 31.1018 -2244 0 0 0 0 0
379 1 3 31.1018 -2241 0 0 0 0 0
380 1 3 31.1018 -2238 0 0 0 0 0
381 1 3 31.1018 -2235 0 0 0 0 0
382 1 3 31.1018 -2232 0 0 0 0 0
383 1 3 31.1018 -2229 0 0 0 0 0
384 1 3 31.1018 -2226 0 0 0 0 0
385 1 3 31.1018 -2223 0 0 0 0 0
386 1 3 31.1018 -2220 0 0 0 0 0
387 1 3 31.1018 -2217 0 0 0 0 0
388 1 3 31.1018 -2214 0 0 0 0 0
389 1 3 31.1018 -2211 0 0 0 0 0
390 1 3 31.1018 -2208 0 0 0 0 0
391 1 3 31.1018 -2205 0 0 0 0 0
392 1 3 31.1018 -2202 0 0 0 0 0
393 1 3 31.1018 -2199 0 0 0 0 0
394 1 3 31.1018 -2196 0 0 0 0 0
395 1 3 31.1018 -2193 0 0 0 0 0
396 1 3 31.1018 -2190 0 0 0 0 0
397 1 3 31.1018 -2187 0 0 0 0 0
398 1 3 31.1018 -2184 0 0 0 0 0
399 1 3 31.1018 -2181 0 0 0 0 0
400 1 3 31.1018 -2178 0 0 0 0 0
401 1 3 31.1018 -2175 0 0 0 0 0
402 1 3 31.1018 -2172 0 0 0 0 0
403 1 3 31.1018 -2169 0 0 0 0 0
404 1 3 31.1018 -2166 0 0 0 0 0
405 1 3 31.1018 -2163 0 0 0 0 0
406 1 3 31.1018 -2160 0 0 0 0 0
407 1 3 31.1018 -2157 0 0 0 0 0
408 1 3 31.1018 -2154 0 0 0 0 0
409 1 3 31.1018 -2151 0 0 0 0 0
410 1 3 31.1018 -2148 0 0 0 0 0
411 1 3 31.1018 -2145 0 0 0 0 0
412 1 3 31.1018 -2142 0 0 0 0 0
413 1 3 31.1018 -2139 0 0 0 0 0
414 1 3 31.1018 -2136 0 0 0 0 0
415 1 3 31.1018 -2133 0 0 0 0 0
416 1 3 31.1018 -2130 0 0 0 0 0
417 1 3 31.1018 -2127 0 0 0 0 0
418 1 3 31.1018 -2124 0 0 0 0 0
419 1 3 31.1018 -2121 0 0 0 0 0
420 1 3 31.1018 -2118 0 0 0 0 0
421 1 3 31.1018 -2115 0 0 0 0 0
422 1 3 31.1018 -2112 0 0 0 0 0
423 1 3 31.1018 -2109 0 0 0 0 0
424 1 3 31.1018 -2106 0 0 0 0 0
425 1 3 31.1018 -2103 0 0 0 0 0
426 1 3 31.1018 -2100 0 0 0 0 0
427 1 3 31.1018 -2097 0 0 0 0 0
428 1 3 31.1018 -2094 0 0 0 0 0
429 1 3 31.1018 -2091 0 0 0 0 0
430 1 3 31.1018 -2088 0 0 0 0 0
431 1 3 31.1018 -2085 0 0 0 0 0
432 1 3 31.1018 -2082 0 0 0 0 0
433 1 3 31.1018 -2079 0 0 0 0 0
434 1 3 31.1018 -2076 0 0 0 0 0
435 1 3 31.1018 -2073 0 0 0 0 0
436 1 3 31.1018 -2070 0 0 0 0 0
437 1 3 31.1018 -2067 0 0 0 0 0
438 1 3 31.1018 -2064 0 0 0 0 0
439 1 3 31.1018 -2061 0 0 0 0 0
440 1 3 31.1018 -2058 0 0 0 0 0
441 1 3 31.1018 -2055 0 0 0 0 0
442 1 3 31.1018 -2052 0 0 0 0 0
443 1 3 31.1018 -2049 0 0 0 0 0
444 1 3 31.1018 -2046 0 0 0 0 0
445 1 3 31.1018 -2043 0 0 0 0 0
446 1 3 31.1018 -2040 0 0 0 0 0
447 1 3 31.1018 -2037 0 0 0 0 0
448 1 3 31.1018 -2034 0 0 0 0 0
449 1 3 31.1018 -2031 0 0 0 0 0
450 1 3 31.1018 -2028 0 0 0 0 0
451 1 3 31.1018 -2025 0 0 0 0 0
452 1 3 31.1018 -2022 0 0 0 0 0
453 1 3 31.1018 -2019 0 0 0 0 0
454 1 3 31.1018 -2016 0 0 0 0 0
455 1 3 31.1018 -2013 0 0 0 0 0
456 1 3 31.1018 -2010 0 0 0 0 0
457 1 3 31.1018 -2007 0 0 0 0 0
458 1 3 31.1018 -2004 0 0 0 0 0
459 1 3 31.1018 -2001 0 0 0 0 0
460 1 3 31.1018 -1998 0 0 0 0 0
461 1 3 31.1018 -1995 0 0 0 0 0
462 1 3 31.1018 -1992 0 0 0 0 0
463 1 3 31.1018 -1989 0 0 0 0 0
464 1 3 31.1018 -1986 0 0 0 0 0
465 1 3 31.1018 -1983 0 0 0 0 0
466 1 3 31.1018 -1980 0 0 0 0 0
467 1 3 31.1018 -1977 0 0 0 0 0
468 1 3 31.1018 -1974 0 0 0 0 0
469 1 3 31.1018 -1971 0 0 0 0 0
470 1 3 31.1018 -1968 0 0 0 0 0
471 1 3 31.1018 -1965 0 0 0 0 0
472 1 3 31.1018 -1962 0 0 0 0 0
473 1 3 31.1018 -1959 0 0 0 0 0
474 1 3 31.1018 -1956 0 0 0 0 0
475 1 3 31.1018 -1953 0 0 0 0 0
476 1 3 31.1018 -1950 0 0 0 0 0
477 1 3 31.1018 -1947 0 0 0 0 0
478 1 3 31.1018 -1944 0 0 0 0 0
479 1 3 31.1018 -1941 0 0 0 0 0
480 1 3 31.1018 -1938 0 0 0 0 0
481 1 3 31.1018 -1935 0 0 0 0 0
482 1 3 31.1018 -1932 0 0 0 0 0
483 1 3 31.1018 -1929 0 0 0 0 0
484 1 3 31.1018 -1926 0 0 0 0 0
485 1 3 31.1018 -1923 0 0 0 0 0
486 1 3 31.1018 -1920 0 0 0 0 0
487 1 3 31.1018 -1917 0 0 0 0 0
488 1 3 31.1018 -1914 0 0 0 0 0
489 1 3 31.1018 -1911 0 0 0 0 0
490 1 3 31.1018 -1908 0 0 0 0 0
491 1 3 31.1018 -1905 0 0 0 0 0
492 1 3 31.1018 -1902 0 0 0 0 0
493 1 3 31.1018 -1899 0 0 0 0 0
494 1 3 31.1018 -1896 0 0 0 0 0
495 1 3 31.1018 -1893 0 0 0 0 0
496 1 3 31.1018 -1890 0 0 0 0 0
497 1 3 31.1018 -1887 0 0 0 0 0
498 1 3 31.1018 -1884 0 0 0 0 0
499 1 3 31.1018 -1881 0 0 0 0 0
500 1 3 31.1018 -1878 0 0 0 0 0
501 1 3 31.1018 -1875 0 0 0 0 0
502 1 3 31.1018 -1872 0 0 0 0 0
503 1 3 31.1018 -1869 0 0 0 0 0
504 1 3 31.1018 -1866 0 0 0 0 0
505 1 3 31.1018 -1863 0 0 0 0 0
506 1 3 31.1018 -1860 0 0 0 0 0
507 1 3 31.1018 -1857 0 0 0 0 0
508 1 3 31.1018 -1854 0 0 0 0 0
509 1 3 31.1018 -1851 0 0 0 0 0
510 1 3 31.1018 -1848 0 0 0 0 0
511 1 3 31.1018 -1845 0 0 0 0 0
512 1 3 31.1018 -1842 0 0 0 0 0
513 1 3 31.1018 -1839 0 0 0 0 0
514 1 3 31.1018 -1836 0 0 0 0 0
515 1 3 31.1018 -1833 0 0 0 0 0
516 1 3 31.1018 -1830 0 0 0 0 0
517 1 3 31.1018 -1827 0 0 0 0 0
518 1 3 31.1018 -1824 0 0 0 0 0
519 1 3 31.1018 -1821 0 0 0 0 0
520 1 3 31.1018 -1818 0 0 0 0 0
521 1 3 31.1018 -1815 0 0 0 0 0
522 1 3 31.1018 -1812 0 0 0 0 0
523 1 3 31.1018 -1809 0 0 0 0 0
524 1 3 31.1018 -1806 0 0 0 0 0
525 1 3 31.1018 -1803 0 0 0 0 0
526 1 3 31.1018 -1800 0 0 0 0 0
527 1 3 31.1018 -1797 0 0 0 0 0
528 1 3 31.1018 -1794 0 0 0 0 0
529 1 3 31.1018 -1791 0 0 0 0 0
530 1 3 31.1018 -1788 0 0 0 0 0
531 1 3 31.1018 -1785 0 0 0 0 0
532 1 3 31.1018 -1782 0 0 0 0 0
533 1 3 31.1018 -1779 0 0 0 0 0
534 1 3 31.1018 -1776 0 0 0 0 0
535 1 3 31.1018 -1773 0 0 0 0 0
536 1 3 31.1018 -1770 0 0 0 0 0
537 1 3 31.1018 -1767 0 0 0 0 0
538 1 3 31.1018 -1764 0 0 0 0 0
539 1 3 31.1018 -1761 0 0 0 0 0
540 1 3 31.1018 -1758 0 0 0 0 0
541 1 3 31.1018 -1755 0 0 0 0 0
542 1 3 31.1018 -1752 0 0 0 0 0
543 1 3 31.1018 -1749 0 0 0 0 0
544 1 3 31.1018 -1746 0 0 0 0 0
545 1 3 31.1018 -1743 0 0 0 0 0
546 1 3 31.1018 -1740 0 0 0 0 0
547 1 3 31.1018 -1737 0 0 0 0 0
548 1 3 31.1018 -1734 0 0 0 0 0
549 1 3 31.1018 -1731 0 0 0 0 0
550 1 3 31.1018 -1728 0 0 0 0 0
551 1 3 31.1018 -1725 0 0 0 0 0
552 1 3 31.1018 -1722 0 0 0 0 0
553 1 3 31.1018 -1719 0 0 0 0 0
554 1 3 31.1018 -1716 0 0 0 0 0
555 1 3 31.1018 -1713 0 0 0 0 0
556 1 3 31.1018 -1710 0 0 0 0 0
557 1 3 31.1018 -1707 0 0 0 0 0
558 1 3 31.1018 -1704 0 0 0 0 0
559 1 3 31.1018 -1701 0 0 0 0 0
560 1 3 31.1018 -1698 0 0 0 0 0
561 1 3 31.1018 -1695 0 0 0 0 0
562 1 3 31.1018 -1692 0 0 0 0 0
563 1 3 31.1018 -1689 0 0 0 0 0
2251 2 3 31.1018 -2254.50010131516001 5.39889e-21 2.59757469468803626 -0.102295 0 -0.314572
2252 2 3 31.1018 -2251.50010131516001 5.39169e-21 2.59757469467489077 -0.102386 0 -0.314559
2253 2 3 31.1018 -2248.50010131516001 5.38449e-21 2.59757469466174529 -0.102476 0 -0.314547
2254 2 3 31.1018 -2245.50010131516046 5.37729e-21 2.5975746946485998 -0.102567 0 -0.314534
2255 2 3 31.1018 -2242.50010131516046 5.37009e-21 2.59757469463545432 -0.102657 0 -0.314522
2256 2 3 31.1018 -2239.50010131516092 5.36289e-21 2.59757469462230883 -0.102748 0 -0.314509
2257 2 3 31.1018 -2236.50010131516092 5.3557e-21 2.59757469460916335 -0.102838 0 -0.314496
2258 2 3 31.1018 -2233.50010131516137 5.3485e-21 2.59757469459601786 -0.102929 0 -0.314484
2259 2 3 31.1018 -2230.50010131516137 5.3413e-21 2.59757469458287238 -0.103019 0 -0.314471
2260 2 3 31.1018 -2227.50010131516183 5.3341e-21 2.59757469456972689 -0.103109 0 -0.314459
2261 2 3 31.1018 -2224.50010131516183 5.3269e-21 2.59757469455658141 -0.1032 0 -0.314446
2262 2 3 31.1018 -2221.50010131516183 5.3197e-21 2.59757469454343592 -0.103291 0 -0.314434
2263 2 3 31.1018 -2218.50010131516228 5.3125e-21 2.59757469453029044 -0.103381 0 -0.314421
2264 2 3 31.1018 -2215.50010131516228 5.30531e-21 2.59757469451714496 -0.103472 0 -0.314409
2265 2 3 31.1018 -2212.50010131516274 5.29811e-21 2.59757469450399947 -0.103562 0 -0.314396
2266 2 3 31.1018 -2209.50010131516274 5.29091e-21 2.59757469449085399 -0.103653 0 -0.314383
2267 2 3 31.1018 -2206.50010131516319 5.28371e-21 2.5975746944777085 -0.103743 0 -0.314371
2268 2 3 31.1018 -2203.50010131516319 5.27651e-21 2.59757469446456302 -0.103834 0 -0.314358
2269 2 3 31.1018 -2200.50010131516319 5.26931e-21 2.59757469445141753 -0.103924 0 -0.314346
2270 2 3 31.1018 -2197.50010131516365 5.26211e-21 2.59757469443827205 -0.104015 0 -0.314333
2271 2 3 31.1018 -2194.50010131516365 5.25492e-21 2.59757469442512656 -0.104105 0 -0.314321
2272 2 3 31.1018 -2191.5001013151641 5.24772e-21 2.59757469441198108 -0.104196 0 -0.314308
2273 2 3 31.1018 -2188.5001013151641 5.24052e-21 2.59757469439883559 -0.104286 0 -0.314296
2274 2 3 31.1018 -2185.50010131516456 5.23332e-21 2.59757469438569011 -0.104377 0 -0.314283
2275 2 3 31.1018 -2182.50010131516456 5.22612e-21 2.59757469437254462 -0.104467 0 -0.31427
2276 2 3 31.1018 -2179.50010131516501 5.21892e-21 2.59757469435939914 -0.104558 0 -0.314258
2277 2 3 31.1018 -2176.50010131516501 5.21172e-21 2.59757469434625365 -0.104648 0 -0.314245
2278 2 3 31.1018 -2173.50010131516501 5.20453e-21 2.59757469433310817 -0.104739 0 -0.314233
2279 2 3 31.1018 -2170.50010131516547 5.19733e-21 2.59757469431996268 -0.104829 0 -0.31422
2280 2 3 31.1018 -2167.50010131516547 5.19013e-21 2.5975746943068172 -0.10492 0 -0.314208
2281 2 3 31.1018 -2164.50010131516592 5.18293e-21 2.59757469429367172 -0.10501 0 -0.314195
2282 2 3 31.1018 -2161.50010131516592 5.17573e-21 2.59757469428052623 -0.105101 0 -0.314183
2283 2 3 31.1018 -2158.50010131516638 5.16853e-21 2.59757469426738075 -0.105191 0 -0.31417
2284 2 3 31.1018 -2155.50010131516638 5.16134e-21 2.59757469425423526 -0.105282 0 -0.314157
2285 2 3 31.1018 -2152.50010131516638 5.15414e-21 2.59757469424108978 -0.105372 0 -0.314145
2286 2 3 31.1018 -2149.50010131516683 5.14694e-21 2.59757469422794429 -0.105463 0 -0.314132
2287 2 3 31.1018 -2146.50010131516683 5.13974e-21 2.59757469421479881 -0.105553 0 -0.31412
2288 2 3 31.1018 -2143.50010131516729 5.13254e-21 2.59757469420165332 -0.105644 0 -0.314107
2289 2 3 31.1018 -2140.50010131516729 5.12534e-21 2.59757469418850784 -0.105734 0 -0.314095
2290 2 3 31.1018 -2137.50010131516774 5.11814e-21 2.59757469417536235 -0.105825 0 -0.314082
2291 2 3 31.1018 -2134.50010131516774 5.11095e-21 2.59757469416221687 -0.105915 0 -0.31407
2292 2 3 31.1018 -2131.50010131516819 5.10375e-21 2.59757469414907138 -0.106006 0 -0.314057
2293 2 3 31.1018 -2128.50010131516819 5.09655e-21 2.5975746941359259 -0.106096 0 -0.314044
2294 2 3 31.1018 -2125.50010131516819 5.08935e-21 2.59757469412278041 -0.106187 0 -0.314032
2295 2 3 31.1018 -2122.50010131516865 5.08215e-21 2.59757469410963493 -0.106277 0 -0.314019
2296 2 3 31.1018 -2119.50010131516865 5.07495e-21 2.59757469409648944 -0.106368 0 -0.314007
2297 2 3 31.1018 -2116.5001013151691 5.06775e-21 2.59757469408334396 -0.106458 0 -0.313994
2298 2 3 31.1018 -2113.5001013151691 5.06056e-21 2.59757469407019848 -0.106549 0 -0.313982
2299 2 3 31.1018 -2110.50010131516956 5.05336e-21 2.59757469405705299 -0.106639 0 -0.313969
2300 2 3 31.1018 -2107.50010131516956 5.04616e-21 2.59757469404390751 -0.10673 0 -0.313957
2301 2 3 31.1018 -2104.50010131516956 5.03896e-21 2.59757469403076202 -0.106821 0 -0.313944
2302 2 3 31.1018 -2101.50010131517001 5.03176e-21 2.59757469401761654 -0.106911 0 -0.313931
2303 2 3 31.1018 -2098.50010131517001 5.02456e-21 2.59757469400447105 -0.107002 0 -0.313919
2304 2 3 31.1018 -2095.50010131517047 5.01737e-21 2.59757469399132557 -0.107092 0 -0.313906
2305 2 3 31.1018 -2092.50010131517047 5.01017e-21 2.59757469397818008 -0.107182 0 -0.313894
2306 2 3 31.1018 -2089.50010131517092 5.00297e-21 2.5975746939650346 -0.107273 0 -0.313881
2307 2 3 31.1018 -2086.50010131517092 4.99577e-21 2.59757469395188911 -0.107363 0 -0.313869
2308 2 3 31.1018 -2083.50010131517092 4.98857e-21 2.59757469393874363 -0.107454 0 -0.313856
2309 2 3 31.1018 -2080.50010131517138 4.98137e-21 2.59757469392559814 -0.107544 0 -0.313844
2310 2 3 31.1018 -2077.50010131517138 4.97417e-21 2.59757469391245266 -0.107635 0 -0.313831
2311 2 3 31.1018 -2074.50010131517183 4.96698e-21 2.59757469389930717 -0.107725 0 -0.313818
2312 2 3 31.1018 -2071.50010131517183 4.95978e-21 2.59757469388616169 -0.107816 0 -0.313806
2313 2 3 31.1018 -2068.50010131517229 4.95258e-21 2.59757469387301621 -0.107906 0 -0.313793
2314 2 3 31.1018 -2065.50010131517229 4.94538e-21 2.59757469385987072 -0.107997 0 -0.313781
2315 2 3 31.1018 -2062.50010131517274 4.93818e-21 2.59757469384672524 -0.108087 0 -0.313768
2316 2 3 31.1018 -2059.50010131517274 4.93098e-21 2.59757469383357975 -0.108178 0 -0.313756
2317 2 3 31.1018 -2056.50010131517274 4.92378e-21 2.59757469382043427 -0.108269 0 -0.313743
2318 2 3 31.1018 -2053.5001013151732 4.91659e-21 2.59757469380728878 -0.108359 0 -0.313731
2319 2 3 31.1018 -2050.50010131517365 4.90939e-21 2.5975746937941433 -0.108449 0 -0.313718
2320 2 3 31.1018 -2047.50010131517342 4.90219e-21 2.59757469378099781 -0.10854 0 -0.313705
2321 2 3 31.1018 -2044.50010131517365 4.89499e-21 2.59757469376785233 -0.108631 0 -0.313693
2322 2 3 31.1018 -2041.50010131517388 4.88779e-21 2.59757469375470684 -0.108721 0 -0.31368
2323 2 3 31.1018 -2038.50010131517411 4.88059e-21 2.59757469374156136 -0.108811 0 -0.313668
2324 2 3 31.1018 -2035.50010131517433 4.87339e-21 2.59757469372841587 -0.108902 0 -0.313655
2325 2 3 31.1018 -2032.50010131517456 4.8662e-21 2.59757469371527039 -0.108992 0 -0.313643
2326 2 3 31.1018 -2029.50010131517479 4.859e-21 2.5975746937021249 -0.109083 0 -0.31363
2327 2 3 31.1018 -2026.50010131517502 4.8518e-21 2.59757469368897942 -0.109173 0 -0.313617
2328 2 3 31.1018 -2023.50010131517502 4.8446e-21 2.59757469367583393 -0.109264 0 -0.313605
2329 2 3 31.1018 -2020.50010131517524 4.8374e-21 2.59757469366268845 -0.109355 0 -0.313592
2330 2 3 31.1018 -2017.50010131517547 4.8302e-21 2.59757469364954297 -0.109445 0 -0.31358
2331 2 3 31.1018 -2014.5001013151757 4.82301e-21 2.59757469363639748 -0.109536 0 -0.313567
2332 2 3 31.1018 -2011.50010131517593 4.81581e-21 2.597574693623252 -0.109626 0 -0.313555
2333 2 3 31.1018 -2008.50010131517615 4.80861e-21 2.59757469361010651 -0.109716 0 -0.313542
2334 2 3 31.1018 -2005.50010131517638 4.80141e-21 2.59757469359696103 -0.109807 0 -0.31353
2335 2 3 31.1018 -2002.50010131517661 4.79421e-21 2.59757469358381554 -0.109897 0 -0.313517
2336 2 3 31.1018 -1999.50010131517661 4.78701e-21 2.59757469357067006 -0.109988 0 -0.313505
2337 2 3 31.1018 -1996.50010131517683 4.77981e-21 2.59757469355752457 -0.110079 0 -0.313492
2338 2 3 31.1018 -1993.50010131517706 4.77262e-21 2.59757469354437909 -0.110169 0 -0.313479
2339 2 3 31.1018 -1990.50010131517729 4.76542e-21 2.5975746935312336 -0.11026 0 -0.313467
2340 2 3 31.1018 -1987.50010131517752 4.75822e-21 2.59757469351808812 -0.11035 0 -0.313454
2341 2 3 31.1018 -1984.50010131517774 4.75102e-21 2.59757469350494263 -0.110441 0 -0.313442
2342 2 3 31.1018 -1981.50010131517797 4.74382e-21 2.59757469349179715 -0.110531 0 -0.313429
2343 2 3 31.1018 -1978.5001013151782 4.73662e-21 2.59757469347865166 -0.110621 0 -0.313417
2344 2 3 31.1018 -1975.5001013151782 4.72942e-21 2.59757469346550618 -0.110712 0 -0.313404
2345 2 3 31.1018 -1972.50010131517843 4.72223e-21 2.59757469345236069 -0.110803 0 -0.313391
2346 2 3 31.1018 -1969.50010131517865 4.71503e-21 2.59757469343921521 -0.110893 0 -0.313379
2347 2 3 31.1018 -1966.50010131517888 4.70783e-21 2.59757469342606973 -0.110984 0 -0.313366
2348 2 3 31.1018 -1963.50010131517911 4.70063e-21 2.59757469341292424 -0.111074 0 -0.313354
2349 2 3 31.1018 -1960.50010131517934 4.69343e-21 2.59757469339977876 -0.111165 0 -0.313341
2350 2 3 31.1018 -1957.50010131517956 4.68623e-21 2.59757469338663327 -0.111255 0 -0.313329
2351 2 3 31.1018 -1954.50010131517979 4.67903e-21 2.59757469337348779 -0.111345 0 -0.313316
2352 2 3 31.1018 -1951.50010131517979 4.67184e-21 2.5975746933603423 -0.111436 0 -0.313304
2353 2 3 31.1018 -1948.50010131518002 4.66464e-21 2.59757469334719682 -0.111527 0 -0.313291
2354 2 3 31.1018 -1945.50010131518025 4.65744e-21 2.59757469333405133 -0.111617 0 -0.313278
2355 2 3 31.1018 -1942.50010131518047 4.65024e-21 2.59757469332090585 -0.111708 0 -0.313266
2356 2 3 31.1018 -1939.5001013151807 4.64304e-21 2.59757469330776036 -0.111798 0 -0.313253
2357 2 3 31.1018 -1936.50010131518093 4.63584e-21 2.59757469329461488 -0.111889 0 -0.313241
2358 2 3 31.1018 -1933.50010131518115 4.62865e-21 2.59757469328146939 -0.111979 0 -0.313228
2359 2 3 31.1018 -1930.50010131518138 4.62145e-21 2.59757469326832391 -0.11207 0 -0.313216
2360 2 3 31.1018 -1927.50010131518138 4.61425e-21 2.59757469325517842 -0.11216 0 -0.313203
2361 2 3 31.1018 -1924.50010131518161 4.60705e-21 2.59757469324203294 -0.112251 0 -0.313191
2362 2 3 31.1018 -1921.50010131518184 4.59985e-21 2.59757469322888745 -0.112341 0 -0.313178
2363 2 3 31.1018 -1918.50010131518206 4.59265e-21 2.59757469321574197 -0.112432 0 -0.313165
2364 2 3 31.1018 -1915.50010131518229 4.58545e-21 2.59757469320259649 -0.112522 0 -0.313153
2365 2 3 31.1018 -1912.50010131518252 4.57826e-21 2.597574693189451 -0.112613 0 -0.31314
2366 2 3 31.1018 -1909.50010131518275 4.57106e-21 2.59757469317630552 -0.112703 0 -0.313128
2367 2 3 31.1018 -1906.50010131518275 4.56386e-21 2.59757469316316003 -0.112794 0 -0.313115
2368 2 3 31.1018 -1903.50010131518297 4.55666e-21 2.59757469315001455 -0.112884 0 -0.313103
2369 2 3 31.1018 -1900.5001013151832 4.54946e-21 2.59757469313686906 -0.112975 0 -0.31309
2370 2 3 31.1018 -1897.50010131518343 4.54226e-21 2.59757469312372358 -0.113065 0 -0.313078
2371 2 3 31.1018 -1894.50010131518366 4.53506e-21 2.59757469311057809 -0.113156 0 -0.313065
2372 2 3 31.1018 -1891.50010131518388 4.52787e-21 2.59757469309743261 -0.113246 0 -0.313052
2373 2 3 31.1018 -1888.50010131518411 4.52067e-21 2.59757469308428712 -0.113337 0 -0.31304
2374 2 3 31.1018 -1885.50010131518434 4.51347e-21 2.59757469307114164 -0.113427 0 -0.313027
2375 2 3 31.1018 -1882.50010131518434 4.50627e-21 2.59757469305799615 -0.113518 0 -0.313015
2376 2 3 31.1018 -1879.50010131518457 4.49907e-21 2.59757469304485067 -0.113608 0 -0.313002
2377 2 3 31.1018 -1876.50010131518479 4.49187e-21 2.59757469303170518 -0.113699 0 -0.31299
2378 2 3 31.1018 -1873.50010131518502 4.48467e-21 2.5975746930185597 -0.113789 0 -0.312977
2379 2 3 31.1018 -1870.50010131518525 4.47748e-21 2.59757469300541421 -0.11388 0 -0.312965