ITEM: TIMESTEP
4100000
ITEM: NUMBER OF ATOMS
501
ITEM: BOX BOUNDS pp pp pp
-4.5000000000000000e+02 4.5000000000000000e+02
-1.0000000000000000e+02 1.0000000000000000e+02
-1.0000000000000000e+02 1.0000000000000000e+02
ITEM: ATOMS id type diameter mass xu yu zu fx fy fz
1 1 3 31.1018 -450 0 0 0 0 0
2 1 3 31.1018 -447 0 0 0 0 0
3 1 3 31.1018 -444 0 0 0 0 0
4 1 3 31.1018 -441 0 0 0 0 0
5 1 3 31.1018 -438 0 0 0 0 0
6 1 3 31.1018 -435 0 0 0 0 0
7 1 3 31.1018 -432 0 0 0 0 0
8 1 3 31.1018 -429 0 0 0 0 0
9 1 3 31.1018 -426 0 0 0 0 0
10 1 3 31.1018 -423 0 0 0 0 0
11 1 3 31.1018 -420 0 0 0 0 0
12 1 3 31.1018 -417 0 0 0 0 0
13 1 3 31.1018 -414 0 0 0 0 0
14 1 3 31.1018 -411 0 0 0 0 0
15 1 3 31.1018 -408 0 0 0 0 0
16 1 3 31.1018 -405 0 0 0 0 0
17 1 3 31.1018 -402 0 0 0 0 0
18 1 3 31.1018 -399 0 0 0 0 0
19 1 3 31.1018 -396 0 0 0 0 0
20 1 3 31.1018 -393 0 0 0 0 0
21 1 3 31.1018 -390 0 0 0 0 0
22 1 3 31.1018 -387 0 0 0 0 0
23 1 3 31.1018 -384 0 0 0 0 0
24 1 3 31.1018 -381 0 0 0 0 0
25 1 3 31.1018 -378 0 0 0 0 0
26 1 3 31.1018 -375 0 0 0 0 0
27 1 3 31.1018 -372 0 0 0 0 0
28 1 3 31.1018 -369 0 0 0 0 0
29 1 3 31.1018 -366 0 0 0 0 0
30 1 3 31.1018 -363 0 0 0 0 0
31 1 3 31.1018 -360 0 0 0 0 0
32 1 3 31.1018 -357 0 0 0 0 0
33 1 3 31.1018 -354 0 0 0 0 0
34 1 3 31.1018 -351 0 0 0 0 0
35 1 3 31.1018 -348 0 0 0 0 0
36 1 3 31.1018 -345 0 0 0 0 0
37 1 3 31.1018 -342 0 0 0 0 0
38 1 3 31.1018 -339 0 0 0 0 0
39 1 3 31.1018 -336 0 0 0 0 0
40 1 3 31.1018 -333 0 0 0 0 0
41 1 3 31.1018 -330 0 0 0 0 0
42 1 3 31.1018 -327 0 0 0 0 0
43 1 3 31.1018 -324 0 0 0 0 0
44 1 3 31.1018 -321 0 0 0 0 0
45 1 3 31.1018 -318 0 0 0 0 0
46 1 3 31.1018 -315 0 0 0 0 0
47 1 3 31.1018 -312 0 0 0 0 0
48 1 3 31.1018 -309 0 0 0 0 0
49 1 3 31.1018 -306 0 0 0 0 0
50 1 3 31.1018 -303 0 0 0 0 0
51 1 3 31.1018 -300 0 0 0 0 0
52 1 3 31.1018 -297 0 0 0 0 0
53 1 3 31.1018 -294 0 0 0 0 0
54 1 3 31.1018 -291 0 0 0 0 0
55 1 3 31.1018 -288 0 0 0 0 0
56 1 3 31.1018 -285 0 0 0 0 0
57 1 3 31.1018 -282 0 0 0 0 0
58 1 3 31.1018 -279 0 0 0 0 0
59 1 3 31.1018 -276 0 0 0 0 0
60 1 3 31.1018 -273 0 0 0 0 0
61 1 3 31.1018 -270 0 0 0 0 0
62 1 3 31.1018 -267 0 0 0 0 0
63 1 3 31.1018 -264 0 0 0 0 0
64 1 3 31.1018 -261 0 0 0 0 0
65 1 3 31.1018 -258 0 0 0 0 0
66 1 3 31.1018 -255 0 0 0 0 0
67 1 3 31.1018 -252 0 0 0 0 0
68 1 3 31.1018 -249 0 0 0 0 0
69 1 3 31.1018 -246 0 0 0 0 0
70 1 3 31.1018 -243 0 0 0 0 0
71 1 3 31.1018 -240 0 0 0 0 0
72 1 3 31.1018 -237 0 0 0 0 0
73 1 3 31.1018 -234 0 0 0 0 0
74 1 3 31.1018 -231 0 0 0 0 0
75 1 3 31.1018 -228 0 0 0 0 0
301 2 3 31.1018 -304.50010138367827 1.18344e-18 2.59757464396439008 0.300289 0 -0.0930242
302 2 3 31.1018 -301.500101383677645 1.17161e-18 2.59757464343144839 0.302554 0 -0.0888701
303 2 3 31.1018 -298.500101383676963 1.15977e-18 2.5975746428985067 0.30482 0 -0.0847159
304 2 3 31.1018 -295.500101383676338 1.14794e-18 2.59757464236556501 0.307084 0 -0.0805606
305 2 3 31.1018 -292.500101383675656 1.13611e-18 2.59757464183262332 0.309347 0 -0.0764052
306 2 3 31.1018 -289.500101383674973 1.12427e-18 2.59757464129968163 0.311611 0 -0.0722497
307 2 3 31.1018 -286.500101383674348 1.11244e-18 2.59757464076673994 0.313874 0 -0.0680942
308 2 3 31.1018 -283.500101383673666 1.1006e-18 2.59757464023379825 0.316138 0 -0.0639388
309 2 3 31.1018 -280.500101383672984 1.08877e-18 2.59757463970085656 0.318401 0 -0.0597833
310 2 3 31.1018 -277.500101383672359 1.07693e-18 2.59757463916791487 0.320665 0 -0.0556278
311 2 3 31.1018 -274.500101383671677 1.0651e-18 2.59757463863497318 0.322928 0 -0.0514723
312 2 3 31.1018 -271.500101383671051 1.05326e-18 2.59757463810203149 0.325192 0 -0.0473168
313 2 3 31.1018 -268.500101383670369 1.04143e-18 2.59757463756908979 0.327455 0 -0.0431613
314 2 3 31.1018 -265.500101383669687 1.0296e-18 2.5975746370361481 0.329719 0 -0.0390058
315 2 3 31.1018 -262.500101383669062 1.01776e-18 2.59757463650320641 0.331982 0 -0.0348503
316 2 3 31.1018 -259.50010138366838 1.00593e-18 2.59757463597026472 0.334246 0 -0.0306948
317 2 3 31.1018 -256.500101383667698 9.94092e-19 2.59757463543732303 0.336509 0 -0.0265393
318 2 3 31.1018 -253.500101383667072 9.82258e-19 2.59757463490438134 0.338773 0 -0.0223838
319 2 3 31.1018 -250.50010138366639 9.70424e-19 2.59757463437143965 0.334437 0 -0.0220396
320 2 3 31.1018 -247.500101383665736 9.58589e-19 2.59757463383849796 0.329832 0 -0.0218504
321 2 3 31.1018 -244.500101383665083 9.46755e-19 2.59757463330555627 0.325227 0 -0.0216613
322 2 3 31.1018 -241.500101383664429 9.3492e-19 2.59757463277261458 0.320623 0 -0.0214722
323 2 3 31.1018 -238.500101383663747 9.23086e-19 2.59757463223967289 0.316018 0 -0.0212831
324 2 3 31.1018 -235.500101383663093 9.11251e-19 2.5975746317067312 0.311413 0 -0.021094
325 2 3 31.1018 -232.50010138366244 8.99417e-19 2.59757463117378951 0.306808 0 -0.0209048
326 2 3 31.1018 -229.500101383661786 8.87583e-19 2.59757463064084781 0.302204 0 -0.0207157
327 2 3 31.1018 -226.500101383661104 8.75748e-19 2.59757463010790612 0.297599 0 -0.0205266
76 1 3 31.1018 -225 0 0 0 0 0
77 1 3 31.1018 -222 0 0 0 0 0
78 1 3 31.1018 -219 0 0 0 0 0
79 1 3 31.1018 -216 0 0 0 0 0
80 1 3 31.1018 -213 0 0 0 0 0
81 1 3 31.1018 -210 0 0 0 0 0
82 1 3 31.1018 -207 0 0 0 0 0
83 1 3 31.1018 -204 0 0 0 0 0
84 1 3 31.1018 -201 0 0 0 0 0
85 1 3 31.1018 -198 0 0 0 0 0
86 1 3 31.1018 -195 0 0 0 0 0
87 1 3 31.1018 -192 0 0 0 0 0
88 1 3 31.1018 -189 0 0 0 0 0
89 1 3 31.1018 -186 0 0 0 0 0
90 1 3 31.1018 -183 0 0 0 0 0
91 1 3 31.1018 -180 0 0 0 0 0
92 1 3 31.1018 -177 0 0 0 0 0
93 1 3 31.1018 -174 0 0 0 0 0
94 1 3 31.1018 -171 0 0 0 0 0
95 1 3 31.1018 -168 0 0 0 0 0
96 1 3 31.1018 -165 0 0 0 0 0
97 1 3 31.1018 -162 0 0 0 0 0
98 1 3 31.1018 -159 0 0 0 0 0
99 1 3 31.1018 -156 0 0 0 0 0
100 1 3 31.1018 -153 0 0 0 0 0
101 1 3 31.1018 -150 0 0 0 0 0
102 1 3 31.1018 -147 0 0 0 0 0
103 1 3 31.1018 -144 0 0 0 0 0
104 1 3 31.1018 -141 0 0 0 0 0
105 1 3 31.1018 -138 0 0 0 0 0
106 1 3 31.1018 -135 0 0 0 0 0
107 1 3 31.1018 -132 0 0 0 0 0
108 1 3 31.1018 -129 0 0 0 0 0
109 1 3 31.1018 -126 0 0 0 0 0
110 1 3 31.1018 -123 0 0 0 0 0
111 1 3 31.1018 -120 0 0 0 0 0
112 1 3 31.1018 -117 0 0 0 0 0
113 1 3 31.1018 -114 0 0 0 0 0
114 1 3 31.1018 -111 0 0 0 0 0
115 1 3 31.1018 -108 0 0 0 0 0
116 1 3 31.1018 -105 0 0 0 0 0
117 1 3 31.1018 -102 0 0 0 0 0
118 1 3 31.1018 -99 0 0 0 0 0
119 1 3 31.1018 -96 0 0 0 0 0
120 1 3 31.1018 -93 0 0 0 0 0
121 1 3 31.1018 -90 0 0 0 0 0
122 1 3 31.1018 -87 0 0 0 0 0
123 1 3 31.1018 -84 0 0 0 0 0
124 1 3 31.1018 -81 0 0 0 0 0
125 1 3 31.1018 -78 0 0 0 0 0
126 1 3 31.1018 -75 0 0 0 0 0
127 1 3 31.1018 -72 0 0 0 0 0
128 1 3 31.1018 -69 0 0 0 0 0
129 1 3 31.1018 -66 0 0 0 0 0
130 1 3 31.1018 -63 0 0 0 0 0
131 1 3 31.1018 -60 0 0 0 0 0
132 1 3 31.1018 -57 0 0 0 0 0
133 1 3 31.1018 -54 0 0 0 0 0
134 1 3 31.1018 -51 0 0 0 0 0
135 1 3 31.1018 -48 0 0 0 0 0
136 1 3 31.1018 -45 0 0 0 0 0
137 1 3 31.1018 -42 0 0 0 0 0
138 1 3 31.1018 -39 0 0 0 0 0
139 1 3 31.1018 -36 0 0 0 0 0
140 1 3 31.1018 -33 0 0 0 0 0
141 1 3 31.1018 -30 0 0 0 0 0
142 1 3 31.1018 -27 0 0 0 0 0
143 1 3 31.1018 -24 0 0 0 0 0
144 1 3 31.1018 -21 0 0 0 0 0
145 1 3 31.1018 -18 0 0 0 0 0
146 1 3 31.1018 -15 0 0 0 0 0
147 1 3 31.1018 -12 0 0 0 0 0
148 1 3 31.1018 -9 0 0 0 0 0
149 1 3 31.1018 -6 0 0 0 0 0
150 1 3 31.1018 -3 0 0 0 0 0
328 2 3 31.1018 -223.50010138366045 8.63914e-19 2.59757462957496443 0.292994 0 -0.0203375
329 2 3 31.1018 -220.500101383659796 8.52079e-19 2.59757462904202274 0.288389 0 -0.0201484
330 2 3 31.1018 -217.500101383659143 8.40245e-19 2.59757462850908105 0.283785 0 -0.0199593
331 2 3 31.1018 -214.50010138365846 8.2841e-19 2.59757462797613936 0.281103 0 -0.0186598
332 2 3 31.1018 -211.500101383657807 8.16576e-19 2.59757462744319767 0.283575 0 -0.0143839
333 2 3 31.1018 -208.500101383657153 8.04741e-19 2.59757462691025598 0.286046 0 -0.0101074
334 2 3 31.1018 -205.500101383656499 7.92907e-19 2.59757462637731429 0.288515 0 -0.00583012
335 2 3 31.1018 -202.500101383655817 7.81073e-19 2.5975746258443726 0.290985 0 -0.00155287
336 2 3 31.1018 -199.500101383655164 7.69238e-19 2.59757462531143091 0.293455 0 0.00272438
337 2 3 31.1018 -196.50010138365451 7.57404e-19 2.59757462477848922 0.295925 0 0.00700164
338 2 3 31.1018 -193.500101383653856 7.45569e-19 2.59757462424554753 0.298394 0 0.0112789
339 2 3 31.1018 -190.500101383653174 7.33735e-19 2.59757462371260583 0.299299 0 0.0146524
340 2 3 31.1018 -187.50010138365252 7.219e-19 2.59757462317966414 0.294465 0 0.0147119
341 2 3 31.1018 -184.500101383651867 7.10066e-19 2.59757462264672245 0.289632 0 0.0147714
342 2 3 31.1018 -181.500101383651213 6.98232e-19 2.59757462211378076 0.284798 0 0.0148309
343 2 3 31.1018 -178.500101383650531 6.86397e-19 2.59757462158083907 0.279964 0 0.0148904
344 2 3 31.1018 -175.500101383649877 6.74563e-19 2.59757462104789738 0.27513 0 0.0149499
345 2 3 31.1018 -172.500101383649223 6.62728e-19 2.59757462051495569 0.270297 0 0.0150093
346 2 3 31.1018 -169.50010138364857 6.50894e-19 2.597574619982014 0.265463 0 0.0150688
347 2 3 31.1018 -166.500101383647888 6.39059e-19 2.59757461944907231 0.260629 0 0.0151283
348 2 3 31.1018 -163.500101383647234 6.27225e-19 2.59757461891613062 0.255795 0 0.0151878
349 2 3 31.1018 -160.50010138364658 6.15391e-19 2.59757461838318893 0.250962 0 0.0152473
350 2 3 31.1018 -157.500101383645926 6.03556e-19 2.59757461785024724 0.246128 0 0.0153068
351 2 3 31.1018 -154.500101383645244 5.91722e-19 2.59757461731730555 0.241294 0 0.0153663
352 2 3 31.1018 -151.500101383644591 5.79887e-19 2.59757461678436385 0.23646 0 0.0154257
353 2 3 31.1018 -148.500101383643937 5.68053e-19 2.59757461625142216 0.231626 0 0.0154852
354 2 3 31.1018 -145.500101383643283 5.56218e-19 2.59757461571848047 0.226793 0 0.0155447
355 2 3 31.1018 -142.500101383642601 5.44384e-19 2.59757461518553878 0.221959 0 0.0156042
356 2 3 31.1018 -139.500101383641947 5.3255e-19 2.59757461465259709 0.217125 0 0.0156637
357 2 3 31.1018 -136.500101383641294 5.20715e-19 2.5975746141196554 0.212291 0 0.0157231
358 2 3 31.1018 -133.50010138364064 5.08881e-19 2.59757461358671371 0.207457 0 0.0157826
359 2 3 31.1018 -130.500101383639958 4.97046e-19 2.59757461305377202 0.202623 0 0.0158421
360 2 3 31.1018 -127.500101383639304 4.85212e-19 2.59757461252083033 0.19779 0 0.0159016
361 2 3 31.1018 -124.500101383638651 4.73377e-19 2.59757461198788864 0.192956 0 0.015961
362 2 3 31.1018 -121.500101383637983 4.61543e-19 2.59757461145494695 0.188122 0 0.0160205
363 2 3 31.1018 -118.500101383637329 4.49708e-19 2.59757461092200526 0.183286 0 0.0160811
364 2 3 31.1018 -115.500101383636661 4.37874e-19 2.59757461038906357 0.17845 0 0.0161419
365 2 3 31.1018 -112.500101383636007 4.2604e-19 2.59757460985612187 0.173614 0 0.0162027
366 2 3 31.1018 -109.500101383635339 4.14205e-19 2.59757460932318018 0.168778 0 0.0162634
367 2 3 31.1018 -106.500101383634686 4.02371e-19 2.59757460879023849 0.163942 0 0.0163242
368 2 3 31.1018 -103.500101383634018 3.90536e-19 2.5975746082572968 0.159105 0 0.016385
369 2 3 31.1018 -100.500101383633364 3.78702e-19 2.59757460772435511 0.154269 0 0.0164457
370 2 3 31.1018 -97.5001013836326962 3.66867e-19 2.59757460719141342 0.149433 0 0.0165065
371 2 3 31.1018 -94.5001013836320425 3.55033e-19 2.59757460665847173 0.144597 0 0.0165672
372 2 3 31.1018 -91.5001013836313746 3.43199e-19 2.59757460612553004 0.139761 0 0.016628
373 2 3 31.1018 -88.5001013836307209 3.31364e-19 2.59757460559258835 0.134925 0 0.0166887
374 2 3 31.1018 -85.500101383630053 3.1953e-19 2.59757460505964666 0.130089 0 0.0167495
375 2 3 31.1018 -82.5001013836293993 3.07695e-19 2.59757460452670497 0.125252 0 0.0168102
376 2 3 31.1018 -79.5001013836287314 2.95861e-19 2.59757460399376328 0.120416 0 0.016871
377 2 3 31.1018 -76.5001013836280777 2.84026e-19 2.59757460346082159 0.11558 0 0.0169317
378 2 3 31.1018 -73.5001013836274097 2.72192e-19 2.59757460292787989 0.110744 0 0.0169925
379 2 3 31.1018 -70.500101383626756 2.60358e-19 2.5975746023949382 0.105908 0 0.0170532
380 2 3 31.1018 -67.5001013836260881 2.48523e-19 2.59757460186199651 0.101071 0 0.017114
381 2 3 31.1018 -64.5001013836254344 2.36689e-19 2.59757460132905482 0.0962353 0 0.0171747
382 2 3 31.1018 -61.5001013836247665 2.24854e-19 2.59757460079611313 0.0913991 0 0.0172355
383 2 3 31.1018 -58.5001013836241057 2.1302e-19 2.59757460026317144 0.0865628 0 0.0172962
384 2 3 31.1018 -55.5001013836234449 2.01185e-19 2.59757459973022975 0.0817266 0 0.017357
385 2 3 31.1018 -52.5001013836227841 1.89351e-19 2.59757459919728806 0.0768904 0 0.0174177
386 2 3 31.1018 -49.5001013836221233 1.77517e-19 2.59757459866434637 0.0720542 0 0.0174784
387 2 3 31.1018 -46.5001013836214625 1.65682e-19 2.59757459813140468 0.0672179 0 0.0175392
388 2 3 31.1018 -43.5001013836208017 1.53848e-19 2.59757459759846299 0.0623817 0 0.0175999
389 2 3 31.1018 -40.5001013836201409 1.42013e-19 2.5975745970655213 0.0575454 0 0.0176606
390 2 3 31.1018 -37.5001013836194801 1.30179e-19 2.5975745965325796 0.0527092 0 0.0177214
391 2 3 31.1018 -34.5001013836188264 1.18344e-19 2.59757459599963791 0.0478729 0 0.0177821
392 2 3 31.1018 -31.500101383618162 1.0651e-19 2.59757459546669622 0.0430361 0 0.0178432
393 2 3 31.1018 -28.5001013836175012 9.46755e-20 2.59757459493375453 0.0381975 0 0.0179052
394 2 3 31.1018 -25.5001013836168404 8.2841e-20 2.59757459440081284 0.033359 0 0.0179672
395 2 3 31.1018 -22.5001013836161796 7.10066e-20 2.59757459386787115 0.0285205 0 0.0180293
396 2 3 31.1018 -19.5001013836155188 5.91722e-20 2.59757459333492946 0.023682 0 0.0180913
397 2 3 31.1018 -16.500101383614858 4.73377e-20 2.59757459280198777 0.0188437 0 0.0181535
398 2 3 31.1018 -13.5001013836141972 3.55033e-20 2.59757459226904608 0.0140059 0 0.0182159
399 2 3 31.1018 -10.5001013836135364 2.36689e-20 2.59757459173610439 0.00916797 0 0.0182783
400 2 3 31.1018 -7.50010138361287559 1.18344e-20 2.5975745912031627 0.00433007 0 0.0183407
401 2 3 31.1018 -4.50010138361221479 8.76358e-36 2.59757459067022101 -0.000507825 0 0.018403
402 2 3 31.1018 -1.50010138361155398 -1.18344e-20 2.59757459013727932 -0.00534573 0 0.0184654
151 1 3 31.1018 0 0 0 0 0 0
152 1 3 31.1018 3 0 0 0 0 0
153 1 3 31.1018 6 0 0 0 0 0
154 1 3 31.1018 9 0 0 0 0 0
155 1 3 31.1018 12 0 0 0 0 0
156 1 3 31.1018 15 0 0 0 0 0
157 1 3 31.1018 18 0 0 0 0 0
158 1 3 31.1018 21 0 0 0 0 0
159 1 3 31.1018 24 0 0 0 0 0
160 1 3 31.1018 27 0 0 0 0 0
161 1 3 31.1018 30 0 0 0 0 0
162 1 3 31.1018 33 0 0 0 0 0
163 1 3 31.1018 36 0 0 0 0 0
164 1 3 31.1018 39 0 0 0 0 0
165 1 3 31.1018 42 0 0 0 0 0
166 1 3 31.1018 45 0 0 0 0 0
167 1 3 31.1018 48 0 0 0 0 0
168 1 3 31.1018 51 0 0 0 0 0
169 1 3 31.1018 54 0 0 0 0 0
170 1 3 31.1018 57 0 0 0 0 0
171 1 3 31.1018 60 0 0 0 0 0
172 1 3 31.1018 63 0 0 0 0 0
173 1 3 31.1018 66 0 0 0 0 0
174 1 3 31.1018 69 0 0 0 0 0
175 1 3 31.1018 72 0 0 0 0 0
176 1 3 31.1018 75 0 0 0 0 0
177 1 3 31.1018 78 0 0 0 0 0
178 1 3 31.1018 81 0 0 0 0 0
179 1 3 31.1018 84 0 0 0 0 0
180 1 3 31.1018 87 0 0 0 0 0
181 1 3 31.1018 90 0 0 0 0 0
182 1 3 31.1018 93 0 0 0 0 0
183 1 3 31.1018 96 0 0 0 0 0
184 1 3 31.1018 99 0 0 0 0 0
185 1 3 31.1018 102 0 0 0 0 0
186 1 3 31.1018 105 0 0 0 0 0
187 1 3 31.1018 108 0 0 0 0 0
188 1 3 31.1018 111 0 0 0 0 0
189 1 3 31.1018 114 0 0 0 0 0
190 1 3 31.1018 117 0 0 0 0 0
191 1 3 31.1018 120 0 0 0 0 0
192 1 3 31.1018 123 0 0 0 0 0
193 1 3 31.1018 126 0 0 0 0 0
194 1 3 31.1018 129 0 0 0 0 0
195 1 3 31.1018 132 0 0 0 0 0
196 1 3 31.1018 135 0 0 0 0 0
197 1 3 31.1018 138 0 0 0 0 0
198 1 3 31.1018 141 0 0 0 0 0
199 1 3 31.1018 144 0 0 0 0 0
200 1 3 31.1018 147 0 0 0 0 0
201 1 3 31.1018 150 0 0 0 0 0
202 1 3 31.1018 153 0 0 0 0 0
203 1 3 31.1018 156 0 0 0 0 0
204 1 3 31.1018 159 0 0 0 0 0
205 1 3 31.1018 162 0 0 0 0 0
206 1 3 31.1018 165 0 0 0 0 0
207 1 3 31.1018 168 0 0 0 0 0
208 1 3 31.1018 171 0 0 0 0 0
209 1 3 31.1018 174 0 0 0 0 0
210 1 3 31.1018 177 0 0 0 0 0
211 1 3 31.1018 180 0 0 0 0 0
212 1 3 31.1018 183 0 0 0 0 0
213 1 3 31.1018 186 0 0 0 0 0
214 1 3 31.1018 189 0 0 0 0 0
215 1 3 31.1018 192 0 0 0 0 0
216 1 3 31.1018 195 0 0 0 0 0
217 1 3 31.1018 198 0 0 0 0 0
218 1 3 31.1018 201 0 0 0 0 0
219 1 3 31.1018 204 0 0 0 0 0
220 1 3 31.1018 207 0 0 0 0 0
221 1 3 31.1018 210 0 0 0 0 0
222 1 3 31.1018 213 0 0 0 0 0
223 1 3 31.1018 216 0 0 0 0 0
224 1 3 31.1018 219 0 0 0 0 0
225 1 3 31.1018 222 0 0 0 0 0
403 2 3 31.1018 1.49989861638910682 -2.36689e-20 2.59757458960433762 -0.0101836 0 0.0185278
404 2 3 31.1018 4.49989861638976674 -3.55033e-20 2.59757458907139593 -0.0150216 0 0.0185902
405 2 3 31.1018 7.49989861639042754 -4.73377e-20 2.59757458853845424 -0.0198595 0 0.0186526
406 2 3 31.1018 10.4998986163910892 -5.91722e-20 2.59757458800551255 -0.0246974 0 0.018715
407 2 3 31.1018 13.49989861639175 -7.10066e-20 2.59757458747257086 -0.0295353 0 0.0187774
408 2 3 31.1018 16.4998986163924108 -8.2841e-20 2.59757458693962917 -0.0343733 0 0.0188398
409 2 3 31.1018 19.4998986163930716 -9.46755e-20 2.59757458640668748 -0.0392112 0 0.0189021
410 2 3 31.1018 22.4998986163937325 -1.0651e-19 2.59757458587374579 -0.0440492 0 0.0189645
411 2 3 31.1018 25.4998986163943933 -1.18344e-19 2.5975745853408041 -0.0488871 0 0.0190269
412 2 3 31.1018 28.4998986163950576 -1.30179e-19 2.59757458480786241 -0.0537251 0 0.0190893
413 2 3 31.1018 31.4998986163957184 -1.42013e-19 2.59757458427492072 -0.0585631 0 0.0191517
414 2 3 31.1018 34.4998986163963792 -1.53848e-19 2.59757458374197903 -0.063401 0 0.019214
415 2 3 31.1018 37.49989861639704 -1.65682e-19 2.59757458320903734 -0.068239 0 0.0192764
416 2 3 31.1018 40.4998986163977008 -1.77517e-19 2.59757458267609564 -0.073077 0 0.0193388
417 2 3 31.1018 43.4998986163983616 -1.89351e-19 2.59757458214315395 -0.077915 0 0.0194012
418 2 3 31.1018 46.4998986163990224 -2.01185e-19 2.59757458161021226 -0.082753 0 0.0194635
419 2 3 31.1018 49.4998986163996832 -2.1302e-19 2.59757458107727057 -0.087591 0 0.0195259
420 2 3 31.1018 52.4998986164003441 -2.24854e-19 2.59757458054432888 -0.092429 0 0.0195883
421 2 3 31.1018 55.4998986164010049 -2.36689e-19 2.59757458001138719 -0.097267 0 0.0196507
422 2 3 31.1018 58.4998986164016657 -2.48523e-19 2.5975745794784455 -0.102106 0 0.0197137
423 2 3 31.1018 61.4998986164023265 -2.60358e-19 2.59757457894550381 -0.106947 0 0.0197774
424 2 3 31.1018 64.4998986164029873 -2.72192e-19 2.59757457841256212 -0.111787 0 0.019841
425 2 3 31.1018 67.499898616403641 -2.84026e-19 2.59757457787962043 -0.116627 0 0.0199047
426 2 3 31.1018 70.4998986164043089 -2.95861e-19 2.59757457734667874 -0.121467 0 0.0199684
427 2 3 31.1018 73.4998986164049626 -3.07695e-19 2.59757457681373705 -0.126308 0 0.020032
428 2 3 31.1018 76.4998986164056305 -3.1953e-19 2.59757457628079536 -0.131148 0 0.0200957
429 2 3 31.1018 79.4998986164062842 -3.31364e-19 2.59757457574785366 -0.135988 0 0.0201593
430 2 3 31.1018 82.4998986164069521 -3.43199e-19 2.59757457521491197 -0.140274 0 0.0199028
431 2 3 31.1018 85.4998986164076058 -3.55033e-19 2.59757457468197028 -0.143852 0 0.0192378
432 2 3 31.1018 88.4998986164082737 -3.66867e-19 2.59757457414902859 -0.147431 0 0.0185727
433 2 3 31.1018 91.4998986164089274 -3.78702e-19 2.5975745736160869 -0.151009 0 0.0179077
434 2 3 31.1018 94.4998986164095953 -3.90536e-19 2.59757457308314521 -0.154584 0 0.0172406
435 2 3 31.1018 97.499898616410249 -4.02371e-19 2.59757457255020352 -0.158159 0 0.0165736
436 2 3 31.1018 100.499898616410917 -4.14205e-19 2.59757457201726183 -0.161734 0 0.0159065
437 2 3 31.1018 103.499898616411571 -4.2604e-19 2.59757457148432014 -0.165308 0 0.0152394
438 2 3 31.1018 106.499898616412239 -4.37874e-19 2.59757457095137845 -0.168883 0 0.0145723
439 2 3 31.1018 109.499898616412892 -4.49708e-19 2.59757457041843676 -0.172458 0 0.0139053
440 2 3 31.1018 112.49989861641356 -4.61543e-19 2.59757456988549507 -0.176033 0 0.0132382
441 2 3 31.1018 115.499898616414214 -4.73377e-19 2.59757456935255338 -0.179608 0 0.0125711
442 2 3 31.1018 118.499898616414882 -4.85212e-19 2.59757456881961168 -0.183183 0 0.011904
443 2 3 31.1018 121.499898616415535 -4.97046e-19 2.59757456828666999 -0.186758 0 0.0112369
444 2 3 31.1018 124.499898616416203 -5.08881e-19 2.5975745677537283 -0.190333 0 0.0105698
445 2 3 31.1018 127.499898616416857 -5.20715e-19 2.59757456722078661 -0.193907 0 0.00990272
446 2 3 31.1018 130.499898616417511 -5.3255e-19 2.59757456668784492 -0.197482 0 0.00923563
447 2 3 31.1018 133.499898616418193 -5.44384e-19 2.59757456615490323 -0.201057 0 0.00856853
448 2 3 31.1018 136.499898616418847 -5.56218e-19 2.59757456562196154 -0.204632 0 0.00790143
449 2 3 31.1018 139.4998986164195 -5.68053e-19 2.59757456508901985 -0.208207 0 0.00723433
450 2 3 31.1018 142.499898616420154 -5.79887e-19 2.59757456455607816 -0.211782 0 0.00656723
451 2 3 31.1018 145.499898616420836 -5.91722e-19 2.59757456402313647 -0.215357 0 0.00590012
452 2 3 31.1018 148.49989861642149 -6.03556e-19 2.59757456349019478 -0.218932 0 0.00523299
453 2 3 31.1018 151.499898616422144 -6.15391e-19 2.59757456295725309 -0.222503 0 0.00456388
454 2 3 31.1018 154.499898616422797 -6.27225e-19 2.5975745624243114 -0.226075 0 0.00389476
455 2 3 31.1018 157.499898616423479 -6.39059e-19 2.5975745618913697 -0.229646 0 0.00322563
456 2 3 31.1018 160.499898616424133 -6.50894e-19 2.59757456135842801 -0.233218 0 0.00255651
457 2 3 31.1018 163.499898616424787 -6.62728e-19 2.59757456082548632 -0.236789 0 0.00188739
458 2 3 31.1018 166.49989861642544 -6.74563e-19 2.59757456029254463 -0.24036 0 0.00121826
459 2 3 31.1018 169.499898616426123 -6.86397e-19 2.59757455975960294 -0.243932 0 0.00054913
460 2 3 31.1018 172.499898616426776 -6.98232e-19 2.59757455922666125 -0.247503 0 -0.00012
461 2 3 31.1018 175.49989861642743 -7.10066e-19 2.59757455869371956 -0.251074 0 -0.000788885
462 2 3 31.1018 178.499898616428084 -7.219e-19 2.59757455816077787 -0.254645 0 -0.00145762
463 2 3 31.1018 181.499898616428766 -7.33735e-19 2.59757455762783618 -0.258216 0 -0.00212635
464 2 3 31.1018 184.499898616429419 -7.45569e-19 2.59757455709489449 -0.261787 0 -0.00279509
465 2 3 31.1018 187.499898616430073 -7.57404e-19 2.5975745565619528 -0.265358 0 -0.00346382
466 2 3 31.1018 190.499898616430727 -7.69238e-19 2.59757455602901111 -0.268928 0 -0.00413256
467 2 3 31.1018 193.499898616431409 -7.81073e-19 2.59757455549606942 -0.272499 0 -0.00480131
468 2 3 31.1018 196.499898616432063 -7.92907e-19 2.59757455496312772 -0.27607 0 -0.00547005
469 2 3 31.1018 199.499898616432716 -8.04741e-19 2.59757455443018603 -0.279641 0 -0.00613879
470 2 3 31.1018 202.49989861643337 -8.16576e-19 2.59757455389724434 -0.283212 0 -0.00680754
471 2 3 31.1018 205.499898616434052 -8.2841e-19 2.59757455336430265 -0.286783 0 -0.00747629
472 2 3 31.1018 208.499898616434706 -8.40245e-19 2.59757455283136096 -0.29035 0 -0.00814704
473 2 3 31.1018 211.49989861643536 -8.52079e-19 2.59757455229841927 -0.293917 0 -0.0088178
474 2 3 31.1018 214.499898616436013 -8.63914e-19 2.59757455176547758 -0.297485 0 -0.00948856
475 2 3 31.1018 217.499898616436695 -8.75748e-19 2.59757455123253589 -0.301052 0 -0.0101593
476 2 3 31.1018 220.499898616437349 -8.87583e-19 2.5975745506995942 -0.304619 0 -0.0108301
477 2 3 31.1018 223.499898616438003 -8.99417e-19 2.59757455016665251 -0.308187 0 -0.0115009
226 1 3 31.1018 225 0 0 0 0 0
227 1 3 31.1018 228 0 0 0 0 0
228 1 3 31.1018 231 0 0 0 0 0
229 1 3 31.1018 234 0 0 0 0 0
230 1 3 31.1018 237 0 0 0 0 0
231 1 3 31.1018 240 0 0 0 0 0
232 1 3 31.1018 243 0 0 0 0 0
233 1 3 31.1018 246 0 0 0 0 0
234 1 3 31.1018 249 0 0 0 0 0
235 1 3 31.1018 252 0 0 0 0 0
236 1 3 31.1018 255 0 0 0 0 0
237 1 3 31.1018 258 0 0 0 0 0
238 1 3 31.1018 261 0 0 0 0 0
239 1 3 31.1018 264 0 0 0 0 0
240 1 3 31.1018 267 0 0 0 0 0
241 1 3 31.1018 270 0 0 0 0 0
242 1 3 31.1018 273 0 0 0 0 0
243 1 3 31.1018 276 0 0 0 0 0
244 1 3 31.1018 279 0 0 0 0 0
245 1 3 31.1018 282 0 0 0 0 0
246 1 3 31.1018 285 0 0 0 0 0
247 1 3 31.1018 288 0 0 0 0 0
248 1 3 31.1018 291 0 0 0 0 0
249 1 3 31.1018 294 0 0 0 0 0
250 1 3 31.1018 297 0 0 0 0 0
251 1 3 31.1018 300 0 0 0 0 0
252 1 3 31.1018 303 0 0 0 0 0
253 1 3 31.1018 306 0 0 0 0 0
254 1 3 31.1018 309 0 0 0 0 0
255 1 3 31.1018 312 0 0 0 0 0
256 1 3 31.1018 315 0 0 0 0 0
257 1 3 31.1018 318 0 0 0 0 0
258 1 3 31.1018 321 0 0 0 0 0
259 1 3 31.1018 324 0 0 0 0 0
260 1 3 31.1018 327 0 0 0 0 0
261 1 3 31.1018 330 0 0 0 0 0
262 1 3 31.1018 333 0 0 0 0 0
263 1 3 31.1018 336 0 0 0 0 0
264 1 3 31.1018 339 0 0 0 0 0
265 1 3 31.1018 342 0 0 0 0 0
266 1 3 31.1018 345 0 0 0 0 0
267 1 3 31.1018 348 0 0 0 0 0
268 1 3 31.1018 351 0 0 0 0 0
269 1 3 31.1018 354 0 0 0 0 0
270 1 3 31.1018 357 0 0 0 0 0
271 1 3 31.1018 360 0 0 0 0 0
272 1 3 31.1018 363 0 0 0 0 0
273 1 3 31.1018 366 0 0 0 0 0
274 1 3 31.1018 369 0 0 0 0 0
275 1 3 31.1018 372 0 0 0 0 0
276 1 3 31.1018 375 0 0 0 0 0
277 1 3 31.1018 378 0 0 0 0 0
278 1 3 31.1018 381 0 0 0 0 0
279 1 3 31.1018 384 0 0 0 0 0
280 1 3 31.1018 387 0 0 0 0 0
281 1 3 31.1018 390 0 0 0 0 0
282 1 3 31.1018 393 0 0 0 0 0
283 1 3 31.1018 396 0 0 0 0 0
284 1 3 31.1018 399 0 0 0 0 0
285 1 3 31.1018 402 0 0 0 0 0
286 1 3 31.1018 405 0 0 0 0 0
287 1 3 31.1018 408 0 0 0 0 0
288 1 3 31.1018 411 0 0 0 0 0
289 1 3 31.1018 414 0 0 0 0 0
290 1 3 31.1018 417 0 0 0 0 0
291 1 3 31.1018 420 0 0 0 0 0
292 1 3 31.1018 423 0 0 0 0 0
293 1 3 31.1018 426 0 0 0 0 0
294 1 3 31.1018 429 0 0 0 0 0
295 1 3 31.1018 432 0 0 0 0 0
296 1 3 31.1018 435 0 0 0 0 0
297 1 3 31.1018 438 0 0 0 0 0
298 1 3 31.1018 441 0 0 0 0 0
299 1 3 31.1018 444 0 0 0 0 0
300 1 3 31.1018 447 0 0 0 0 0
478 2 3 31.1018 226.499898616438657 -9.11251e-19 2.59757454963371082 -0.311754 0 -0.0121716
479 2 3 31.1018 229.499898616439339 -9.23086e-19 2.59757454910076913 -0.315321 0 -0.0128424
480 2 3 31.1018 232.499898616439992 -9.3492e-19 2.59757454856782743 -0.318889 0 -0.0135132
481 2 3 31.1018 235.499898616440646 -9.46755e-19 2.59757454803488574 -0.322456 0 -0.0141839
482 2 3 31.1018 238.4998986164413 -9.58589e-19 2.59757454750194405 -0.326024 0 -0.0148547
483 2 3 31.1018 241.499898616441982 -9.70424e-19 2.59757454696900236 -0.329591 0 -0.0155255
484 2 3 31.1018 244.499898616442636 -9.82258e-19 2.59757454643606067 -0.333158 0 -0.0161963
485 2 3 31.1018 247.499898616443289 -9.94092e-19 2.59757454590311898 -0.336726 0 -0.016867
486 2 3 31.1018 250.499898616443943 -1.00593e-18 2.59757454537017729 -0.340293 0 -0.0175378
487 2 3 31.1018 253.499898616444625 -1.01776e-18 2.5975745448372356 -0.343861 0 -0.0182086
488 2 3 31.1018 256.49989861644525 -1.0296e-18 2.59757454430429391 -0.347428 0 -0.0188794
489 2 3 31.1018 259.499898616445932 -1.04143e-18 2.59757454377135222 -0.350996 0 -0.0195502
490 2 3 31.1018 262.499898616446615 -1.05326e-18 2.59757454323841053 -0.354563 0 -0.020221
491 2 3 31.1018 265.49989861644724 -1.0651e-18 2.59757454270546884 -0.358127 0 -0.0208937
492 2 3 31.1018 268.499898616447922 -1.07693e-18 2.59757454217252715 -0.361691 0 -0.0215665
493 2 3 31.1018 271.499898616448604 -1.08877e-18 2.59757454163958545 -0.365255 0 -0.0222393
494 2 3 31.1018 274.499898616449229 -1.1006e-18 2.59757454110664376 -0.368819 0 -0.0229121
495 2 3 31.1018 277.499898616449912 -1.11244e-18 2.59757454057370207 -0.372383 0 -0.0235849
496 2 3 31.1018 280.499898616450537 -1.12427e-18 2.59757454004076038 -0.375947 0 -0.0242577
497 2 3 31.1018 283.499898616451219 -1.13611e-18 2.59757453950781869 -0.379511 0 -0.0249305
498 2 3 31.1018 286.499898616451901 -1.14794e-18 2.597574538974877 -0.383075 0 -0.0256033
499 2 3 31.1018 289.499898616452526 -1.15977e-18 2.59757453844193531 -0.386639 0 -0.0262761
500 2 3 31.1018 292.499898616453208 -1.17161e-18 2.59757453790899362 -0.390203 0 -0.0269489
501 2 3 31.1018 295.499898616453891 -1.18344e-18 2.59757453737605193 -0.393767 0 -0.0276217
