ITEM: TIMESTEP
3500000
ITEM: NUMBER OF ATOMS
4001
ITEM: BOX BOUNDS pp pp pp
-3.6000000000000000e+03 3.6000000000000000e+03
-1.0000000000000000e+02 1.0000000000000000e+02
-1.0000000000000000e+02 1.0000000000000000e+02
ITEM: ATOMS id type diameter mass xu yu zu fx fy fz
1 1 3 31.1018 -3600 0 0 0 0 0
2 1 3 31.1018 -3597 0 0 0 0 0
3 1 3 31.1018 -3594 0 0 0 0 0
4 1 3 31.1018 -3591 0 0 0 0 0
5 1 3 31.1018 -3588 0 0 0 0 0
6 1 3 31.1018 -3585 0 0 0 0 0
7 1 3 31.1018 -3582 0 0 0 0 0
8 1 3 31.1018 -3579 0 0 0 0 0
9 1 3 31.1018 -3576 0 0 0 0 0
10 1 3 31.1018 -3573 0 0 0 0 0
11 1 3 31.1018 -3570 0 0 0 0 0
12 1 3 31.1018 -3567 0 0 0 0 0
13 1 3 31.1018 -3564 0 0 0 0 0
14 1 3 31.1018 -3561 0 0 0 0 0
15 1 3 31.1018 -3558 0 0 0 0 0
16 1 3 31.1018 -3555 0 0 0 0 0
17 1 3 31.1018 -3552 0 0 0 0 0
18 1 3 31.1018 -3549 0 0 0 0 0
19 1 3 31.1018 -3546 0 0 0 0 0
20 1 3 31.1018 -3543 0 0 0 0 0
21 1 3 31.1018 -3540 0 0 0 0 0
22 1 3 31.1018 -3537 0 0 0 0 0
23 1 3 31.1018 -3534 0 0 0 0 0
24 1 3 31.1018 -3531 0 0 0 0 0
25 1 3 31.1018 -3528 0 0 0 0 0
26 1 3 31.1018 -3525 0 0 0 0 0
27 1 3 31.1018 -3522 0 0 0 0 0
28 1 3 31.1018 -3519 0 0 0 0 0
29 1 3 31.1018 -3516 0 0 0 0 0
30 1 3 31.1018 -3513 0 0 0 0 0
31 1 3 31.1018 -3510 0 0 0 0 0
32 1 3 31.1018 -3507 0 0 0 0 0
33 1 3 31.1018 -3504 0 0 0 0 0
34 1 3 31.1018 -3501 0 0 0 0 0
35 1 3 31.1018 -3498 0 0 0 0 0
36 1 3 31.1018 -3495 0 0 0 0 0
37 1 3 31.1018 -3492 0 0 0 0 0
38 1 3 31.1018 -3489 0 0 0 0 0
39 1 3 31.1018 -3486 0 0 0 0 0
40 1 3 31.1018 -3483 0 0 0 0 0
41 1 3 31.1018 -3480 0 0 0 0 0
42 1 3 31.1018 -3477 0 0 0 0 0
43 1 3 31.1018 -3474 0 0 0 0 0
44 1 3 31.1018 -3471 0 0 0 0 0
45 1 3 31.1018 -3468 0 0 0 0 0
46 1 3 31.1018 -3465 0 0 0 0 0
47 1 3 31.1018 -3462 0 0 0 0 0
48 1 3 31.1018 -3459 0 0 0 0 0
49 1 3 31.1018 -3456 0 0 0 0 0
50 1 3 31.1018 -3453 0 0 0 0 0
51 1 3 31.1018 -3450 0 0 0 0 0
52 1 3 31.1018 -3447 0 0 0 0 0
53 1 3 31.1018 -3444 0 0 0 0 0
54 1 3 31.1018 -3441 0 0 0 0 0
55 1 3 31.1018 -3438 0 0 0 0 0
56 1 3 31.1018 -3435 0 0 0 0 0
57 1 3 31.1018 -3432 0 0 0 0 0
58 1 3 31.1018 -3429 0 0 0 0 0
59 1 3 31.1018 -3426 0 0 0 0 0
60 1 3 31.1018 -3423 0 0 0 0 0
61 1 3 31.1018 -3420 0 0 0 0 0
62 1 3 31.1018 -3417 0 0 0 0 0
63 1 3 31.1018 -3414 0 0 0 0 0
64 1 3 31.1018 -3411 0 0 0 0 0
65 1 3 31.1018 -3408 0 0 0 0 0
66 1 3 31.1018 -3405 0 0 0 0 0
67 1 3 31.1018 -3402 0 0 0 0 0
68 1 3 31.1018 -3399 0 0 0 0 0
69 1 3 31.1018 -3396 0 0 0 0 0
70 1 3 31.1018 -3393 0 0 0 0 0
71 1 3 31.1018 -3390 0 0 0 0 0
72 1 3 31.1018 -3387 0 0 0 0 0
73 1 3 31.1018 -3384 0 0 0 0 0
74 1 3 31.1018 -3381 0 0 0 0 0
75 1 3 31.1018 -3378 0 0 0 0 0
76 1 3 31.1018 -3375 0 0 0 0 0
77 1 3 31.1018 -3372 0 0 0 0 0
78 1 3 31.1018 -3369 0 0 0 0 0
79 1 3 31.1018 -3366 0 0 0 0 0
80 1 3 31.1018 -3363 0 0 0 0 0
81 1 3 31.1018 -3360 0 0 0 0 0
82 1 3 31.1018 -3357 0 0 0 0 0
83 1 3 31.1018 -3354 0 0 0 0 0
84 1 3 31.1018 -3351 0 0 0 0 0
85 1 3 31.1018 -3348 0 0 0 0 0
86 1 3 31.1018 -3345 0 0 0 0 0
87 1 3 31.1018 -3342 0 0 0 0 0
88 1 3 31.1018 -3339 0 0 0 0 0
89 1 3 31.1018 -3336 0 0 0 0 0
90 1 3 31.1018 -3333 0 0 0 0 0
91 1 3 31.1018 -3330 0 0 0 0 0
92 1 3 31.1018 -3327 0 0 0 0 0
93 1 3 31.1018 -3324 0 0 0 0 0
94 1 3 31.1018 -3321 0 0 0 0 0
95 1 3 31.1018 -3318 0 0 0 0 0
96 1 3 31.1018 -3315 0 0 0 0 0
97 1 3 31.1018 -3312 0 0 0 0 0
98 1 3 31.1018 -3309 0 0 0 0 0
99 1 3 31.1018 -3306 0 0 0 0 0
100 1 3 31.1018 -3303 0 0 0 0 0
101 1 3 31.1018 -3300 0 0 0 0 0
102 1 3 31.1018 -3297 0 0 0 0 0
103 1 3 31.1018 -3294 0 0 0 0 0
104 1 3 31.1018 -3291 0 0 0 0 0
105 1 3 31.1018 -3288 0 0 0 0 0
106 1 3 31.1018 -3285 0 0 0 0 0
107 1 3 31.1018 -3282 0 0 0 0 0
108 1 3 31.1018 -3279 0 0 0 0 0
109 1 3 31.1018 -3276 0 0 0 0 0
110 1 3 31.1018 -3273 0 0 0 0 0
111 1 3 31.1018 -3270 0 0 0 0 0
112 1 3 31.1018 -3267 0 0 0 0 0
113 1 3 31.1018 -3264 0 0 0 0 0
114 1 3 31.1018 -3261 0 0 0 0 0
115 1 3 31.1018 -3258 0 0 0 0 0
116 1 3 31.1018 -3255 0 0 0 0 0
117 1 3 31.1018 -3252 0 0 0 0 0
118 1 3 31.1018 -3249 0 0 0 0 0
119 1 3 31.1018 -3246 0 0 0 0 0
120 1 3 31.1018 -3243 0 0 0 0 0
121 1 3 31.1018 -3240 0 0 0 0 0
122 1 3 31.1018 -3237 0 0 0 0 0
123 1 3 31.1018 -3234 0 0 0 0 0
124 1 3 31.1018 -3231 0 0 0 0 0
125 1 3 31.1018 -3228 0 0 0 0 0
126 1 3 31.1018 -3225 0 0 0 0 0
127 1 3 31.1018 -3222 0 0 0 0 0
128 1 3 31.1018 -3219 0 0 0 0 0
129 1 3 31.1018 -3216 0 0 0 0 0
130 1 3 31.1018 -3213 0 0 0 0 0
131 1 3 31.1018 -3210 0 0 0 0 0
132 1 3 31.1018 -3207 0 0 0 0 0
133 1 3 31.1018 -3204 0 0 0 0 0
134 1 3 31.1018 -3201 0 0 0 0 0
135 1 3 31.1018 -3198 0 0 0 0 0
136 1 3 31.1018 -3195 0 0 0 0 0
137 1 3 31.1018 -3192 0 0 0 0 0
138 1 3 31.1018 -3189 0 0 0 0 0
139 1 3 31.1018 -3186 0 0 0 0 0
140 1 3 31.1018 -3183 0 0 0 0 0
141 1 3 31.1018 -3180 0 0 0 0 0
142 1 3 31.1018 -3177 0 0 0 0 0
143 1 3 31.1018 -3174 0 0 0 0 0
144 1 3 31.1018 -3171 0 0 0 0 0
145 1 3 31.1018 -3168 0 0 0 0 0
146 1 3 31.1018 -3165 0 0 0 0 0
147 1 3 31.1018 -3162 0 0 0 0 0
148 1 3 31.1018 -3159 0 0 0 0 0
149 1 3 31.1018 -3156 0 0 0 0 0
150 1 3 31.1018 -3153 0 0 0 0 0
151 1 3 31.1018 -3150 0 0 0 0 0
152 1 3 31.1018 -3147 0 0 0 0 0
153 1 3 31.1018 -3144 0 0 0 0 0
154 1 3 31.1018 -3141 0 0 0 0 0
155 1 3 31.1018 -3138 0 0 0 0 0
156 1 3 31.1018 -3135 0 0 0 0 0
157 1 3 31.1018 -3132 0 0 0 0 0
158 1 3 31.1018 -3129 0 0 0 0 0
159 1 3 31.1018 -3126 0 0 0 0 0
160 1 3 31.1018 -3123 0 0 0 0 0
161 1 3 31.1018 -3120 0 0 0 0 0
162 1 3 31.1018 -3117 0 0 0 0 0
163 1 3 31.1018 -3114 0 0 0 0 0
164 1 3 31.1018 -3111 0 0 0 0 0
165 1 3 31.1018 -3108 0 0 0 0 0
166 1 3 31.1018 -3105 0 0 0 0 0
167 1 3 31.1018 -3102 0 0 0 0 0
168 1 3 31.1018 -3099 0 0 0 0 0
169 1 3 31.1018 -3096 0 0 0 0 0
170 1 3 31.1018 -3093 0 0 0 0 0
171 1 3 31.1018 -3090 0 0 0 0 0
172 1 3 31.1018 -3087 0 0 0 0 0
173 1 3 31.1018 -3084 0 0 0 0 0
174 1 3 31.1018 -3081 0 0 0 0 0
175 1 3 31.1018 -3078 0 0 0 0 0
176 1 3 31.1018 -3075 0 0 0 0 0
177 1 3 31.1018 -3072 0 0 0 0 0
178 1 3 31.1018 -3069 0 0 0 0 0
179 1 3 31.1018 -3066 0 0 0 0 0
180 1 3 31.1018 -3063 0 0 0 0 0
181 1 3 31.1018 -3060 0 0 0 0 0
182 1 3 31.1018 -3057 0 0 0 0 0
183 1 3 31.1018 -3054 0 0 0 0 0
184 1 3 31.1018 -3051 0 0 0 0 0
185 1 3 31.1018 -3048 0 0 0 0 0
186 1 3 31.1018 -3045 0 0 0 0 0
187 1 3 31.1018 -3042 0 0 0 0 0
188 1 3 31.1018 -3039 0 0 0 0 0
189 1 3 31.1018 -3036 0 0 0 0 0
190 1 3 31.1018 -3033 0 0 0 0 0
191 1 3 31.1018 -3030 0 0 0 0 0
192 1 3 31.1018 -3027 0 0 0 0 0
193 1 3 31.1018 -3024 0 0 0 0 0
194 1 3 31.1018 -3021 0 0 0 0 0
195 1 3 31.1018 -3018 0 0 0 0 0
196 1 3 31.1018 -3015 0 0 0 0 0
197 1 3 31.1018 -3012 0 0 0 0 0
198 1 3 31.1018 -3009 0 0 0 0 0
199 1 3 31.1018 -3006 0 0 0 0 0
200 1 3 31.1018 -3003 0 0 0 0 0
201 1 3 31.1018 -3000 0 0 0 0 0
202 1 3 31.1018 -2997 0 0 0 0 0
203 1 3 31.1018 -2994 0 0 0 0 0
204 1 3 31.1018 -2991 0 0 0 0 0
205 1 3 31.1018 -2988 0 0 0 0 0
206 1 3 31.1018 -2985 0 0 0 0 0
207 1 3 31.1018 -2982 0 0 0 0 0
208 1 3 31.1018 -2979 0 0 0 0 0
209 1 3 31.1018 -2976 0 0 0 0 0
210 1 3 31.1018 -2973 0 0 0 0 0
211 1 3 31.1018 -2970 0 0 0 0 0
212 1 3 31.1018 -2967 0 0 0 0 0
213 1 3 31.1018 -2964 0 0 0 0 0
214 1 3 31.1018 -2961 0 0 0 0 0
215 1 3 31.1018 -2958 0 0 0 0 0
216 1 3 31.1018 -2955 0 0 0 0 0
217 1 3 31.1018 -2952 0 0 0 0 0
218 1 3 31.1018 -2949 0 0 0 0 0
219 1 3 31.1018 -2946 0 0 0 0 0
220 1 3 31.1018 -2943 0 0 0 0 0
221 1 3 31.1018 -2940 0 0 0 0 0
222 1 3 31.1018 -2937 0 0 0 0 0
223 1 3 31.1018 -2934 0 0 0 0 0
224 1 3 31.1018 -2931 0 0 0 0 0
225 1 3 31.1018 -2928 0 0 0 0 0
226 1 3 31.1018 -2925 0 0 0 0 0
227 1 3 31.1018 -2922 0 0 0 0 0
228 1 3 31.1018 -2919 0 0 0 0 0
229 1 3 31.1018 -2916 0 0 0 0 0
230 1 3 31.1018 -2913 0 0 0 0 0
231 1 3 31.1018 -2910 0 0 0 0 0
232 1 3 31.1018 -2907 0 0 0 0 0
233 1 3 31.1018 -2904 0 0 0 0 0
234 1 3 31.1018 -2901 0 0 0 0 0
235 1 3 31.1018 -2898 0 0 0 0 0
236 1 3 31.1018 -2895 0 0 0 0 0
237 1 3 31.1018 -2892 0 0 0 0 0
238 1 3 31.1018 -2889 0 0 0 0 0
239 1 3 31.1018 -2886 0 0 0 0 0
240 1 3 31.1018 -2883 0 0 0 0 0
241 1 3 31.1018 -2880 0 0 0 0 0
242 1 3 31.1018 -2877 0 0 0 0 0
243 1 3 31.1018 -2874 0 0 0 0 0
244 1 3 31.1018 -2871 0 0 0 0 0
245 1 3 31.1018 -2868 0 0 0 0 0
246 1 3 31.1018 -2865 0 0 0 0 0
247 1 3 31.1018 -2862 0 0 0 0 0
248 1 3 31.1018 -2859 0 0 0 0 0
249 1 3 31.1018 -2856 0 0 0 0 0
250 1 3 31.1018 -2853 0 0 0 0 0
251 1 3 31.1018 -2850 0 0 0 0 0
252 1 3 31.1018 -2847 0 0 0 0 0
253 1 3 31.1018 -2844 0 0 0 0 0
254 1 3 31.1018 -2841 0 0 0 0 0
255 1 3 31.1018 -2838 0 0 0 0 0
256 1 3 31.1018 -2835 0 0 0 0 0
257 1 3 31.1018 -2832 0 0 0 0 0
258 1 3 31.1018 -2829 0 0 0 0 0
259 1 3 31.1018 -2826 0 0 0 0 0
260 1 3 31.1018 -2823 0 0 0 0 0
261 1 3 31.1018 -2820 0 0 0 0 0
262 1 3 31.1018 -2817 0 0 0 0 0
263 1 3 31.1018 -2814 0 0 0 0 0
264 1 3 31.1018 -2811 0 0 0 0 0
265 1 3 31.1018 -2808 0 0 0 0 0
266 1 3 31.1018 -2805 0 0 0 0 0
267 1 3 31.1018 -2802 0 0 0 0 0
268 1 3 31.1018 -2799 0 0 0 0 0
269 1 3 31.1018 -2796 0 0 0 0 0
270 1 3 31.1018 -2793 0 0 0 0 0
271 1 3 31.1018 -2790 0 0 0 0 0
272 1 3 31.1018 -2787 0 0 0 0 0
273 1 3 31.1018 -2784 0 0 0 0 0
274 1 3 31.1018 -2781 0 0 0 0 0
275 1 3 31.1018 -2778 0 0 0 0 0
276 1 3 31.1018 -2775 0 0 0 0 0
277 1 3 31.1018 -2772 0 0 0 0 0
278 1 3 31.1018 -2769 0 0 0 0 0
279 1 3 31.1018 -2766 0 0 0 0 0
280 1 3 31.1018 -2763 0 0 0 0 0
281 1 3 31.1018 -2760 0 0 0 0 0
282 1 3 31.1018 -2757 0 0 0 0 0
283 1 3 31.1018 -2754 0 0 0 0 0
284 1 3 31.1018 -2751 0 0 0 0 0
285 1 3 31.1018 -2748 0 0 0 0 0
286 1 3 31.1018 -2745 0 0 0 0 0
287 1 3 31.1018 -2742 0 0 0 0 0
288 1 3 31.1018 -2739 0 0 0 0 0
289 1 3 31.1018 -2736 0 0 0 0 0
290 1 3 31.1018 -2733 0 0 0 0 0
291 1 3 31.1018 -2730 0 0 0 0 0
292 1 3 31.1018 -2727 0 0 0 0 0
293 1 3 31.1018 -2724 0 0 0 0 0
294 1 3 31.1018 -2721 0 0 0 0 0
295 1 3 31.1018 -2718 0 0 0 0 0
296 1 3 31.1018 -2715 0 0 0 0 0
297 1 3 31.1018 -2712 0 0 0 0 0
298 1 3 31.1018 -2709 0 0 0 0 0
299 1 3 31.1018 -2706 0 0 0 0 0
300 1 3 31.1018 -2703 0 0 0 0 0
301 1 3 31.1018 -2700 0 0 0 0 0
302 1 3 31.1018 -2697 0 0 0 0 0
303 1 3 31.1018 -2694 0 0 0 0 0
304 1 3 31.1018 -2691 0 0 0 0 0
305 1 3 31.1018 -2688 0 0 0 0 0
306 1 3 31.1018 -2685 0 0 0 0 0
307 1 3 31.1018 -2682 0 0 0 0 0
308 1 3 31.1018 -2679 0 0 0 0 0
309 1 3 31.1018 -2676 0 0 0 0 0
310 1 3 31.1018 -2673 0 0 0 0 0
311 1 3 31.1018 -2670 0 0 0 0 0
312 1 3 31.1018 -2667 0 0 0 0 0
313 1 3 31.1018 -2664 0 0 0 0 0
314 1 3 31.1018 -2661 0 0 0 0 0
315 1 3 31.1018 -2658 0 0 0 0 0
316 1 3 31.1018 -2655 0 0 0 0 0
317 1 3 31.1018 -2652 0 0 0 0 0
318 1 3 31.1018 -2649 0 0 0 0 0
319 1 3 31.1018 -2646 0 0 0 0 0
320 1 3 31.1018 -2643 0 0 0 0 0
321 1 3 31.1018 -2640 0 0 0 0 0
322 1 3 31.1018 -2637 0 0 0 0 0
323 1 3 31.1018 -2634 0 0 0 0 0
324 1 3 31.1018 -2631 0 0 0 0 0
325 1 3 31.1018 -2628 0 0 0 0 0
326 1 3 31.1018 -2625 0 0 0 0 0
327 1 3 31.1018 -2622 0 0 0 0 0
328 1 3 31.1018 -2619 0 0 0 0 0
329 1 3 31.1018 -2616 0 0 0 0 0
330 1 3 31.1018 -2613 0 0 0 0 0
331 1 3 31.1018 -2610 0 0 0 0 0
332 1 3 31.1018 -2607 0 0 0 0 0
333 1 3 31.1018 -2604 0 0 0 0 0
334 1 3 31.1018 -2601 0 0 0 0 0
335 1 3 31.1018 -2598 0 0 0 0 0
336 1 3 31.1018 -2595 0 0 0 0 0
337 1 3 31.1018 -2592 0 0 0 0 0
338 1 3 31.1018 -2589 0 0 0 0 0
339 1 3 31.1018 -2586 0 0 0 0 0
340 1 3 31.1018 -2583 0 0 0 0 0
341 1 3 31.1018 -2580 0 0 0 0 0
342 1 3 31.1018 -2577 0 0 0 0 0
343 1 3 31.1018 -2574 0 0 0 0 0
344 1 3 31.1018 -2571 0 0 0 0 0
345 1 3 31.1018 -2568 0 0 0 0 0
346 1 3 31.1018 -2565 0 0 0 0 0
347 1 3 31.1018 -2562 0 0 0 0 0
348 1 3 31.1018 -2559 0 0 0 0 0
349 1 3 31.1018 -2556 0 0 0 0 0
350 1 3 31.1018 -2553 0 0 0 0 0
351 1 3 31.1018 -2550 0 0 0 0 0
352 1 3 31.1018 -2547 0 0 0 0 0
353 1 3 31.1018 -2544 0 0 0 0 0
354 1 3 31.1018 -2541 0 0 0 0 0
355 1 3 31.1018 -2538 0 0 0 0 0
356 1 3 31.1018 -2535 0 0 0 0 0
357 1 3 31.1018 -2532 0 0 0 0 0
358 1 3 31.1018 -2529 0 0 0 0 0
359 1 3 31.1018 -2526 0 0 0 0 0
360 1 3 31.1018 -2523 0 0 0 0 0
361 1 3 31.1018 -2520 0 0 0 0 0
362 1 3 31.1018 -2517 0 0 0 0 0
363 1 3 31.1018 -2514 0 0 0 0 0
364 1 3 31.1018 -2511 0 0 0 0 0
365 1 3 31.1018 -2508 0 0 0 0 0
366 1 3 31.1018 -2505 0 0 0 0 0
367 1 3 31.1018 -2502 0 0 0 0 0
368 1 3 31.1018 -2499 0 0 0 0 0
369 1 3 31.1018 -2496 0 0 0 0 0
370 1 3 31.1018 -2493 0 0 0 0 0
371 1 3 31.1018 -2490 0 0 0 0 0
372 1 3 31.1018 -2487 0 0 0 0 0
373 1 3 31.1018 -2484 0 0 0 0 0
374 1 3 31.1018 -2481 0 0 0 0 0
375 1 3 31.1018 -2478 0 0 0 0 0
376 1 3 31.1018 -2475 0 0 0 0 0
377 1 3 31.1018 -2472 0 0 0 0 0
378 1 3 31.1018 -2469 0 0 0 0 0
379 1 3 31.1018 -2466 0 0 0 0 0
380 1 3 31.1018 -2463 0 0 0 0 0
381 1 3 31.1018 -2460 0 0 0 0 0
382 1 3 31.1018 -2457 0 0 0 0 0
383 1 3 31.1018 -2454 0 0 0 0 0
384 1 3 31.1018 -2451 0 0 0 0 0
385 1 3 31.1018 -2448 0 0 0 0 0
386 1 3 31.1018 -2445 0 0 0 0 0
387 1 3 31.1018 -2442 0 0 0 0 0
388 1 3 31.1018 -2439 0 0 0 0 0
389 1 3 31.1018 -2436 0 0 0 0 0
390 1 3 31.1018 -2433 0 0 0 0 0
391 1 3 31.1018 -2430 0 0 0 0 0
392 1 3 31.1018 -2427 0 0 0 0 0
393 1 3 31.1018 -2424 0 0 0 0 0
394 1 3 31.1018 -2421 0 0 0 0 0
395 1 3 31.1018 -2418 0 0 0 0 0
396 1 3 31.1018 -2415 0 0 0 0 0
397 1 3 31.1018 -2412 0 0 0 0 0
398 1 3 31.1018 -2409 0 0 0 0 0
399 1 3 31.1018 -2406 0 0 0 0 0
400 1 3 31.1018 -2403 0 0 0 0 0
401 1 3 31.1018 -2400 0 0 0 0 0
402 1 3 31.1018 -2397 0 0 0 0 0
403 1 3 31.1018 -2394 0 0 0 0 0
404 1 3 31.1018 -2391 0 0 0 0 0
405 1 3 31.1018 -2388 0 0 0 0 0
406 1 3 31.1018 -2385 0 0 0 0 0
407 1 3 31.1018 -2382 0 0 0 0 0
408 1 3 31.1018 -2379 0 0 0 0 0
409 1 3 31.1018 -2376 0 0 0 0 0
410 1 3 31.1018 -2373 0 0 0 0 0
411 1 3 31.1018 -2370 0 0 0 0 0
412 1 3 31.1018 -2367 0 0 0 0 0
413 1 3 31.1018 -2364 0 0 0 0 0
414 1 3 31.1018 -2361 0 0 0 0 0
415 1 3 31.1018 -2358 0 0 0 0 0
416 1 3 31.1018 -2355 0 0 0 0 0
417 1 3 31.1018 -2352 0 0 0 0 0
418 1 3 31.1018 -2349 0 0 0 0 0
419 1 3 31.1018 -2346 0 0 0 0 0
420 1 3 31.1018 -2343 0 0 0 0 0
421 1 3 31.1018 -2340 0 0 0 0 0
422 1 3 31.1018 -2337 0 0 0 0 0
423 1 3 31.1018 -2334 0 0 0 0 0
424 1 3 31.1018 -2331 0 0 0 0 0
425 1 3 31.1018 -2328 0 0 0 0 0
426 1 3 31.1018 -2325 0 0 0 0 0
427 1 3 31.1018 -2322 0 0 0 0 0
428 1 3 31.1018 -2319 0 0 0 0 0
429 1 3 31.1018 -2316 0 0 0 0 0
430 1 3 31.1018 -2313 0 0 0 0 0
431 1 3 31.1018 -2310 0 0 0 0 0
432 1 3 31.1018 -2307 0 0 0 0 0
433 1 3 31.1018 -2304 0 0 0 0 0
434 1 3 31.1018 -2301 0 0 0 0 0
435 1 3 31.1018 -2298 0 0 0 0 0
436 1 3 31.1018 -2295 0 0 0 0 0
437 1 3 31.1018 -2292 0 0 0 0 0
438 1 3 31.1018 -2289 0 0 0 0 0
439 1 3 31.1018 -2286 0 0 0 0 0
440 1 3 31.1018 -2283 0 0 0 0 0
441 1 3 31.1018 -2280 0 0 0 0 0
442 1 3 31.1018 -2277 0 0 0 0 0
443 1 3 31.1018 -2274 0 0 0 0 0
444 1 3 31.1018 -2271 0 0 0 0 0
445 1 3 31.1018 -2268 0 0 0 0 0
446 1 3 31.1018 -2265 0 0 0 0 0
447 1 3 31.1018 -2262 0 0 0 0 0
448 1 3 31.1018 -2259 0 0 0 0 0
449 1 3 31.1018 -2256 0 0 0 0 0
450 1 3 31.1018 -2253 0 0 0 0 0
451 1 3 31.1018 -2250 0 0 0 0 0
452 1 3 31.1018 -2247 0 0 0 0 0
453 1 3 31.1018 -2244 0 0 0 0 0
454 1 3 31.1018 -2241 0 0 0 0 0
455 1 3 31.1018 -2238 0 0 0 0 0
456 1 3 31.1018 -2235 0 0 0 0 0
457 1 3 31.1018 -2232 0 0 0 0 0
458 1 3 31.1018 -2229 0 0 0 0 0
459 1 3 31.1018 -2226 0 0 0 0 0
460 1 3 31.1018 -2223 0 0 0 0 0
461 1 3 31.1018 -2220 0 0 0 0 0
462 1 3 31.1018 -2217 0 0 0 0 0
463 1 3 31.1018 -2214 0 0 0 0 0
464 1 3 31.1018 -2211 0 0 0 0 0
465 1 3 31.1018 -2208 0 0 0 0 0
466 1 3 31.1018 -2205 0 0 0 0 0
467 1 3 31.1018 -2202 0 0 0 0 0
468 1 3 31.1018 -2199 0 0 0 0 0
469 1 3 31.1018 -2196 0 0 0 0 0
470 1 3 31.1018 -2193 0 0 0 0 0
471 1 3 31.1018 -2190 0 0 0 0 0
472 1 3 31.1018 -2187 0 0 0 0 0
473 1 3 31.1018 -2184 0 0 0 0 0
474 1 3 31.1018 -2181 0 0 0 0 0
475 1 3 31.1018 -2178 0 0 0 0 0
476 1 3 31.1018 -2175 0 0 0 0 0
477 1 3 31.1018 -2172 0 0 0 0 0
478 1 3 31.1018 -2169 0 0 0 0 0
479 1 3 31.1018 -2166 0 0 0 0 0
480 1 3 31.1018 -2163 0 0 0 0 0
481 1 3 31.1018 -2160 0 0 0 0 0
482 1 3 31.1018 -2157 0 0 0 0 0
483 1 3 31.1018 -2154 0 0 0 0 0
484 1 3 31.1018 -2151 0 0 0 0 0
485 1 3 31.1018 -2148 0 0 0 0 0
486 1 3 31.1018 -2145 0 0 0 0 0
487 1 3 31.1018 -2142 0 0 0 0 0
488 1 3 31.1018 -2139 0 0 0 0 0
489 1 3 31.1018 -2136 0 0 0 0 0
490 1 3 31.1018 -2133 0 0 0 0 0
491 1 3 31.1018 -2130 0 0 0 0 0
492 1 3 31.1018 -2127 0 0 0 0 0
493 1 3 31.1018 -2124 0 0 0 0 0
494 1 3 31.1018 -2121 0 0 0 0 0
495 1 3 31.1018 -2118 0 0 0 0 0
496 1 3 31.1018 -2115 0 0 0 0 0
497 1 3 31.1018 -2112 0 0 0 0 0
498 1 3 31.1018 -2109 0 0 0 0 0
499 1 3 31.1018 -2106 0 0 0 0 0
500 1 3 31.1018 -2103 0 0 0 0 0
501 1 3 31.1018 -2100 0 0 0 0 0
502 1 3 31.1018 -2097 0 0 0 0 0
503 1 3 31.1018 -2094 0 0 0 0 0
504 1 3 31.1018 -2091 0 0 0 0 0
505 1 3 31.1018 -2088 0 0 0 0 0
506 1 3 31.1018 -2085 0 0 0 0 0
507 1 3 31.1018 -2082 0 0 0 0 0
508 1 3 31.1018 -2079 0 0 0 0 0
509 1 3 31.1018 -2076 0 0 0 0 0
510 1 3 31.1018 -2073 0 0 0 0 0
511 1 3 31.1018 -2070 0 0 0 0 0
512 1 3 31.1018 -2067 0 0 0 0 0
513 1 3 31.1018 -2064 0 0 0 0 0
514 1 3 31.1018 -2061 0 0 0 0 0
515 1 3 31.1018 -2058 0 0 0 0 0
516 1 3 31.1018 -2055 0 0 0 0 0
517 1 3 31.1018 -2052 0 0 0 0 0
518 1 3 31.1018 -2049 0 0 0 0 0
519 1 3 31.1018 -2046 0 0 0 0 0
520 1 3 31.1018 -2043 0 0 0 0 0
521 1 3 31.1018 -2040 0 0 0 0 0
522 1 3 31.1018 -2037 0 0 0 0 0
523 1 3 31.1018 -2034 0 0 0 0 0
524 1 3 31.1018 -2031 0 0 0 0 0
525 1 3 31.1018 -2028 0 0 0 0 0
526 1 3 31.1018 -2025 0 0 0 0 0
527 1 3 31.1018 -2022 0 0 0 0 0
528 1 3 31.1018 -2019 0 0 0 0 0
529 1 3 31.1018 -2016 0 0 0 0 0
530 1 3 31.1018 -2013 0 0 0 0 0
531 1 3 31.1018 -2010 0 0 0 0 0
532 1 3 31.1018 -2007 0 0 0 0 0
533 1 3 31.1018 -2004 0 0 0 0 0
534 1 3 31.1018 -2001 0 0 0 0 0
535 1 3 31.1018 -1998 0 0 0 0 0
536 1 3 31.1018 -1995 0 0 0 0 0
537 1 3 31.1018 -1992 0 0 0 0 0
538 1 3 31.1018 -1989 0 0 0 0 0
539 1 3 31.1018 -1986 0 0 0 0 0
540 1 3 31.1018 -1983 0 0 0 0 0
541 1 3 31.1018 -1980 0 0 0 0 0
542 1 3 31.1018 -1977 0 0 0 0 0
543 1 3 31.1018 -1974 0 0 0 0 0
544 1 3 31.1018 -1971 0 0 0 0 0
545 1 3 31.1018 -1968 0 0 0 0 0
546 1 3 31.1018 -1965 0 0 0 0 0
547 1 3 31.1018 -1962 0 0 0 0 0
548 1 3 31.1018 -1959 0 0 0 0 0
549 1 3 31.1018 -1956 0 0 0 0 0
550 1 3 31.1018 -1953 0 0 0 0 0
551 1 3 31.1018 -1950 0 0 0 0 0
552 1 3 31.1018 -1947 0 0 0 0 0
553 1 3 31.1018 -1944 0 0 0 0 0
554 1 3 31.1018 -1941 0 0 0 0 0
555 1 3 31.1018 -1938 0 0 0 0 0
556 1 3 31.1018 -1935 0 0 0 0 0
557 1 3 31.1018 -1932 0 0 0 0 0
558 1 3 31.1018 -1929 0 0 0 0 0
559 1 3 31.1018 -1926 0 0 0 0 0
560 1 3 31.1018 -1923 0 0 0 0 0
561 1 3 31.1018 -1920 0 0 0 0 0
562 1 3 31.1018 -1917 0 0 0 0 0
563 1 3 31.1018 -1914 0 0 0 0 0
564 1 3 31.1018 -1911 0 0 0 0 0
565 1 3 31.1018 -1908 0 0 0 0 0
566 1 3 31.1018 -1905 0 0 0 0 0
567 1 3 31.1018 -1902 0 0 0 0 0
568 1 3 31.1018 -1899 0 0 0 0 0
569 1 3 31.1018 -1896 0 0 0 0 0
570 1 3 31.1018 -1893 0 0 0 0 0
571 1 3 31.1018 -1890 0 0 0 0 0
572 1 3 31.1018 -1887 0 0 0 0 0
573 1 3 31.1018 -1884 0 0 0 0 0
574 1 3 31.1018 -1881 0 0 0 0 0
575 1 3 31.1018 -1878 0 0 0 0 0
576 1 3 31.1018 -1875 0 0 0 0 0
577 1 3 31.1018 -1872 0 0 0 0 0
578 1 3 31.1018 -1869 0 0 0 0 0
579 1 3 31.1018 -1866 0 0 0 0 0
580 1 3 31.1018 -1863 0 0 0 0 0
581 1 3 31.1018 -1860 0 0 0 0 0
582 1 3 31.1018 -1857 0 0 0 0 0
583 1 3 31.1018 -1854 0 0 0 0 0
584 1 3 31.1018 -1851 0 0 0 0 0
585 1 3 31.1018 -1848 0 0 0 0 0
586 1 3 31.1018 -1845 0 0 0 0 0
587 1 3 31.1018 -1842 0 0 0 0 0
588 1 3 31.1018 -1839 0 0 0 0 0
589 1 3 31.1018 -1836 0 0 0 0 0
590 1 3 31.1018 -1833 0 0 0 0 0
591 1 3 31.1018 -1830 0 0 0 0 0
592 1 3 31.1018 -1827 0 0 0 0 0
593 1 3 31.1018 -1824 0 0 0 0 0
594 1 3 31.1018 -1821 0 0 0 0 0
595 1 3 31.1018 -1818 0 0 0 0 0
596 1 3 31.1018 -1815 0 0 0 0 0
597 1 3 31.1018 -1812 0 0 0 0 0
598 1 3 31.1018 -1809 0 0 0 0 0
599 1 3 31.1018 -1806 0 0 0 0 0
600 1 3 31.1018 -1803 0 0 0 0 0
2401 2 3 31.1018 -2404.50010138230664 2.65577e-21 2.59757462499160807 0.127466 0 -0.0516313
2402 2 3 31.1018 -2401.50010138230755 2.65245e-21 2.59757462498266012 0.127387 0 -0.0516301
2403 2 3 31.1018 -2398.500101382308 2.64913e-21 2.59757462497371217 0.127308 0 -0.0516289
2404 2 3 31.1018 -2395.50010138230846 2.64581e-21 2.59757462496476466 0.127228 0 -0.0516278
2405 2 3 31.1018 -2392.50010138230937 2.64249e-21 2.5975746249558167 0.12715 0 -0.0516265
2406 2 3 31.1018 -2389.50010138230982 2.63917e-21 2.59757462494686875 0.12707 0 -0.0516254
2407 2 3 31.1018 -2386.50010138231028 2.63585e-21 2.5975746249379208 0.126991 0 -0.0516242
2408 2 3 31.1018 -2383.50010138231119 2.63253e-21 2.59757462492897329 0.126912 0 -0.051623
2409 2 3 31.1018 -2380.50010138231164 2.62921e-21 2.59757462492002533 0.126833 0 -0.0516219
2410 2 3 31.1018 -2377.50010138231255 2.62589e-21 2.59757462491107738 0.126754 0 -0.0516207
2411 2 3 31.1018 -2374.50010138231301 2.62257e-21 2.59757462490212943 0.126675 0 -0.0516195
2412 2 3 31.1018 -2371.50010138231346 2.61925e-21 2.59757462489318192 0.126596 0 -0.0516183
2413 2 3 31.1018 -2368.50010138231437 2.61593e-21 2.59757462488423396 0.126517 0 -0.0516171
2414 2 3 31.1018 -2365.50010138231482 2.61261e-21 2.59757462487528601 0.126438 0 -0.051616
2415 2 3 31.1018 -2362.50010138231528 2.60929e-21 2.59757462486633806 0.126358 0 -0.0516148
2416 2 3 31.1018 -2359.50010138231619 2.60597e-21 2.59757462485739055 0.126279 0 -0.0516136
2417 2 3 31.1018 -2356.50010138231664 2.60265e-21 2.59757462484844259 0.1262 0 -0.0516124
2418 2 3 31.1018 -2353.50010138231755 2.59933e-21 2.59757462483949464 0.126121 0 -0.0516112
2419 2 3 31.1018 -2350.50010138231801 2.59601e-21 2.59757462483054669 0.126042 0 -0.0516101
2420 2 3 31.1018 -2347.50010138231846 2.59269e-21 2.59757462482159918 0.125963 0 -0.0516089
2421 2 3 31.1018 -2344.50010138231937 2.58937e-21 2.59757462481265122 0.125884 0 -0.0516077
2422 2 3 31.1018 -2341.50010138231983 2.58605e-21 2.59757462480370327 0.125805 0 -0.0516065
2423 2 3 31.1018 -2338.50010138232028 2.58273e-21 2.59757462479475532 0.125725 0 -0.0516054
2424 2 3 31.1018 -2335.50010138232119 2.57942e-21 2.59757462478580781 0.125647 0 -0.0516042
2425 2 3 31.1018 -2332.50010138232165 2.5761e-21 2.59757462477685985 0.125567 0 -0.051603
2426 2 3 31.1018 -2329.50010138232255 2.57278e-21 2.5975746247679119 0.125489 0 -0.0516018
2427 2 3 31.1018 -2326.50010138232301 2.56946e-21 2.59757462475896395 0.125409 0 -0.0516006
2428 2 3 31.1018 -2323.50010138232346 2.56614e-21 2.59757462475001644 0.12533 0 -0.0515995
2429 2 3 31.1018 -2320.50010138232437 2.56282e-21 2.59757462474106848 0.125251 0 -0.0515983
2430 2 3 31.1018 -2317.50010138232483 2.5595e-21 2.59757462473212053 0.125172 0 -0.0515971
2431 2 3 31.1018 -2314.50010138232528 2.55618e-21 2.59757462472317258 0.125093 0 -0.051596
2432 2 3 31.1018 -2311.50010138232619 2.55286e-21 2.59757462471422507 0.125014 0 -0.0515947
2433 2 3 31.1018 -2308.50010138232665 2.54954e-21 2.59757462470527711 0.124935 0 -0.0515936
2434 2 3 31.1018 -2305.50010138232756 2.54622e-21 2.59757462469632916 0.124856 0 -0.0515924
2435 2 3 31.1018 -2302.50010138232801 2.5429e-21 2.59757462468738121 0.124777 0 -0.0515912
2436 2 3 31.1018 -2299.50010138232847 2.53958e-21 2.5975746246784337 0.124697 0 -0.0515901
2437 2 3 31.1018 -2296.50010138232938 2.53626e-21 2.59757462466948574 0.124618 0 -0.0515889
2438 2 3 31.1018 -2293.50010138232983 2.53294e-21 2.59757462466053779 0.124539 0 -0.0515877
2439 2 3 31.1018 -2290.50010138233029 2.52962e-21 2.59757462465158984 0.12446 0 -0.0515865
2440 2 3 31.1018 -2287.5001013823312 2.5263e-21 2.59757462464264233 0.124381 0 -0.0515853
2441 2 3 31.1018 -2284.50010138233165 2.52298e-21 2.59757462463369437 0.124302 0 -0.0515842
2442 2 3 31.1018 -2281.50010138233256 2.51966e-21 2.59757462462474642 0.124223 0 -0.051583
2443 2 3 31.1018 -2278.50010138233301 2.51634e-21 2.59757462461579847 0.124144 0 -0.0515818
2444 2 3 31.1018 -2275.50010138233347 2.51302e-21 2.59757462460685096 0.124064 0 -0.0515806
2445 2 3 31.1018 -2272.50010138233438 2.5097e-21 2.597574624597903 0.123986 0 -0.0515794
2446 2 3 31.1018 -2269.50010138233483 2.50638e-21 2.59757462458895505 0.123906 0 -0.0515783
2447 2 3 31.1018 -2266.50010138233529 2.50306e-21 2.5975746245800071 0.123827 0 -0.0515771
2448 2 3 31.1018 -2263.5001013823362 2.49974e-21 2.59757462457105959 0.123748 0 -0.0515759
2449 2 3 31.1018 -2260.50010138233665 2.49642e-21 2.59757462456211163 0.123669 0 -0.0515747
2450 2 3 31.1018 -2257.50010138233756 2.4931e-21 2.59757462455316368 0.12359 0 -0.0515735
2451 2 3 31.1018 -2254.50010138233802 2.48978e-21 2.59757462454421573 0.123511 0 -0.0515724
2452 2 3 31.1018 -2251.50010138233847 2.48646e-21 2.59757462453526822 0.123432 0 -0.0515712
2453 2 3 31.1018 -2248.50010138233938 2.48314e-21 2.59757462452632026 0.123353 0 -0.05157
2454 2 3 31.1018 -2245.50010138233984 2.47982e-21 2.59757462451737231 0.123274 0 -0.0515688
2455 2 3 31.1018 -2242.50010138234029 2.4765e-21 2.59757462450842436 0.123194 0 -0.0515677
2456 2 3 31.1018 -2239.5001013823412 2.47318e-21 2.59757462449947685 0.123115 0 -0.0515665
2457 2 3 31.1018 -2236.50010138234165 2.46986e-21 2.59757462449052889 0.123036 0 -0.0515653
2458 2 3 31.1018 -2233.50010138234256 2.46654e-21 2.59757462448158094 0.122957 0 -0.0515641
2459 2 3 31.1018 -2230.50010138234302 2.46323e-21 2.59757462447263299 0.122878 0 -0.0515629
2460 2 3 31.1018 -2227.50010138234347 2.45991e-21 2.59757462446368548 0.122799 0 -0.0515618
2461 2 3 31.1018 -2224.50010138234438 2.45659e-21 2.59757462445473752 0.12272 0 -0.0515606
2462 2 3 31.1018 -2221.50010138234484 2.45327e-21 2.59757462444578957 0.122641 0 -0.0515594
2463 2 3 31.1018 -2218.50010138234529 2.44995e-21 2.59757462443684162 0.122562 0 -0.0515583
2464 2 3 31.1018 -2215.5001013823462 2.44663e-21 2.59757462442789411 0.122483 0 -0.0515571
2465 2 3 31.1018 -2212.50010138234666 2.44331e-21 2.59757462441894615 0.122403 0 -0.0515559
2466 2 3 31.1018 -2209.50010138234757 2.43999e-21 2.5975746244099982 0.122325 0 -0.0515547
2467 2 3 31.1018 -2206.50010138234802 2.43667e-21 2.59757462440105025 0.122245 0 -0.0515535
2468 2 3 31.1018 -2203.50010138234848 2.43335e-21 2.59757462439210274 0.122166 0 -0.0515524
2469 2 3 31.1018 -2200.50010138234938 2.43003e-21 2.59757462438315478 0.122087 0 -0.0515512
2470 2 3 31.1018 -2197.50010138234984 2.42671e-21 2.59757462437420683 0.122008 0 -0.05155
2471 2 3 31.1018 -2194.50010138235029 2.42339e-21 2.59757462436525888 0.121929 0 -0.0515488
2472 2 3 31.1018 -2191.5001013823512 2.42007e-21 2.59757462435631137 0.12185 0 -0.0515476
2473 2 3 31.1018 -2188.50010138235166 2.41675e-21 2.59757462434736341 0.121771 0 -0.0515465
2474 2 3 31.1018 -2185.50010138235257 2.41343e-21 2.59757462433841546 0.121692 0 -0.0515453
2475 2 3 31.1018 -2182.50010138235302 2.41011e-21 2.59757462432946751 0.121613 0 -0.0515441
2476 2 3 31.1018 -2179.50010138235348 2.40679e-21 2.59757462432052 0.121533 0 -0.0515429
2477 2 3 31.1018 -2176.50010138235439 2.40347e-21 2.59757462431157204 0.121454 0 -0.0515417
2478 2 3 31.1018 -2173.50010138235484 2.40015e-21 2.59757462430262409 0.121375 0 -0.0515406
2479 2 3 31.1018 -2170.5001013823553 2.39683e-21 2.59757462429367614 0.121296 0 -0.0515394
2480 2 3 31.1018 -2167.50010138235621 2.39351e-21 2.59757462428472863 0.121217 0 -0.0515382
2481 2 3 31.1018 -2164.50010138235666 2.39019e-21 2.59757462427578067 0.121138 0 -0.051537
2482 2 3 31.1018 -2161.50010138235757 2.38687e-21 2.59757462426683272 0.121059 0 -0.0515358
2483 2 3 31.1018 -2158.50010138235803 2.38355e-21 2.59757462425788477 0.12098 0 -0.0515347
2484 2 3 31.1018 -2155.50010138235848 2.38023e-21 2.59757462424893726 0.1209 0 -0.0515335
2485 2 3 31.1018 -2152.50010138235939 2.37691e-21 2.5975746242399893 0.120822 0 -0.0515323
2486 2 3 31.1018 -2149.50010138235984 2.37359e-21 2.59757462423104135 0.120742 0 -0.0515311
2487 2 3 31.1018 -2146.5001013823603 2.37027e-21 2.5975746242220934 0.120663 0 -0.05153
2488 2 3 31.1018 -2143.50010138236121 2.36695e-21 2.59757462421314589 0.120584 0 -0.0515288
2489 2 3 31.1018 -2140.50010138236166 2.36363e-21 2.59757462420419794 0.120505 0 -0.0515276
2490 2 3 31.1018 -2137.50010138236257 2.36031e-21 2.59757462419524998 0.120426 0 -0.0515264
2491 2 3 31.1018 -2134.50010138236303 2.35699e-21 2.59757462418630203 0.120347 0 -0.0515253
2492 2 3 31.1018 -2131.50010138236348 2.35367e-21 2.59757462417735452 0.120268 0 -0.0515241
2493 2 3 31.1018 -2128.50010138236439 2.35036e-21 2.59757462416840657 0.120189 0 -0.0515229
2494 2 3 31.1018 -2125.50010138236485 2.34704e-21 2.59757462415945861 0.12011 0 -0.0515217
2495 2 3 31.1018 -2122.5001013823653 2.34372e-21 2.59757462415051066 0.12003 0 -0.0515206
2496 2 3 31.1018 -2119.50010138236621 2.3404e-21 2.59757462414156315 0.119952 0 -0.0515194
2497 2 3 31.1018 -2116.50010138236667 2.33708e-21 2.5975746241326152 0.119872 0 -0.0515182
2498 2 3 31.1018 -2113.50010138236757 2.33376e-21 2.59757462412366724 0.119793 0 -0.051517
2499 2 3 31.1018 -2110.50010138236803 2.33044e-21 2.59757462411471929 0.119714 0 -0.0515158
2500 2 3 31.1018 -2107.50010138236848 2.32712e-21 2.59757462410577178 0.119635 0 -0.0515147
2501 2 3 31.1018 -2104.50010138236939 2.3238e-21 2.59757462409682383 0.119556 0 -0.0515135
2502 2 3 31.1018 -2101.50010138236985 2.32048e-21 2.59757462408787587 0.119477 0 -0.0515123
2503 2 3 31.1018 -2098.5001013823703 2.31716e-21 2.59757462407892792 0.119398 0 -0.0515111
2504 2 3 31.1018 -2095.50010138237121 2.31384e-21 2.59757462406998041 0.119319 0 -0.0515099
2505 2 3 31.1018 -2092.50010138237167 2.31052e-21 2.59757462406103246 0.119239 0 -0.0515088
2506 2 3 31.1018 -2089.50010138237258 2.3072e-21 2.5975746240520845 0.119161 0 -0.0515076
2507 2 3 31.1018 -2086.50010138237303 2.30388e-21 2.59757462404313655 0.119081 0 -0.0515064
2508 2 3 31.1018 -2083.50010138237349 2.30056e-21 2.59757462403418904 0.119002 0 -0.0515052
2509 2 3 31.1018 -2080.5001013823744 2.29724e-21 2.59757462402524109 0.118923 0 -0.051504
2510 2 3 31.1018 -2077.50010138237485 2.29392e-21 2.59757462401629313 0.118844 0 -0.0515029
2511 2 3 31.1018 -2074.50010138237531 2.2906e-21 2.59757462400734518 0.118765 0 -0.0515017
2512 2 3 31.1018 -2071.50010138237622 2.28728e-21 2.59757462399839767 0.118686 0 -0.0515005
2513 2 3 31.1018 -2068.50010138237667 2.28396e-21 2.59757462398944972 0.118607 0 -0.0514993
2514 2 3 31.1018 -2065.50010138237758 2.28064e-21 2.59757462398050176 0.118528 0 -0.0514981
2515 2 3 31.1018 -2062.50010138237803 2.27732e-21 2.59757462397155381 0.118449 0 -0.051497
2516 2 3 31.1018 -2059.50010138237849 2.274e-21 2.5975746239626063 0.118369 0 -0.0514958