ITEM: TIMESTEP
3100000
ITEM: NUMBER OF ATOMS
3001
ITEM: BOX BOUNDS pp pp pp
-2.7000000000000000e+03 2.7000000000000000e+03
-1.0000000000000000e+02 1.0000000000000000e+02
-1.0000000000000000e+02 1.0000000000000000e+02
ITEM: ATOMS id type diameter mass xu yu zu fx fy fz
1 1 3 31.1018 -2700 0 0 0 0 0
2 1 3 31.1018 -2697 0 0 0 0 0
3 1 3 31.1018 -2694 0 0 0 0 0
4 1 3 31.1018 -2691 0 0 0 0 0
5 1 3 31.1018 -2688 0 0 0 0 0
6 1 3 31.1018 -2685 0 0 0 0 0
7 1 3 31.1018 -2682 0 0 0 0 0
8 1 3 31.1018 -2679 0 0 0 0 0
9 1 3 31.1018 -2676 0 0 0 0 0
10 1 3 31.1018 -2673 0 0 0 0 0
11 1 3 31.1018 -2670 0 0 0 0 0
12 1 3 31.1018 -2667 0 0 0 0 0
13 1 3 31.1018 -2664 0 0 0 0 0
14 1 3 31.1018 -2661 0 0 0 0 0
15 1 3 31.1018 -2658 0 0 0 0 0
16 1 3 31.1018 -2655 0 0 0 0 0
17 1 3 31.1018 -2652 0 0 0 0 0
18 1 3 31.1018 -2649 0 0 0 0 0
19 1 3 31.1018 -2646 0 0 0 0 0
20 1 3 31.1018 -2643 0 0 0 0 0
21 1 3 31.1018 -2640 0 0 0 0 0
22 1 3 31.1018 -2637 0 0 0 0 0
23 1 3 31.1018 -2634 0 0 0 0 0
24 1 3 31.1018 -2631 0 0 0 0 0
25 1 3 31.1018 -2628 0 0 0 0 0
26 1 3 31.1018 -2625 0 0 0 0 0
27 1 3 31.1018 -2622 0 0 0 0 0
28 1 3 31.1018 -2619 0 0 0 0 0
29 1 3 31.1018 -2616 0 0 0 0 0
30 1 3 31.1018 -2613 0 0 0 0 0
31 1 3 31.1018 -2610 0 0 0 0 0
32 1 3 31.1018 -2607 0 0 0 0 0
33 1 3 31.1018 -2604 0 0 0 0 0
34 1 3 31.1018 -2601 0 0 0 0 0
35 1 3 31.1018 -2598 0 0 0 0 0
36 1 3 31.1018 -2595 0 0 0 0 0
37 1 3 31.1018 -2592 0 0 0 0 0
38 1 3 31.1018 -2589 0 0 0 0 0
39 1 3 31.1018 -2586 0 0 0 0 0
40 1 3 31.1018 -2583 0 0 0 0 0
41 1 3 31.1018 -2580 0 0 0 0 0
42 1 3 31.1018 -2577 0 0 0 0 0
43 1 3 31.1018 -2574 0 0 0 0 0
44 1 3 31.1018 -2571 0 0 0 0 0
45 1 3 31.1018 -2568 0 0 0 0 0
46 1 3 31.1018 -2565 0 0 0 0 0
47 1 3 31.1018 -2562 0 0 0 0 0
48 1 3 31.1018 -2559 0 0 0 0 0
49 1 3 31.1018 -2556 0 0 0 0 0
50 1 3 31.1018 -2553 0 0 0 0 0
51 1 3 31.1018 -2550 0 0 0 0 0
52 1 3 31.1018 -2547 0 0 0 0 0
53 1 3 31.1018 -2544 0 0 0 0 0
54 1 3 31.1018 -2541 0 0 0 0 0
55 1 3 31.1018 -2538 0 0 0 0 0
56 1 3 31.1018 -2535 0 0 0 0 0
57 1 3 31.1018 -2532 0 0 0 0 0
58 1 3 31.1018 -2529 0 0 0 0 0
59 1 3 31.1018 -2526 0 0 0 0 0
60 1 3 31.1018 -2523 0 0 0 0 0
61 1 3 31.1018 -2520 0 0 0 0 0
62 1 3 31.1018 -2517 0 0 0 0 0
63 1 3 31.1018 -2514 0 0 0 0 0
64 1 3 31.1018 -2511 0 0 0 0 0
65 1 3 31.1018 -2508 0 0 0 0 0
66 1 3 31.1018 -2505 0 0 0 0 0
67 1 3 31.1018 -2502 0 0 0 0 0
68 1 3 31.1018 -2499 0 0 0 0 0
69 1 3 31.1018 -2496 0 0 0 0 0
70 1 3 31.1018 -2493 0 0 0 0 0
71 1 3 31.1018 -2490 0 0 0 0 0
72 1 3 31.1018 -2487 0 0 0 0 0
73 1 3 31.1018 -2484 0 0 0 0 0
74 1 3 31.1018 -2481 0 0 0 0 0
75 1 3 31.1018 -2478 0 0 0 0 0
76 1 3 31.1018 -2475 0 0 0 0 0
77 1 3 31.1018 -2472 0 0 0 0 0
78 1 3 31.1018 -2469 0 0 0 0 0
79 1 3 31.1018 -2466 0 0 0 0 0
80 1 3 31.1018 -2463 0 0 0 0 0
81 1 3 31.1018 -2460 0 0 0 0 0
82 1 3 31.1018 -2457 0 0 0 0 0
83 1 3 31.1018 -2454 0 0 0 0 0
84 1 3 31.1018 -2451 0 0 0 0 0
85 1 3 31.1018 -2448 0 0 0 0 0
86 1 3 31.1018 -2445 0 0 0 0 0
87 1 3 31.1018 -2442 0 0 0 0 0
88 1 3 31.1018 -2439 0 0 0 0 0
89 1 3 31.1018 -2436 0 0 0 0 0
90 1 3 31.1018 -2433 0 0 0 0 0
91 1 3 31.1018 -2430 0 0 0 0 0
92 1 3 31.1018 -2427 0 0 0 0 0
93 1 3 31.1018 -2424 0 0 0 0 0
94 1 3 31.1018 -2421 0 0 0 0 0
95 1 3 31.1018 -2418 0 0 0 0 0
96 1 3 31.1018 -2415 0 0 0 0 0
97 1 3 31.1018 -2412 0 0 0 0 0
98 1 3 31.1018 -2409 0 0 0 0 0
99 1 3 31.1018 -2406 0 0 0 0 0
100 1 3 31.1018 -2403 0 0 0 0 0
101 1 3 31.1018 -2400 0 0 0 0 0
102 1 3 31.1018 -2397 0 0 0 0 0
103 1 3 31.1018 -2394 0 0 0 0 0
104 1 3 31.1018 -2391 0 0 0 0 0
105 1 3 31.1018 -2388 0 0 0 0 0
106 1 3 31.1018 -2385 0 0 0 0 0
107 1 3 31.1018 -2382 0 0 0 0 0
108 1 3 31.1018 -2379 0 0 0 0 0
109 1 3 31.1018 -2376 0 0 0 0 0
110 1 3 31.1018 -2373 0 0 0 0 0
111 1 3 31.1018 -2370 0 0 0 0 0
112 1 3 31.1018 -2367 0 0 0 0 0
113 1 3 31.1018 -2364 0 0 0 0 0
114 1 3 31.1018 -2361 0 0 0 0 0
115 1 3 31.1018 -2358 0 0 0 0 0
116 1 3 31.1018 -2355 0 0 0 0 0
117 1 3 31.1018 -2352 0 0 0 0 0
118 1 3 31.1018 -2349 0 0 0 0 0
119 1 3 31.1018 -2346 0 0 0 0 0
120 1 3 31.1018 -2343 0 0 0 0 0
121 1 3 31.1018 -2340 0 0 0 0 0
122 1 3 31.1018 -2337 0 0 0 0 0
123 1 3 31.1018 -2334 0 0 0 0 0
124 1 3 31.1018 -2331 0 0 0 0 0
125 1 3 31.1018 -2328 0 0 0 0 0
126 1 3 31.1018 -2325 0 0 0 0 0
127 1 3 31.1018 -2322 0 0 0 0 0
128 1 3 31.1018 -2319 0 0 0 0 0
129 1 3 31.1018 -2316 0 0 0 0 0
130 1 3 31.1018 -2313 0 0 0 0 0
131 1 3 31.1018 -2310 0 0 0 0 0
132 1 3 31.1018 -2307 0 0 0 0 0
133 1 3 31.1018 -2304 0 0 0 0 0
134 1 3 31.1018 -2301 0 0 0 0 0
135 1 3 31.1018 -2298 0 0 0 0 0
136 1 3 31.1018 -2295 0 0 0 0 0
137 1 3 31.1018 -2292 0 0 0 0 0
138 1 3 31.1018 -2289 0 0 0 0 0
139 1 3 31.1018 -2286 0 0 0 0 0
140 1 3 31.1018 -2283 0 0 0 0 0
141 1 3 31.1018 -2280 0 0 0 0 0
142 1 3 31.1018 -2277 0 0 0 0 0
143 1 3 31.1018 -2274 0 0 0 0 0
144 1 3 31.1018 -2271 0 0 0 0 0
145 1 3 31.1018 -2268 0 0 0 0 0
146 1 3 31.1018 -2265 0 0 0 0 0
147 1 3 31.1018 -2262 0 0 0 0 0
148 1 3 31.1018 -2259 0 0 0 0 0
149 1 3 31.1018 -2256 0 0 0 0 0
150 1 3 31.1018 -2253 0 0 0 0 0
151 1 3 31.1018 -2250 0 0 0 0 0
152 1 3 31.1018 -2247 0 0 0 0 0
153 1 3 31.1018 -2244 0 0 0 0 0
154 1 3 31.1018 -2241 0 0 0 0 0
155 1 3 31.1018 -2238 0 0 0 0 0
156 1 3 31.1018 -2235 0 0 0 0 0
157 1 3 31.1018 -2232 0 0 0 0 0
158 1 3 31.1018 -2229 0 0 0 0 0
159 1 3 31.1018 -2226 0 0 0 0 0
160 1 3 31.1018 -2223 0 0 0 0 0
161 1 3 31.1018 -2220 0 0 0 0 0
162 1 3 31.1018 -2217 0 0 0 0 0
163 1 3 31.1018 -2214 0 0 0 0 0
164 1 3 31.1018 -2211 0 0 0 0 0
165 1 3 31.1018 -2208 0 0 0 0 0
166 1 3 31.1018 -2205 0 0 0 0 0
167 1 3 31.1018 -2202 0 0 0 0 0
168 1 3 31.1018 -2199 0 0 0 0 0
169 1 3 31.1018 -2196 0 0 0 0 0
170 1 3 31.1018 -2193 0 0 0 0 0
171 1 3 31.1018 -2190 0 0 0 0 0
172 1 3 31.1018 -2187 0 0 0 0 0
173 1 3 31.1018 -2184 0 0 0 0 0
174 1 3 31.1018 -2181 0 0 0 0 0
175 1 3 31.1018 -2178 0 0 0 0 0
176 1 3 31.1018 -2175 0 0 0 0 0
177 1 3 31.1018 -2172 0 0 0 0 0
178 1 3 31.1018 -2169 0 0 0 0 0
179 1 3 31.1018 -2166 0 0 0 0 0
180 1 3 31.1018 -2163 0 0 0 0 0
181 1 3 31.1018 -2160 0 0 0 0 0
182 1 3 31.1018 -2157 0 0 0 0 0
183 1 3 31.1018 -2154 0 0 0 0 0
184 1 3 31.1018 -2151 0 0 0 0 0
185 1 3 31.1018 -2148 0 0 0 0 0
186 1 3 31.1018 -2145 0 0 0 0 0
187 1 3 31.1018 -2142 0 0 0 0 0
188 1 3 31.1018 -2139 0 0 0 0 0
189 1 3 31.1018 -2136 0 0 0 0 0
190 1 3 31.1018 -2133 0 0 0 0 0
191 1 3 31.1018 -2130 0 0 0 0 0
192 1 3 31.1018 -2127 0 0 0 0 0
193 1 3 31.1018 -2124 0 0 0 0 0
194 1 3 31.1018 -2121 0 0 0 0 0
195 1 3 31.1018 -2118 0 0 0 0 0
196 1 3 31.1018 -2115 0 0 0 0 0
197 1 3 31.1018 -2112 0 0 0 0 0
198 1 3 31.1018 -2109 0 0 0 0 0
199 1 3 31.1018 -2106 0 0 0 0 0
200 1 3 31.1018 -2103 0 0 0 0 0
201 1 3 31.1018 -2100 0 0 0 0 0
202 1 3 31.1018 -2097 0 0 0 0 0
203 1 3 31.1018 -2094 0 0 0 0 0
204 1 3 31.1018 -2091 0 0 0 0 0
205 1 3 31.1018 -2088 0 0 0 0 0
206 1 3 31.1018 -2085 0 0 0 0 0
207 1 3 31.1018 -2082 0 0 0 0 0
208 1 3 31.1018 -2079 0 0 0 0 0
209 1 3 31.1018 -2076 0 0 0 0 0
210 1 3 31.1018 -2073 0 0 0 0 0
211 1 3 31.1018 -2070 0 0 0 0 0
212 1 3 31.1018 -2067 0 0 0 0 0
213 1 3 31.1018 -2064 0 0 0 0 0
214 1 3 31.1018 -2061 0 0 0 0 0
215 1 3 31.1018 -2058 0 0 0 0 0
216 1 3 31.1018 -2055 0 0 0 0 0
217 1 3 31.1018 -2052 0 0 0 0 0
218 1 3 31.1018 -2049 0 0 0 0 0
219 1 3 31.1018 -2046 0 0 0 0 0
220 1 3 31.1018 -2043 0 0 0 0 0
221 1 3 31.1018 -2040 0 0 0 0 0
222 1 3 31.1018 -2037 0 0 0 0 0
223 1 3 31.1018 -2034 0 0 0 0 0
224 1 3 31.1018 -2031 0 0 0 0 0
225 1 3 31.1018 -2028 0 0 0 0 0
226 1 3 31.1018 -2025 0 0 0 0 0
227 1 3 31.1018 -2022 0 0 0 0 0
228 1 3 31.1018 -2019 0 0 0 0 0
229 1 3 31.1018 -2016 0 0 0 0 0
230 1 3 31.1018 -2013 0 0 0 0 0
231 1 3 31.1018 -2010 0 0 0 0 0
232 1 3 31.1018 -2007 0 0 0 0 0
233 1 3 31.1018 -2004 0 0 0 0 0
234 1 3 31.1018 -2001 0 0 0 0 0
235 1 3 31.1018 -1998 0 0 0 0 0
236 1 3 31.1018 -1995 0 0 0 0 0
237 1 3 31.1018 -1992 0 0 0 0 0
238 1 3 31.1018 -1989 0 0 0 0 0
239 1 3 31.1018 -1986 0 0 0 0 0
240 1 3 31.1018 -1983 0 0 0 0 0
241 1 3 31.1018 -1980 0 0 0 0 0
242 1 3 31.1018 -1977 0 0 0 0 0
243 1 3 31.1018 -1974 0 0 0 0 0
244 1 3 31.1018 -1971 0 0 0 0 0
245 1 3 31.1018 -1968 0 0 0 0 0
246 1 3 31.1018 -1965 0 0 0 0 0
247 1 3 31.1018 -1962 0 0 0 0 0
248 1 3 31.1018 -1959 0 0 0 0 0
249 1 3 31.1018 -1956 0 0 0 0 0
250 1 3 31.1018 -1953 0 0 0 0 0
251 1 3 31.1018 -1950 0 0 0 0 0
252 1 3 31.1018 -1947 0 0 0 0 0
253 1 3 31.1018 -1944 0 0 0 0 0
254 1 3 31.1018 -1941 0 0 0 0 0
255 1 3 31.1018 -1938 0 0 0 0 0
256 1 3 31.1018 -1935 0 0 0 0 0
257 1 3 31.1018 -1932 0 0 0 0 0
258 1 3 31.1018 -1929 0 0 0 0 0
259 1 3 31.1018 -1926 0 0 0 0 0
260 1 3 31.1018 -1923 0 0 0 0 0
261 1 3 31.1018 -1920 0 0 0 0 0
262 1 3 31.1018 -1917 0 0 0 0 0
263 1 3 31.1018 -1914 0 0 0 0 0
264 1 3 31.1018 -1911 0 0 0 0 0
265 1 3 31.1018 -1908 0 0 0 0 0
266 1 3 31.1018 -1905 0 0 0 0 0
267 1 3 31.1018 -1902 0 0 0 0 0
268 1 3 31.1018 -1899 0 0 0 0 0
269 1 3 31.1018 -1896 0 0 0 0 0
270 1 3 31.1018 -1893 0 0 0 0 0
271 1 3 31.1018 -1890 0 0 0 0 0
272 1 3 31.1018 -1887 0 0 0 0 0
273 1 3 31.1018 -1884 0 0 0 0 0
274 1 3 31.1018 -1881 0 0 0 0 0
275 1 3 31.1018 -1878 0 0 0 0 0
276 1 3 31.1018 -1875 0 0 0 0 0
277 1 3 31.1018 -1872 0 0 0 0 0
278 1 3 31.1018 -1869 0 0 0 0 0
279 1 3 31.1018 -1866 0 0 0 0 0
280 1 3 31.1018 -1863 0 0 0 0 0
281 1 3 31.1018 -1860 0 0 0 0 0
282 1 3 31.1018 -1857 0 0 0 0 0
283 1 3 31.1018 -1854 0 0 0 0 0
284 1 3 31.1018 -1851 0 0 0 0 0
285 1 3 31.1018 -1848 0 0 0 0 0
286 1 3 31.1018 -1845 0 0 0 0 0
287 1 3 31.1018 -1842 0 0 0 0 0
288 1 3 31.1018 -1839 0 0 0 0 0
289 1 3 31.1018 -1836 0 0 0 0 0
290 1 3 31.1018 -1833 0 0 0 0 0
291 1 3 31.1018 -1830 0 0 0 0 0
292 1 3 31.1018 -1827 0 0 0 0 0
293 1 3 31.1018 -1824 0 0 0 0 0
294 1 3 31.1018 -1821 0 0 0 0 0
295 1 3 31.1018 -1818 0 0 0 0 0
296 1 3 31.1018 -1815 0 0 0 0 0
297 1 3 31.1018 -1812 0 0 0 0 0
298 1 3 31.1018 -1809 0 0 0 0 0
299 1 3 31.1018 -1806 0 0 0 0 0
300 1 3 31.1018 -1803 0 0 0 0 0
301 1 3 31.1018 -1800 0 0 0 0 0
302 1 3 31.1018 -1797 0 0 0 0 0
303 1 3 31.1018 -1794 0 0 0 0 0
304 1 3 31.1018 -1791 0 0 0 0 0
305 1 3 31.1018 -1788 0 0 0 0 0
306 1 3 31.1018 -1785 0 0 0 0 0
307 1 3 31.1018 -1782 0 0 0 0 0
308 1 3 31.1018 -1779 0 0 0 0 0
309 1 3 31.1018 -1776 0 0 0 0 0
310 1 3 31.1018 -1773 0 0 0 0 0
311 1 3 31.1018 -1770 0 0 0 0 0
312 1 3 31.1018 -1767 0 0 0 0 0
313 1 3 31.1018 -1764 0 0 0 0 0
314 1 3 31.1018 -1761 0 0 0 0 0
315 1 3 31.1018 -1758 0 0 0 0 0
316 1 3 31.1018 -1755 0 0 0 0 0
317 1 3 31.1018 -1752 0 0 0 0 0
318 1 3 31.1018 -1749 0 0 0 0 0
319 1 3 31.1018 -1746 0 0 0 0 0
320 1 3 31.1018 -1743 0 0 0 0 0
321 1 3 31.1018 -1740 0 0 0 0 0
322 1 3 31.1018 -1737 0 0 0 0 0
323 1 3 31.1018 -1734 0 0 0 0 0
324 1 3 31.1018 -1731 0 0 0 0 0
325 1 3 31.1018 -1728 0 0 0 0 0
326 1 3 31.1018 -1725 0 0 0 0 0
327 1 3 31.1018 -1722 0 0 0 0 0
328 1 3 31.1018 -1719 0 0 0 0 0
329 1 3 31.1018 -1716 0 0 0 0 0
330 1 3 31.1018 -1713 0 0 0 0 0
331 1 3 31.1018 -1710 0 0 0 0 0
332 1 3 31.1018 -1707 0 0 0 0 0
333 1 3 31.1018 -1704 0 0 0 0 0
334 1 3 31.1018 -1701 0 0 0 0 0
335 1 3 31.1018 -1698 0 0 0 0 0
336 1 3 31.1018 -1695 0 0 0 0 0
337 1 3 31.1018 -1692 0 0 0 0 0
338 1 3 31.1018 -1689 0 0 0 0 0
339 1 3 31.1018 -1686 0 0 0 0 0
340 1 3 31.1018 -1683 0 0 0 0 0
341 1 3 31.1018 -1680 0 0 0 0 0
342 1 3 31.1018 -1677 0 0 0 0 0
343 1 3 31.1018 -1674 0 0 0 0 0
344 1 3 31.1018 -1671 0 0 0 0 0
345 1 3 31.1018 -1668 0 0 0 0 0
346 1 3 31.1018 -1665 0 0 0 0 0
347 1 3 31.1018 -1662 0 0 0 0 0
348 1 3 31.1018 -1659 0 0 0 0 0
349 1 3 31.1018 -1656 0 0 0 0 0
350 1 3 31.1018 -1653 0 0 0 0 0
351 1 3 31.1018 -1650 0 0 0 0 0
352 1 3 31.1018 -1647 0 0 0 0 0
353 1 3 31.1018 -1644 0 0 0 0 0
354 1 3 31.1018 -1641 0 0 0 0 0
355 1 3 31.1018 -1638 0 0 0 0 0
356 1 3 31.1018 -1635 0 0 0 0 0
357 1 3 31.1018 -1632 0 0 0 0 0
358 1 3 31.1018 -1629 0 0 0 0 0
359 1 3 31.1018 -1626 0 0 0 0 0
360 1 3 31.1018 -1623 0 0 0 0 0
361 1 3 31.1018 -1620 0 0 0 0 0
362 1 3 31.1018 -1617 0 0 0 0 0
363 1 3 31.1018 -1614 0 0 0 0 0
364 1 3 31.1018 -1611 0 0 0 0 0
365 1 3 31.1018 -1608 0 0 0 0 0
366 1 3 31.1018 -1605 0 0 0 0 0
367 1 3 31.1018 -1602 0 0 0 0 0
368 1 3 31.1018 -1599 0 0 0 0 0
369 1 3 31.1018 -1596 0 0 0 0 0
370 1 3 31.1018 -1593 0 0 0 0 0
371 1 3 31.1018 -1590 0 0 0 0 0
372 1 3 31.1018 -1587 0 0 0 0 0
373 1 3 31.1018 -1584 0 0 0 0 0
374 1 3 31.1018 -1581 0 0 0 0 0
375 1 3 31.1018 -1578 0 0 0 0 0
376 1 3 31.1018 -1575 0 0 0 0 0
377 1 3 31.1018 -1572 0 0 0 0 0
378 1 3 31.1018 -1569 0 0 0 0 0
379 1 3 31.1018 -1566 0 0 0 0 0
380 1 3 31.1018 -1563 0 0 0 0 0
381 1 3 31.1018 -1560 0 0 0 0 0
382 1 3 31.1018 -1557 0 0 0 0 0
383 1 3 31.1018 -1554 0 0 0 0 0
384 1 3 31.1018 -1551 0 0 0 0 0
385 1 3 31.1018 -1548 0 0 0 0 0
386 1 3 31.1018 -1545 0 0 0 0 0
387 1 3 31.1018 -1542 0 0 0 0 0
388 1 3 31.1018 -1539 0 0 0 0 0
389 1 3 31.1018 -1536 0 0 0 0 0
390 1 3 31.1018 -1533 0 0 0 0 0
391 1 3 31.1018 -1530 0 0 0 0 0
392 1 3 31.1018 -1527 0 0 0 0 0
393 1 3 31.1018 -1524 0 0 0 0 0
394 1 3 31.1018 -1521 0 0 0 0 0
395 1 3 31.1018 -1518 0 0 0 0 0
396 1 3 31.1018 -1515 0 0 0 0 0
397 1 3 31.1018 -1512 0 0 0 0 0
398 1 3 31.1018 -1509 0 0 0 0 0
399 1 3 31.1018 -1506 0 0 0 0 0
400 1 3 31.1018 -1503 0 0 0 0 0
401 1 3 31.1018 -1500 0 0 0 0 0
402 1 3 31.1018 -1497 0 0 0 0 0
403 1 3 31.1018 -1494 0 0 0 0 0
404 1 3 31.1018 -1491 0 0 0 0 0
405 1 3 31.1018 -1488 0 0 0 0 0
406 1 3 31.1018 -1485 0 0 0 0 0
407 1 3 31.1018 -1482 0 0 0 0 0
408 1 3 31.1018 -1479 0 0 0 0 0
409 1 3 31.1018 -1476 0 0 0 0 0
410 1 3 31.1018 -1473 0 0 0 0 0
411 1 3 31.1018 -1470 0 0 0 0 0
412 1 3 31.1018 -1467 0 0 0 0 0
413 1 3 31.1018 -1464 0 0 0 0 0
414 1 3 31.1018 -1461 0 0 0 0 0
415 1 3 31.1018 -1458 0 0 0 0 0
416 1 3 31.1018 -1455 0 0 0 0 0
417 1 3 31.1018 -1452 0 0 0 0 0
418 1 3 31.1018 -1449 0 0 0 0 0
419 1 3 31.1018 -1446 0 0 0 0 0
420 1 3 31.1018 -1443 0 0 0 0 0
421 1 3 31.1018 -1440 0 0 0 0 0
422 1 3 31.1018 -1437 0 0 0 0 0
423 1 3 31.1018 -1434 0 0 0 0 0
424 1 3 31.1018 -1431 0 0 0 0 0
425 1 3 31.1018 -1428 0 0 0 0 0
426 1 3 31.1018 -1425 0 0 0 0 0
427 1 3 31.1018 -1422 0 0 0 0 0
428 1 3 31.1018 -1419 0 0 0 0 0
429 1 3 31.1018 -1416 0 0 0 0 0
430 1 3 31.1018 -1413 0 0 0 0 0
431 1 3 31.1018 -1410 0 0 0 0 0
432 1 3 31.1018 -1407 0 0 0 0 0
433 1 3 31.1018 -1404 0 0 0 0 0
434 1 3 31.1018 -1401 0 0 0 0 0
435 1 3 31.1018 -1398 0 0 0 0 0
436 1 3 31.1018 -1395 0 0 0 0 0
437 1 3 31.1018 -1392 0 0 0 0 0
438 1 3 31.1018 -1389 0 0 0 0 0
439 1 3 31.1018 -1386 0 0 0 0 0
440 1 3 31.1018 -1383 0 0 0 0 0
441 1 3 31.1018 -1380 0 0 0 0 0
442 1 3 31.1018 -1377 0 0 0 0 0
443 1 3 31.1018 -1374 0 0 0 0 0
444 1 3 31.1018 -1371 0 0 0 0 0
445 1 3 31.1018 -1368 0 0 0 0 0
446 1 3 31.1018 -1365 0 0 0 0 0
447 1 3 31.1018 -1362 0 0 0 0 0
448 1 3 31.1018 -1359 0 0 0 0 0
449 1 3 31.1018 -1356 0 0 0 0 0
450 1 3 31.1018 -1353 0 0 0 0 0
1801 2 3 31.1018 -1804.50010010622123 1.7028e-19 2.59757502612066649 -4.248 0 -1.58294
1802 2 3 31.1018 -1801.50010010622123 1.69996e-19 2.5975750260381365 -4.24814 0 -1.58269
1803 2 3 31.1018 -1798.50010010622123 1.69712e-19 2.59757502595560652 -4.24828 0 -1.58244
1804 2 3 31.1018 -1795.500100106221 1.69428e-19 2.59757502587307654 -4.24842 0 -1.58218
1805 2 3 31.1018 -1792.500100106221 1.69145e-19 2.59757502579054655 -4.24856 0 -1.58193
1806 2 3 31.1018 -1789.500100106221 1.68861e-19 2.59757502570801657 -4.2487 0 -1.58168
1807 2 3 31.1018 -1786.500100106221 1.68577e-19 2.59757502562548659 -4.24884 0 -1.58142
1808 2 3 31.1018 -1783.500100106221 1.68293e-19 2.59757502554295661 -4.24898 0 -1.58117
1809 2 3 31.1018 -1780.50010010622077 1.68009e-19 2.59757502546042662 -4.24912 0 -1.58091
1810 2 3 31.1018 -1777.50010010622077 1.67726e-19 2.59757502537789664 -4.24926 0 -1.58066
1811 2 3 31.1018 -1774.50010010622077 1.67442e-19 2.59757502529536666 -4.24941 0 -1.58041
1812 2 3 31.1018 -1771.50010010622077 1.67158e-19 2.59757502521283667 -4.24955 0 -1.58015
1813 2 3 31.1018 -1768.50010010622054 1.66874e-19 2.59757502513030669 -4.24969 0 -1.5799
1814 2 3 31.1018 -1765.50010010622054 1.6659e-19 2.59757502504777671 -4.24983 0 -1.57965
1815 2 3 31.1018 -1762.50010010622054 1.66307e-19 2.59757502496524673 -4.24997 0 -1.57939
1816 2 3 31.1018 -1759.50010010622054 1.66023e-19 2.59757502488271674 -4.25011 0 -1.57914
1817 2 3 31.1018 -1756.50010010622032 1.65739e-19 2.59757502480018676 -4.25025 0 -1.57888
1818 2 3 31.1018 -1753.50010010622032 1.65455e-19 2.59757502471765678 -4.25039 0 -1.57863
1819 2 3 31.1018 -1750.50010010622032 1.65171e-19 2.59757502463512679 -4.25053 0 -1.57838
1820 2 3 31.1018 -1747.50010010622032 1.64888e-19 2.59757502455259681 -4.25067 0 -1.57812
1821 2 3 31.1018 -1744.50010010622032 1.64604e-19 2.59757502447006683 -4.25082 0 -1.57787
1822 2 3 31.1018 -1741.50010010622009 1.6432e-19 2.59757502438753685 -4.25096 0 -1.57762
1823 2 3 31.1018 -1738.50010010622009 1.64036e-19 2.59757502430500686 -4.2511 0 -1.57736
1824 2 3 31.1018 -1735.50010010622009 1.63752e-19 2.59757502422247688 -4.25124 0 -1.57711
1825 2 3 31.1018 -1732.50010010622009 1.63469e-19 2.5975750241399469 -4.25138 0 -1.57686
1826 2 3 31.1018 -1729.50010010621986 1.63185e-19 2.59757502405741691 -4.25152 0 -1.5766
1827 2 3 31.1018 -1726.50010010621986 1.62901e-19 2.59757502397488693 -4.25166 0 -1.57635
1828 2 3 31.1018 -1723.50010010621986 1.62617e-19 2.59757502389235695 -4.2518 0 -1.57609
1829 2 3 31.1018 -1720.50010010621986 1.62333e-19 2.59757502380982697 -4.25194 0 -1.57584
1830 2 3 31.1018 -1717.50010010621963 1.6205e-19 2.59757502372729698 -4.25209 0 -1.57559
1831 2 3 31.1018 -1714.50010010621963 1.61766e-19 2.597575023644767 -4.25223 0 -1.57533
1832 2 3 31.1018 -1711.50010010621963 1.61482e-19 2.59757502356223702 -4.25237 0 -1.57508
1833 2 3 31.1018 -1708.50010010621963 1.61198e-19 2.59757502347970703 -4.25251 0 -1.57483
1834 2 3 31.1018 -1705.50010010621963 1.60914e-19 2.59757502339717705 -4.25265 0 -1.57457
1835 2 3 31.1018 -1702.50010010621941 1.60631e-19 2.59757502331464707 -4.25279 0 -1.57432
1836 2 3 31.1018 -1699.50010010621941 1.60347e-19 2.59757502323211709 -4.25293 0 -1.57406
1837 2 3 31.1018 -1696.50010010621941 1.60063e-19 2.5975750231495871 -4.25307 0 -1.57381
1838 2 3 31.1018 -1693.50010010621941 1.59779e-19 2.59757502306705712 -4.25321 0 -1.57356
1839 2 3 31.1018 -1690.50010010621918 1.59495e-19 2.59757502298452714 -4.25335 0 -1.5733
1840 2 3 31.1018 -1687.50010010621918 1.59212e-19 2.59757502290199715 -4.2535 0 -1.57305
1841 2 3 31.1018 -1684.50010010621918 1.58928e-19 2.59757502281946717 -4.25364 0 -1.5728
1842 2 3 31.1018 -1681.50010010621918 1.58644e-19 2.59757502273693719 -4.25378 0 -1.57254
1843 2 3 31.1018 -1678.50010010621918 1.5836e-19 2.59757502265440721 -4.25392 0 -1.57229
1844 2 3 31.1018 -1675.50010010621895 1.58076e-19 2.59757502257187722 -4.25406 0 -1.57203
1845 2 3 31.1018 -1672.50010010621895 1.57793e-19 2.59757502248934724 -4.2542 0 -1.57178
1846 2 3 31.1018 -1669.50010010621895 1.57509e-19 2.59757502240681726 -4.25434 0 -1.57153
1847 2 3 31.1018 -1666.50010010621895 1.57225e-19 2.59757502232428727 -4.25448 0 -1.57127
1848 2 3 31.1018 -1663.50010010621872 1.56941e-19 2.59757502224175729 -4.25462 0 -1.57102
1849 2 3 31.1018 -1660.50010010621872 1.56657e-19 2.59757502215922731 -4.25476 0 -1.57077
1850 2 3 31.1018 -1657.50010010621872 1.56374e-19 2.59757502207669733 -4.25491 0 -1.57051
1851 2 3 31.1018 -1654.50010010621872 1.5609e-19 2.59757502199416734 -4.25505 0 -1.57026
1852 2 3 31.1018 -1651.5001001062185 1.55806e-19 2.59757502191163736 -4.25519 0 -1.57001
1853 2 3 31.1018 -1648.5001001062185 1.55522e-19 2.59757502182910738 -4.25533 0 -1.56975
1854 2 3 31.1018 -1645.5001001062185 1.55238e-19 2.5975750217465774 -4.25547 0 -1.5695
1855 2 3 31.1018 -1642.5001001062185 1.54955e-19 2.59757502166404741 -4.25561 0 -1.56924
1856 2 3 31.1018 -1639.5001001062185 1.54671e-19 2.59757502158151743 -4.25575 0 -1.56899
1857 2 3 31.1018 -1636.50010010621827 1.54387e-19 2.59757502149898745 -4.25589 0 -1.56874
1858 2 3 31.1018 -1633.50010010621827 1.54103e-19 2.59757502141645746 -4.25603 0 -1.56848
1859 2 3 31.1018 -1630.50010010621827 1.53819e-19 2.59757502133392748 -4.25617 0 -1.56823
1860 2 3 31.1018 -1627.50010010621827 1.53536e-19 2.5975750212513975 -4.25632 0 -1.56798
1861 2 3 31.1018 -1624.50010010621804 1.53252e-19 2.59757502116886752 -4.25646 0 -1.56772
1862 2 3 31.1018 -1621.50010010621804 1.52968e-19 2.59757502108633753 -4.2566 0 -1.56747
1863 2 3 31.1018 -1618.50010010621804 1.52684e-19 2.59757502100380755 -4.25674 0 -1.56721
1864 2 3 31.1018 -1615.50010010621804 1.524e-19 2.59757502092127757 -4.25688 0 -1.56696
1865 2 3 31.1018 -1612.50010010621781 1.52117e-19 2.59757502083874758 -4.25702 0 -1.56671
1866 2 3 31.1018 -1609.50010010621781 1.51833e-19 2.5975750207562176 -4.25716 0 -1.56645
1867 2 3 31.1018 -1606.50010010621781 1.51549e-19 2.59757502067368762 -4.2573 0 -1.5662
1868 2 3 31.1018 -1603.50010010621781 1.51265e-19 2.59757502059115764 -4.25744 0 -1.56595
1869 2 3 31.1018 -1600.50010010621781 1.50981e-19 2.59757502050862765 -4.25758 0 -1.56569
1870 2 3 31.1018 -1597.50010010621759 1.50698e-19 2.59757502042609767 -4.25773 0 -1.56544
1871 2 3 31.1018 -1594.50010010621759 1.50414e-19 2.59757502034356769 -4.25787 0 -1.56518
1872 2 3 31.1018 -1591.50010010621759 1.5013e-19 2.5975750202610377 -4.25801 0 -1.56493
1873 2 3 31.1018 -1588.50010010621759 1.49846e-19 2.59757502017850772 -4.25815 0 -1.56468
1874 2 3 31.1018 -1585.50010010621736 1.49562e-19 2.59757502009597774 -4.25829 0 -1.56442
1875 2 3 31.1018 -1582.50010010621736 1.49279e-19 2.59757502001344776 -4.25843 0 -1.56417
1876 2 3 31.1018 -1579.50010010621736 1.48995e-19 2.59757501993091777 -4.25857 0 -1.56392
1877 2 3 31.1018 -1576.50010010621736 1.48711e-19 2.59757501984838779 -4.25871 0 -1.56366
1878 2 3 31.1018 -1573.50010010621736 1.48427e-19 2.59757501976585781 -4.25885 0 -1.56341
1879 2 3 31.1018 -1570.50010010621713 1.48143e-19 2.59757501968332782 -4.259 0 -1.56316
1880 2 3 31.1018 -1567.50010010621713 1.4786e-19 2.59757501960079784 -4.25914 0 -1.5629
1881 2 3 31.1018 -1564.50010010621713 1.47576e-19 2.59757501951826786 -4.25928 0 -1.56265
1882 2 3 31.1018 -1561.50010010621713 1.47292e-19 2.59757501943573788 -4.25942 0 -1.56239
1883 2 3 31.1018 -1558.50010010621691 1.47008e-19 2.59757501935320789 -4.25956 0 -1.56214
1884 2 3 31.1018 -1555.50010010621691 1.46725e-19 2.59757501927067791 -4.2597 0 -1.56189
1885 2 3 31.1018 -1552.50010010621691 1.46441e-19 2.59757501918814793 -4.25984 0 -1.56163
1886 2 3 31.1018 -1549.50010010621691 1.46157e-19 2.59757501910561794 -4.25998 0 -1.56138
1887 2 3 31.1018 -1546.50010010621668 1.45873e-19 2.59757501902308796 -4.26012 0 -1.56113
1888 2 3 31.1018 -1543.50010010621668 1.45589e-19 2.59757501894055798 -4.26026 0 -1.56087
1889 2 3 31.1018 -1540.50010010621668 1.45306e-19 2.597575018858028 -4.26041 0 -1.56062
1890 2 3 31.1018 -1537.50010010621668 1.45022e-19 2.59757501877549801 -4.26055 0 -1.56036
1891 2 3 31.1018 -1534.50010010621668 1.44738e-19 2.59757501869296803 -4.26069 0 -1.56011
1892 2 3 31.1018 -1531.50010010621645 1.44454e-19 2.59757501861043805 -4.26083 0 -1.55986
1893 2 3 31.1018 -1528.50010010621645 1.4417e-19 2.59757501852790806 -4.26097 0 -1.5596
1894 2 3 31.1018 -1525.50010010621645 1.43887e-19 2.59757501844537808 -4.26111 0 -1.55935
1895 2 3 31.1018 -1522.50010010621645 1.43603e-19 2.5975750183628481 -4.26125 0 -1.5591
1896 2 3 31.1018 -1519.50010010621622 1.43319e-19 2.59757501828031812 -4.26139 0 -1.55884
1897 2 3 31.1018 -1516.50010010621622 1.43035e-19 2.59757501819778813 -4.26153 0 -1.55859
1898 2 3 31.1018 -1513.50010010621622 1.42751e-19 2.59757501811525815 -4.26167 0 -1.55833
1899 2 3 31.1018 -1510.50010010621622 1.42468e-19 2.59757501803272817 -4.26182 0 -1.55808
1900 2 3 31.1018 -1507.500100106216 1.42184e-19 2.59757501795019818 -4.26196 0 -1.55783
1901 2 3 31.1018 -1504.500100106216 1.419e-19 2.5975750178676682 -4.2621 0 -1.55757
1902 2 3 31.1018 -1501.500100106216 1.41616e-19 2.59757501778513822 -4.26224 0 -1.55732
1903 2 3 31.1018 -1498.500100106216 1.41332e-19 2.59757501770260824 -4.26238 0 -1.55707
1904 2 3 31.1018 -1495.500100106216 1.41049e-19 2.59757501762007825 -4.26252 0 -1.55681
1905 2 3 31.1018 -1492.50010010621577 1.40765e-19 2.59757501753754827 -4.26266 0 -1.55656
1906 2 3 31.1018 -1489.50010010621577 1.40481e-19 2.59757501745501829 -4.2628 0 -1.55631
1907 2 3 31.1018 -1486.50010010621577 1.40197e-19 2.5975750173724883 -4.26294 0 -1.55605
1908 2 3 31.1018 -1483.50010010621577 1.39913e-19 2.59757501728995832 -4.26308 0 -1.5558
1909 2 3 31.1018 -1480.50010010621554 1.3963e-19 2.59757501720742834 -4.26323 0 -1.55554
1910 2 3 31.1018 -1477.50010010621554 1.39346e-19 2.59757501712489836 -4.26337 0 -1.55529
1911 2 3 31.1018 -1474.50010010621554 1.39062e-19 2.59757501704236837 -4.26351 0 -1.55504
1912 2 3 31.1018 -1471.50010010621554 1.38778e-19 2.59757501695983839 -4.26365 0 -1.55478
1913 2 3 31.1018 -1468.50010010621554 1.38494e-19 2.59757501687730841 -4.26379 0 -1.55453
1914 2 3 31.1018 -1465.50010010621531 1.38211e-19 2.59757501679477842 -4.26393 0 -1.55428
1915 2 3 31.1018 -1462.50010010621531 1.37927e-19 2.59757501671224844 -4.26407 0 -1.55402
1916 2 3 31.1018 -1459.50010010621531 1.37643e-19 2.59757501662971846 -4.26421 0 -1.55377
1917 2 3 31.1018 -1456.50010010621531 1.37359e-19 2.59757501654718848 -4.26435 0 -1.55351
1918 2 3 31.1018 -1453.50010010621509 1.37075e-19 2.59757501646465849 -4.26449 0 -1.55326
1919 2 3 31.1018 -1450.50010010621509 1.36792e-19 2.59757501638212851 -4.26464 0 -1.55301
1920 2 3 31.1018 -1447.50010010621509 1.36508e-19 2.59757501629959853 -4.26478 0 -1.55275
1921 2 3 31.1018 -1444.50010010621509 1.36224e-19 2.59757501621706854 -4.26492 0 -1.5525
1922 2 3 31.1018 -1441.50010010621486 1.3594e-19 2.59757501613453856 -4.26506 0 -1.55225
1923 2 3 31.1018 -1438.50010010621486 1.35656e-19 2.59757501605200858 -4.2652 0 -1.55199
1924 2 3 31.1018 -1435.50010010621486 1.35373e-19 2.5975750159694786 -4.26534 0 -1.55174
1925 2 3 31.1018 -1432.50010010621486 1.35089e-19 2.59757501588694861 -4.26548 0 -1.55148
1926 2 3 31.1018 -1429.50010010621486 1.34805e-19 2.59757501580441863 -4.26562 0 -1.55123
1927 2 3 31.1018 -1426.50010010621463 1.34521e-19 2.59757501572188865 -4.26576 0 -1.55098
1928 2 3 31.1018 -1423.50010010621463 1.34237e-19 2.59757501563935866 -4.2659 0 -1.55072
1929 2 3 31.1018 -1420.50010010621463 1.33954e-19 2.59757501555682868 -4.26605 0 -1.55047
1930 2 3 31.1018 -1417.50010010621463 1.3367e-19 2.5975750154742987 -4.26619 0 -1.55022
1931 2 3 31.1018 -1414.5001001062144 1.33386e-19 2.59757501539176872 -4.26633 0 -1.54996
1932 2 3 31.1018 -1411.5001001062144 1.33102e-19 2.59757501530923873 -4.26647 0 -1.54971
1933 2 3 31.1018 -1408.5001001062144 1.32818e-19 2.59757501522670875 -4.26661 0 -1.54946
1934 2 3 31.1018 -1405.5001001062144 1.32535e-19 2.59757501514417877 -4.26675 0 -1.5492
1935 2 3 31.1018 -1402.50010010621418 1.32251e-19 2.59757501506164878 -4.26689 0 -1.54895
1936 2 3 31.1018 -1399.50010010621418 1.31967e-19 2.5975750149791188 -4.26703 0 -1.54869
1937 2 3 31.1018 -1396.50010010621418 1.31683e-19 2.59757501489658882 -4.26717 0 -1.54844
1938 2 3 31.1018 -1393.50010010621418 1.31399e-19 2.59757501481405884 -4.26732 0 -1.54819
1939 2 3 31.1018 -1390.50010010621418 1.31116e-19 2.59757501473152885 -4.26746 0 -1.54793
1940 2 3 31.1018 -1387.50010010621395 1.30832e-19 2.59757501464899887 -4.2676 0 -1.54768
1941 2 3 31.1018 -1384.50010010621395 1.30548e-19 2.59757501456646889 -4.26774 0 -1.54743
1942 2 3 31.1018 -1381.50010010621395 1.30264e-19 2.5975750144839389 -4.26788 0 -1.54717
1943 2 3 31.1018 -1378.50010010621395 1.2998e-19 2.59757501440140892 -4.26802 0 -1.54692
1944 2 3 31.1018 -1375.50010010621372 1.29697e-19 2.59757501431887894 -4.26816 0 -1.54666
1945 2 3 31.1018 -1372.50010010621372 1.29413e-19 2.59757501423634896 -4.2683 0 -1.54641
1946 2 3 31.1018 -1369.50010010621372 1.29129e-19 2.59757501415381897 -4.26844 0 -1.54616
1947 2 3 31.1018 -1366.50010010621372 1.28845e-19 2.59757501407128899 -4.26858 0 -1.5459
1948 2 3 31.1018 -1363.50010010621372 1.28561e-19 2.59757501398875901 -4.26873 0 -1.54565
1949 2 3 31.1018 -1360.50010010621349 1.28278e-19 2.59757501390622902 -4.26887 0 -1.5454
1950 2 3 31.1018 -1357.50010010621349 1.27994e-19 2.59757501382369904 -4.26901 0 -1.54514
1951 2 3 31.1018 -1354.50010010621349 1.2771e-19 2.59757501374116906 -4.26915 0 -1.54489
1952 2 3 31.1018 -1351.50010010621349 1.27426e-19 2.59757501365863908 -4.26929 0 -1.54463
451 1 3 31.1018 -1350 0 0 0 0 0
452 1 3 31.1018 -1347 0 0 0 0 0
453 1 3 31.1018 -1344 0 0 0 0 0
454 1 3 31.1018 -1341 0 0 0 0 0
455 1 3 31.1018 -1338 0 0 0 0 0
456 1 3 31.1018 -1335 0 0 0 0 0
457 1 3 31.1018 -1332 0 0 0 0 0
458 1 3 31.1018 -1329 0 0 0 0 0
459 1 3 31.1018 -1326 0 0 0 0 0
460 1 3 31.1018 -1323 0 0 0 0 0
461 1 3 31.1018 -1320 0 0 0 0 0
462 1 3 31.1018 -1317 0 0 0 0 0
463 1 3 31.1018 -1314 0 0 0 0 0
464 1 3 31.1018 -1311 0 0 0 0 0
465 1 3 31.1018 -1308 0 0 0 0 0
466 1 3 31.1018 -1305 0 0 0 0 0
467 1 3 31.1018 -1302 0 0 0 0 0
468 1 3 31.1018 -1299 0 0 0 0 0
469 1 3 31.1018 -1296 0 0 0 0 0
470 1 3 31.1018 -1293 0 0 0 0 0
471 1 3 31.1018 -1290 0 0 0 0 0
472 1 3 31.1018 -1287 0 0 0 0 0
473 1 3 31.1018 -1284 0 0 0 0 0
474 1 3 31.1018 -1281 0 0 0 0 0
475 1 3 31.1018 -1278 0 0 0 0 0
476 1 3 31.1018 -1275 0 0 0 0 0
477 1 3 31.1018 -1272 0 0 0 0 0
478 1 3 31.1018 -1269 0 0 0 0 0
479 1 3 31.1018 -1266 0 0 0 0 0
480 1 3 31.1018 -1263 0 0 0 0 0
481 1 3 31.1018 -1260 0 0 0 0 0
482 1 3 31.1018 -1257 0 0 0 0 0
483 1 3 31.1018 -1254 0 0 0 0 0
484 1 3 31.1018 -1251 0 0 0 0 0
485 1 3 31.1018 -1248 0 0 0 0 0
486 1 3 31.1018 -1245 0 0 0 0 0
487 1 3 31.1018 -1242 0 0 0 0 0
488 1 3 31.1018 -1239 0 0 0 0 0
489 1 3 31.1018 -1236 0 0 0 0 0
490 1 3 31.1018 -1233 0 0 0 0 0
491 1 3 31.1018 -1230 0 0 0 0 0
492 1 3 31.1018 -1227 0 0 0 0 0
493 1 3 31.1018 -1224 0 0 0 0 0
494 1 3 31.1018 -1221 0 0 0 0 0
495 1 3 31.1018 -1218 0 0 0 0 0
496 1 3 31.1018 -1215 0 0 0 0 0
497 1 3 31.1018 -1212 0 0 0 0 0
498 1 3 31.1018 -1209 0 0 0 0 0
499 1 3 31.1018 -1206 0 0 0 0 0
500 1 3 31.1018 -1203 0 0 0 0 0
501 1 3 31.1018 -1200 0 0 0 0 0
502 1 3 31.1018 -1197 0 0 0 0 0
503 1 3 31.1018 -1194 0 0 0 0 0
504 1 3 31.1018 -1191 0 0 0 0 0
505 1 3 31.1018 -1188 0 0 0 0 0
506 1 3 31.1018 -1185 0 0 0 0 0
507 1 3 31.1018 -1182 0 0 0 0 0
508 1 3 31.1018 -1179 0 0 0 0 0