ITEM: TIMESTEP
4700000
ITEM: NUMBER OF ATOMS
1001
ITEM: BOX BOUNDS pp pp pp
-9.0000000000000000e+02 9.0000000000000000e+02
-1.0000000000000000e+02 1.0000000000000000e+02
-1.0000000000000000e+02 1.0000000000000000e+02
ITEM: ATOMS id type diameter mass xu yu zu fx fy fz
1 1 3 31.1018 -900 0 0 0 0 0
2 1 3 31.1018 -897 0 0 0 0 0
3 1 3 31.1018 -894 0 0 0 0 0
4 1 3 31.1018 -891 0 0 0 0 0
5 1 3 31.1018 -888 0 0 0 0 0
6 1 3 31.1018 -885 0 0 0 0 0
7 1 3 31.1018 -882 0 0 0 0 0
8 1 3 31.1018 -879 0 0 0 0 0
9 1 3 31.1018 -876 0 0 0 0 0
10 1 3 31.1018 -873 0 0 0 0 0
11 1 3 31.1018 -870 0 0 0 0 0
12 1 3 31.1018 -867 0 0 0 0 0
13 1 3 31.1018 -864 0 0 0 0 0
14 1 3 31.1018 -861 0 0 0 0 0
15 1 3 31.1018 -858 0 0 0 0 0
16 1 3 31.1018 -855 0 0 0 0 0
17 1 3 31.1018 -852 0 0 0 0 0
18 1 3 31.1018 -849 0 0 0 0 0
19 1 3 31.1018 -846 0 0 0 0 0
20 1 3 31.1018 -843 0 0 0 0 0
21 1 3 31.1018 -840 0 0 0 0 0
22 1 3 31.1018 -837 0 0 0 0 0
23 1 3 31.1018 -834 0 0 0 0 0
24 1 3 31.1018 -831 0 0 0 0 0
25 1 3 31.1018 -828 0 0 0 0 0
26 1 3 31.1018 -825 0 0 0 0 0
27 1 3 31.1018 -822 0 0 0 0 0
28 1 3 31.1018 -819 0 0 0 0 0
29 1 3 31.1018 -816 0 0 0 0 0
30 1 3 31.1018 -813 0 0 0 0 0
31 1 3 31.1018 -810 0 0 0 0 0
32 1 3 31.1018 -807 0 0 0 0 0
33 1 3 31.1018 -804 0 0 0 0 0
34 1 3 31.1018 -801 0 0 0 0 0
35 1 3 31.1018 -798 0 0 0 0 0
36 1 3 31.1018 -795 0 0 0 0 0
37 1 3 31.1018 -792 0 0 0 0 0
38 1 3 31.1018 -789 0 0 0 0 0
39 1 3 31.1018 -786 0 0 0 0 0
40 1 3 31.1018 -783 0 0 0 0 0
41 1 3 31.1018 -780 0 0 0 0 0
42 1 3 31.1018 -777 0 0 0 0 0
43 1 3 31.1018 -774 0 0 0 0 0
44 1 3 31.1018 -771 0 0 0 0 0
45 1 3 31.1018 -768 0 0 0 0 0
46 1 3 31.1018 -765 0 0 0 0 0
47 1 3 31.1018 -762 0 0 0 0 0
48 1 3 31.1018 -759 0 0 0 0 0
49 1 3 31.1018 -756 0 0 0 0 0
50 1 3 31.1018 -753 0 0 0 0 0
51 1 3 31.1018 -750 0 0 0 0 0
52 1 3 31.1018 -747 0 0 0 0 0
53 1 3 31.1018 -744 0 0 0 0 0
54 1 3 31.1018 -741 0 0 0 0 0
55 1 3 31.1018 -738 0 0 0 0 0
56 1 3 31.1018 -735 0 0 0 0 0
57 1 3 31.1018 -732 0 0 0 0 0
58 1 3 31.1018 -729 0 0 0 0 0
59 1 3 31.1018 -726 0 0 0 0 0
60 1 3 31.1018 -723 0 0 0 0 0
61 1 3 31.1018 -720 0 0 0 0 0
62 1 3 31.1018 -717 0 0 0 0 0
63 1 3 31.1018 -714 0 0 0 0 0
64 1 3 31.1018 -711 0 0 0 0 0
65 1 3 31.1018 -708 0 0 0 0 0
66 1 3 31.1018 -705 0 0 0 0 0
67 1 3 31.1018 -702 0 0 0 0 0
68 1 3 31.1018 -699 0 0 0 0 0
69 1 3 31.1018 -696 0 0 0 0 0
70 1 3 31.1018 -693 0 0 0 0 0
71 1 3 31.1018 -690 0 0 0 0 0
72 1 3 31.1018 -687 0 0 0 0 0
73 1 3 31.1018 -684 0 0 0 0 0
74 1 3 31.1018 -681 0 0 0 0 0
75 1 3 31.1018 -678 0 0 0 0 0
76 1 3 31.1018 -675 0 0 0 0 0
77 1 3 31.1018 -672 0 0 0 0 0
78 1 3 31.1018 -669 0 0 0 0 0
79 1 3 31.1018 -666 0 0 0 0 0
80 1 3 31.1018 -663 0 0 0 0 0
81 1 3 31.1018 -660 0 0 0 0 0
82 1 3 31.1018 -657 0 0 0 0 0
83 1 3 31.1018 -654 0 0 0 0 0
84 1 3 31.1018 -651 0 0 0 0 0
85 1 3 31.1018 -648 0 0 0 0 0
86 1 3 31.1018 -645 0 0 0 0 0
87 1 3 31.1018 -642 0 0 0 0 0
88 1 3 31.1018 -639 0 0 0 0 0
89 1 3 31.1018 -636 0 0 0 0 0
90 1 3 31.1018 -633 0 0 0 0 0
91 1 3 31.1018 -630 0 0 0 0 0
92 1 3 31.1018 -627 0 0 0 0 0
93 1 3 31.1018 -624 0 0 0 0 0
94 1 3 31.1018 -621 0 0 0 0 0
95 1 3 31.1018 -618 0 0 0 0 0
96 1 3 31.1018 -615 0 0 0 0 0
97 1 3 31.1018 -612 0 0 0 0 0
98 1 3 31.1018 -609 0 0 0 0 0
99 1 3 31.1018 -606 0 0 0 0 0
100 1 3 31.1018 -603 0 0 0 0 0
101 1 3 31.1018 -600 0 0 0 0 0
102 1 3 31.1018 -597 0 0 0 0 0
103 1 3 31.1018 -594 0 0 0 0 0
104 1 3 31.1018 -591 0 0 0 0 0
105 1 3 31.1018 -588 0 0 0 0 0
106 1 3 31.1018 -585 0 0 0 0 0
107 1 3 31.1018 -582 0 0 0 0 0
108 1 3 31.1018 -579 0 0 0 0 0
109 1 3 31.1018 -576 0 0 0 0 0
110 1 3 31.1018 -573 0 0 0 0 0
111 1 3 31.1018 -570 0 0 0 0 0
112 1 3 31.1018 -567 0 0 0 0 0
113 1 3 31.1018 -564 0 0 0 0 0
114 1 3 31.1018 -561 0 0 0 0 0
115 1 3 31.1018 -558 0 0 0 0 0
116 1 3 31.1018 -555 0 0 0 0 0
117 1 3 31.1018 -552 0 0 0 0 0
118 1 3 31.1018 -549 0 0 0 0 0
119 1 3 31.1018 -546 0 0 0 0 0
120 1 3 31.1018 -543 0 0 0 0 0
121 1 3 31.1018 -540 0 0 0 0 0
122 1 3 31.1018 -537 0 0 0 0 0
123 1 3 31.1018 -534 0 0 0 0 0
124 1 3 31.1018 -531 0 0 0 0 0
125 1 3 31.1018 -528 0 0 0 0 0
126 1 3 31.1018 -525 0 0 0 0 0
127 1 3 31.1018 -522 0 0 0 0 0
128 1 3 31.1018 -519 0 0 0 0 0
129 1 3 31.1018 -516 0 0 0 0 0
130 1 3 31.1018 -513 0 0 0 0 0
131 1 3 31.1018 -510 0 0 0 0 0
132 1 3 31.1018 -507 0 0 0 0 0
133 1 3 31.1018 -504 0 0 0 0 0
134 1 3 31.1018 -501 0 0 0 0 0
135 1 3 31.1018 -498 0 0 0 0 0
136 1 3 31.1018 -495 0 0 0 0 0
137 1 3 31.1018 -492 0 0 0 0 0
138 1 3 31.1018 -489 0 0 0 0 0
139 1 3 31.1018 -486 0 0 0 0 0
140 1 3 31.1018 -483 0 0 0 0 0
141 1 3 31.1018 -480 0 0 0 0 0
142 1 3 31.1018 -477 0 0 0 0 0
143 1 3 31.1018 -474 0 0 0 0 0
144 1 3 31.1018 -471 0 0 0 0 0
145 1 3 31.1018 -468 0 0 0 0 0
146 1 3 31.1018 -465 0 0 0 0 0
147 1 3 31.1018 -462 0 0 0 0 0
148 1 3 31.1018 -459 0 0 0 0 0
149 1 3 31.1018 -456 0 0 0 0 0
150 1 3 31.1018 -453 0 0 0 0 0
601 2 3 31.1018 -604.500101365211776 1.89928e-19 2.59757463458673854 0.238547 0 -0.0147838
602 2 3 31.1018 -601.500101365211776 1.88979e-19 2.59757463443577041 0.239226 0 -0.0136107
603 2 3 31.1018 -598.500101365211776 1.88029e-19 2.59757463428480184 0.239905 0 -0.0124377
604 2 3 31.1018 -595.50010136521189 1.87079e-19 2.59757463413383372 0.240585 0 -0.0112647
605 2 3 31.1018 -592.50010136521189 1.8613e-19 2.59757463398286559 0.241264 0 -0.0100917
606 2 3 31.1018 -589.50010136521189 1.8518e-19 2.59757463383189746 0.241943 0 -0.00891867
607 2 3 31.1018 -586.500101365212004 1.84231e-19 2.59757463368092889 0.242623 0 -0.00774564
608 2 3 31.1018 -583.500101365212004 1.83281e-19 2.59757463352996076 0.243302 0 -0.00657263
609 2 3 31.1018 -580.500101365212117 1.82331e-19 2.59757463337899264 0.242555 0 -0.00622368
610 2 3 31.1018 -577.500101365212117 1.81382e-19 2.59757463322802451 0.241276 0 -0.00618147
611 2 3 31.1018 -574.500101365212117 1.80432e-19 2.59757463307705594 0.239997 0 -0.00613925
612 2 3 31.1018 -571.500101365212231 1.79482e-19 2.59757463292608781 0.238718 0 -0.00609703
613 2 3 31.1018 -568.500101365212231 1.78533e-19 2.59757463277511969 0.237439 0 -0.00605482
614 2 3 31.1018 -565.500101365212231 1.77583e-19 2.59757463262415156 0.236161 0 -0.00601261
615 2 3 31.1018 -562.500101365212345 1.76633e-19 2.59757463247318299 0.234882 0 -0.00597039
616 2 3 31.1018 -559.500101365212345 1.75684e-19 2.59757463232221486 0.233603 0 -0.00592817
617 2 3 31.1018 -556.500101365212458 1.74734e-19 2.59757463217124673 0.232324 0 -0.00588595
618 2 3 31.1018 -553.500101365212458 1.73784e-19 2.59757463202027861 0.231046 0 -0.00584374
619 2 3 31.1018 -550.500101365212458 1.72835e-19 2.59757463186931004 0.229767 0 -0.00580153
620 2 3 31.1018 -547.500101365212572 1.71885e-19 2.59757463171834191 0.228488 0 -0.00575931
621 2 3 31.1018 -544.500101365212572 1.70936e-19 2.59757463156737378 0.227209 0 -0.0057171
622 2 3 31.1018 -541.500101365212572 1.69986e-19 2.59757463141640565 0.22593 0 -0.00567489
623 2 3 31.1018 -538.500101365212686 1.69036e-19 2.59757463126543708 0.224652 0 -0.00563267
624 2 3 31.1018 -535.500101365212686 1.68087e-19 2.59757463111446896 0.223373 0 -0.00559046
625 2 3 31.1018 -532.500101365212799 1.67137e-19 2.59757463096350083 0.222094 0 -0.00554823
626 2 3 31.1018 -529.500101365212799 1.66187e-19 2.5975746308125327 0.220815 0 -0.00550602
627 2 3 31.1018 -526.500101365212799 1.65238e-19 2.59757463066156413 0.219537 0 -0.00546381
628 2 3 31.1018 -523.500101365212913 1.64288e-19 2.59757463051059601 0.218258 0 -0.00542159
629 2 3 31.1018 -520.500101365212913 1.63338e-19 2.59757463035962788 0.216979 0 -0.00537938
630 2 3 31.1018 -517.500101365212913 1.62389e-19 2.59757463020865975 0.2157 0 -0.00533717
631 2 3 31.1018 -514.500101365212913 1.61439e-19 2.59757463005769118 0.214421 0 -0.00529496
632 2 3 31.1018 -511.50010136521297 1.60489e-19 2.59757462990672305 0.213143 0 -0.00525275
633 2 3 31.1018 -508.500101365213027 1.5954e-19 2.59757462975575493 0.211864 0 -0.00521053
634 2 3 31.1018 -505.500101365213084 1.5859e-19 2.5975746296047868 0.210585 0 -0.00516832
635 2 3 31.1018 -502.500101365213084 1.57641e-19 2.59757462945381823 0.209306 0 -0.00512611
636 2 3 31.1018 -499.500101365213141 1.56691e-19 2.5975746293028501 0.208028 0 -0.00508389
637 2 3 31.1018 -496.500101365213197 1.55741e-19 2.59757462915188198 0.206749 0 -0.00504168
638 2 3 31.1018 -493.500101365213254 1.54792e-19 2.59757462900091385 0.20547 0 -0.00499946
639 2 3 31.1018 -490.500101365213254 1.53842e-19 2.59757462884994528 0.204191 0 -0.00495725
640 2 3 31.1018 -487.500101365213311 1.52892e-19 2.59757462869897715 0.202912 0 -0.00491504
641 2 3 31.1018 -484.500101365213368 1.51943e-19 2.59757462854800902 0.201634 0 -0.00487282
642 2 3 31.1018 -481.500101365213425 1.50993e-19 2.5975746283970409 0.200355 0 -0.00483061
643 2 3 31.1018 -478.500101365213425 1.50043e-19 2.59757462824607233 0.199076 0 -0.0047884
644 2 3 31.1018 -475.500101365213482 1.49094e-19 2.5975746280951042 0.197797 0 -0.00474619
645 2 3 31.1018 -472.500101365213538 1.48144e-19 2.59757462794413607 0.196519 0 -0.00470397
646 2 3 31.1018 -469.500101365213595 1.47195e-19 2.59757462779316795 0.19524 0 -0.00466176
647 2 3 31.1018 -466.500101365213595 1.46245e-19 2.59757462764219937 0.193961 0 -0.00461955
648 2 3 31.1018 -463.500101365213652 1.45295e-19 2.59757462749123125 0.192682 0 -0.00457733
649 2 3 31.1018 -460.500101365213709 1.44346e-19 2.59757462734026312 0.191403 0 -0.00453512
650 2 3 31.1018 -457.500101365213766 1.43396e-19 2.59757462718929499 0.190125 0 -0.00449291
651 2 3 31.1018 -454.500101365213766 1.42446e-19 2.59757462703832642 0.188846 0 -0.0044507
652 2 3 31.1018 -451.500101365213823 1.41497e-19 2.5975746268873583 0.187567 0 -0.00440849
151 1 3 31.1018 -450 0 0 0 0 0
152 1 3 31.1018 -447 0 0 0 0 0
153 1 3 31.1018 -444 0 0 0 0 0
154 1 3 31.1018 -441 0 0 0 0 0
155 1 3 31.1018 -438 0 0 0 0 0
156 1 3 31.1018 -435 0 0 0 0 0
157 1 3 31.1018 -432 0 0 0 0 0
158 1 3 31.1018 -429 0 0 0 0 0
159 1 3 31.1018 -426 0 0 0 0 0
160 1 3 31.1018 -423 0 0 0 0 0
161 1 3 31.1018 -420 0 0 0 0 0
162 1 3 31.1018 -417 0 0 0 0 0
163 1 3 31.1018 -414 0 0 0 0 0
164 1 3 31.1018 -411 0 0 0 0 0
165 1 3 31.1018 -408 0 0 0 0 0
166 1 3 31.1018 -405 0 0 0 0 0
167 1 3 31.1018 -402 0 0 0 0 0
168 1 3 31.1018 -399 0 0 0 0 0
169 1 3 31.1018 -396 0 0 0 0 0
170 1 3 31.1018 -393 0 0 0 0 0
171 1 3 31.1018 -390 0 0 0 0 0
172 1 3 31.1018 -387 0 0 0 0 0
173 1 3 31.1018 -384 0 0 0 0 0
174 1 3 31.1018 -381 0 0 0 0 0
175 1 3 31.1018 -378 0 0 0 0 0
176 1 3 31.1018 -375 0 0 0 0 0
177 1 3 31.1018 -372 0 0 0 0 0
178 1 3 31.1018 -369 0 0 0 0 0
179 1 3 31.1018 -366 0 0 0 0 0
180 1 3 31.1018 -363 0 0 0 0 0
181 1 3 31.1018 -360 0 0 0 0 0
182 1 3 31.1018 -357 0 0 0 0 0
183 1 3 31.1018 -354 0 0 0 0 0
184 1 3 31.1018 -351 0 0 0 0 0
185 1 3 31.1018 -348 0 0 0 0 0
186 1 3 31.1018 -345 0 0 0 0 0
187 1 3 31.1018 -342 0 0 0 0 0
188 1 3 31.1018 -339 0 0 0 0 0
189 1 3 31.1018 -336 0 0 0 0 0
190 1 3 31.1018 -333 0 0 0 0 0
191 1 3 31.1018 -330 0 0 0 0 0
192 1 3 31.1018 -327 0 0 0 0 0
193 1 3 31.1018 -324 0 0 0 0 0
194 1 3 31.1018 -321 0 0 0 0 0
195 1 3 31.1018 -318 0 0 0 0 0
196 1 3 31.1018 -315 0 0 0 0 0
197 1 3 31.1018 -312 0 0 0 0 0
198 1 3 31.1018 -309 0 0 0 0 0
199 1 3 31.1018 -306 0 0 0 0 0
200 1 3 31.1018 -303 0 0 0 0 0
201 1 3 31.1018 -300 0 0 0 0 0
202 1 3 31.1018 -297 0 0 0 0 0
203 1 3 31.1018 -294 0 0 0 0 0
204 1 3 31.1018 -291 0 0 0 0 0
205 1 3 31.1018 -288 0 0 0 0 0
206 1 3 31.1018 -285 0 0 0 0 0
207 1 3 31.1018 -282 0 0 0 0 0
208 1 3 31.1018 -279 0 0 0 0 0
209 1 3 31.1018 -276 0 0 0 0 0
210 1 3 31.1018 -273 0 0 0 0 0
211 1 3 31.1018 -270 0 0 0 0 0
212 1 3 31.1018 -267 0 0 0 0 0
213 1 3 31.1018 -264 0 0 0 0 0
214 1 3 31.1018 -261 0 0 0 0 0
215 1 3 31.1018 -258 0 0 0 0 0
216 1 3 31.1018 -255 0 0 0 0 0
217 1 3 31.1018 -252 0 0 0 0 0
218 1 3 31.1018 -249 0 0 0 0 0
219 1 3 31.1018 -246 0 0 0 0 0
220 1 3 31.1018 -243 0 0 0 0 0
221 1 3 31.1018 -240 0 0 0 0 0
222 1 3 31.1018 -237 0 0 0 0 0
223 1 3 31.1018 -234 0 0 0 0 0
224 1 3 31.1018 -231 0 0 0 0 0
225 1 3 31.1018 -228 0 0 0 0 0
226 1 3 31.1018 -225 0 0 0 0 0
227 1 3 31.1018 -222 0 0 0 0 0
228 1 3 31.1018 -219 0 0 0 0 0
229 1 3 31.1018 -216 0 0 0 0 0
230 1 3 31.1018 -213 0 0 0 0 0
231 1 3 31.1018 -210 0 0 0 0 0
232 1 3 31.1018 -207 0 0 0 0 0
233 1 3 31.1018 -204 0 0 0 0 0
234 1 3 31.1018 -201 0 0 0 0 0
235 1 3 31.1018 -198 0 0 0 0 0
236 1 3 31.1018 -195 0 0 0 0 0
237 1 3 31.1018 -192 0 0 0 0 0
238 1 3 31.1018 -189 0 0 0 0 0
239 1 3 31.1018 -186 0 0 0 0 0
240 1 3 31.1018 -183 0 0 0 0 0
241 1 3 31.1018 -180 0 0 0 0 0
242 1 3 31.1018 -177 0 0 0 0 0
243 1 3 31.1018 -174 0 0 0 0 0
244 1 3 31.1018 -171 0 0 0 0 0
245 1 3 31.1018 -168 0 0 0 0 0
246 1 3 31.1018 -165 0 0 0 0 0
247 1 3 31.1018 -162 0 0 0 0 0
248 1 3 31.1018 -159 0 0 0 0 0
249 1 3 31.1018 -156 0 0 0 0 0
250 1 3 31.1018 -153 0 0 0 0 0
251 1 3 31.1018 -150 0 0 0 0 0
252 1 3 31.1018 -147 0 0 0 0 0
253 1 3 31.1018 -144 0 0 0 0 0
254 1 3 31.1018 -141 0 0 0 0 0
255 1 3 31.1018 -138 0 0 0 0 0
256 1 3 31.1018 -135 0 0 0 0 0
257 1 3 31.1018 -132 0 0 0 0 0
258 1 3 31.1018 -129 0 0 0 0 0
259 1 3 31.1018 -126 0 0 0 0 0
260 1 3 31.1018 -123 0 0 0 0 0
261 1 3 31.1018 -120 0 0 0 0 0
262 1 3 31.1018 -117 0 0 0 0 0
263 1 3 31.1018 -114 0 0 0 0 0
264 1 3 31.1018 -111 0 0 0 0 0
265 1 3 31.1018 -108 0 0 0 0 0
266 1 3 31.1018 -105 0 0 0 0 0
267 1 3 31.1018 -102 0 0 0 0 0
268 1 3 31.1018 -99 0 0 0 0 0
269 1 3 31.1018 -96 0 0 0 0 0
270 1 3 31.1018 -93 0 0 0 0 0
271 1 3 31.1018 -90 0 0 0 0 0
272 1 3 31.1018 -87 0 0 0 0 0
273 1 3 31.1018 -84 0 0 0 0 0
274 1 3 31.1018 -81 0 0 0 0 0
275 1 3 31.1018 -78 0 0 0 0 0
276 1 3 31.1018 -75 0 0 0 0 0
277 1 3 31.1018 -72 0 0 0 0 0
278 1 3 31.1018 -69 0 0 0 0 0
279 1 3 31.1018 -66 0 0 0 0 0
280 1 3 31.1018 -63 0 0 0 0 0
281 1 3 31.1018 -60 0 0 0 0 0
282 1 3 31.1018 -57 0 0 0 0 0
283 1 3 31.1018 -54 0 0 0 0 0
284 1 3 31.1018 -51 0 0 0 0 0
285 1 3 31.1018 -48 0 0 0 0 0
286 1 3 31.1018 -45 0 0 0 0 0
287 1 3 31.1018 -42 0 0 0 0 0
288 1 3 31.1018 -39 0 0 0 0 0
289 1 3 31.1018 -36 0 0 0 0 0
290 1 3 31.1018 -33 0 0 0 0 0
291 1 3 31.1018 -30 0 0 0 0 0
292 1 3 31.1018 -27 0 0 0 0 0
293 1 3 31.1018 -24 0 0 0 0 0
294 1 3 31.1018 -21 0 0 0 0 0
295 1 3 31.1018 -18 0 0 0 0 0
296 1 3 31.1018 -15 0 0 0 0 0
297 1 3 31.1018 -12 0 0 0 0 0
298 1 3 31.1018 -9 0 0 0 0 0
299 1 3 31.1018 -6 0 0 0 0 0
300 1 3 31.1018 -3 0 0 0 0 0
653 2 3 31.1018 -448.500101365213879 1.40547e-19 2.59757462673639017 0.186288 0 -0.00436627
654 2 3 31.1018 -445.500101365213936 1.39597e-19 2.59757462658542204 0.18501 0 -0.00432406
655 2 3 31.1018 -442.500101365213936 1.38648e-19 2.59757462643445347 0.183731 0 -0.00428185
656 2 3 31.1018 -439.500101365213993 1.37698e-19 2.59757462628348534 0.182452 0 -0.00423964
657 2 3 31.1018 -436.50010136521405 1.36748e-19 2.59757462613251722 0.181173 0 -0.00419742
658 2 3 31.1018 -433.500101365214107 1.35799e-19 2.59757462598154909 0.179894 0 -0.00415521
659 2 3 31.1018 -430.500101365214107 1.34849e-19 2.59757462583058052 0.178616 0 -0.004113
660 2 3 31.1018 -427.500101365214164 1.339e-19 2.59757462567961239 0.177337 0 -0.00407079
661 2 3 31.1018 -424.500101365214221 1.3295e-19 2.59757462552864427 0.176058 0 -0.00402858
662 2 3 31.1018 -421.500101365214277 1.32e-19 2.59757462537767614 0.174779 0 -0.00398636
663 2 3 31.1018 -418.500101365214277 1.31051e-19 2.59757462522670757 0.1735 0 -0.00394416
664 2 3 31.1018 -415.500101365214334 1.30101e-19 2.59757462507573944 0.172222 0 -0.00390194
665 2 3 31.1018 -412.500101365214391 1.29151e-19 2.59757462492477131 0.170943 0 -0.00385973
666 2 3 31.1018 -409.500101365214448 1.28202e-19 2.59757462477380319 0.169664 0 -0.00381752
667 2 3 31.1018 -406.500101365214448 1.27252e-19 2.59757462462283462 0.168385 0 -0.00377531
668 2 3 31.1018 -403.500101365214505 1.26302e-19 2.59757462447186649 0.167107 0 -0.0037331
669 2 3 31.1018 -400.500101365214562 1.25353e-19 2.59757462432089836 0.165828 0 -0.00369089
670 2 3 31.1018 -397.500101365214618 1.24403e-19 2.59757462416993024 0.164549 0 -0.00364868
671 2 3 31.1018 -394.500101365214618 1.23453e-19 2.59757462401896166 0.16327 0 -0.00360647
672 2 3 31.1018 -391.500101365214675 1.22504e-19 2.59757462386799354 0.161991 0 -0.00356423
673 2 3 31.1018 -388.500101365214732 1.21554e-19 2.59757462371702541 0.160712 0 -0.00352169
674 2 3 31.1018 -385.500101365214732 1.20605e-19 2.59757462356605728 0.159433 0 -0.00347916
675 2 3 31.1018 -382.500101365214789 1.19655e-19 2.59757462341508871 0.158153 0 -0.00343662
676 2 3 31.1018 -379.500101365214846 1.18705e-19 2.59757462326412059 0.156874 0 -0.00339408
677 2 3 31.1018 -376.500101365214903 1.17756e-19 2.59757462311315246 0.155595 0 -0.00335155
678 2 3 31.1018 -373.500101365214903 1.16806e-19 2.59757462296218433 0.154315 0 -0.00330902
679 2 3 31.1018 -370.50010136521496 1.15856e-19 2.59757462281121576 0.153036 0 -0.00326648
680 2 3 31.1018 -367.500101365215016 1.14907e-19 2.59757462266024763 0.151756 0 -0.00322394
681 2 3 31.1018 -364.500101365215073 1.13957e-19 2.59757462250927951 0.150477 0 -0.0031814
682 2 3 31.1018 -361.500101365215073 1.13007e-19 2.59757462235831138 0.149198 0 -0.00313887
683 2 3 31.1018 -358.50010136521513 1.12058e-19 2.59757462220734281 0.147918 0 -0.00309634
684 2 3 31.1018 -355.500101365215187 1.11108e-19 2.59757462205637468 0.146639 0 -0.0030538
685 2 3 31.1018 -352.500101365215244 1.10158e-19 2.59757462190540656 0.14536 0 -0.00301126
686 2 3 31.1018 -349.500101365215244 1.09209e-19 2.59757462175443843 0.14408 0 -0.00296873
687 2 3 31.1018 -346.500101365215301 1.08259e-19 2.59757462160346986 0.142801 0 -0.0029262
688 2 3 31.1018 -343.500101365215357 1.0731e-19 2.59757462145250173 0.141522 0 -0.00288366
689 2 3 31.1018 -340.500101365215414 1.0636e-19 2.5975746213015336 0.140242 0 -0.00284112
690 2 3 31.1018 -337.500101365215414 1.0541e-19 2.59757462115056548 0.138963 0 -0.0027986
691 2 3 31.1018 -334.500101365215471 1.04461e-19 2.59757462099959691 0.137683 0 -0.00275606
692 2 3 31.1018 -331.500101365215528 1.03511e-19 2.59757462084862878 0.136404 0 -0.00271352
693 2 3 31.1018 -328.500101365215585 1.02561e-19 2.59757462069766065 0.135125 0 -0.00267099
694 2 3 31.1018 -325.500101365215585 1.01612e-19 2.59757462054669253 0.133845 0 -0.00262846
695 2 3 31.1018 -322.500101365215642 1.00662e-19 2.59757462039572395 0.132566 0 -0.00258592
696 2 3 31.1018 -319.500101365215698 9.97124e-20 2.59757462024475583 0.131287 0 -0.00254339
697 2 3 31.1018 -316.500101365215755 9.87628e-20 2.5975746200937877 0.130007 0 -0.00250085
698 2 3 31.1018 -313.500101365215755 9.78131e-20 2.59757461994281957 0.128728 0 -0.00245832
699 2 3 31.1018 -310.500101365215812 9.68635e-20 2.597574619791851 0.127449 0 -0.00241579
700 2 3 31.1018 -307.500101365215869 9.59138e-20 2.59757461964088288 0.126169 0 -0.00237325
701 2 3 31.1018 -304.500101365215926 9.49642e-20 2.59757461948991475 0.12489 0 -0.00233072
702 2 3 31.1018 -301.500101365215926 9.40146e-20 2.59757461933894662 0.12361 0 -0.00228819
703 2 3 31.1018 -298.500101365215983 9.30649e-20 2.59757461918797805 0.122331 0 -0.00224565
704 2 3 31.1018 -295.50010136521604 9.21153e-20 2.59757461903700992 0.121052 0 -0.00220312
705 2 3 31.1018 -292.500101365216096 9.11656e-20 2.5975746188860418 0.119772 0 -0.00216058
706 2 3 31.1018 -289.500101365216096 9.0216e-20 2.59757461873507367 0.118493 0 -0.00211805
707 2 3 31.1018 -286.500101365216153 8.92663e-20 2.5975746185841051 0.117214 0 -0.00207552
708 2 3 31.1018 -283.50010136521621 8.83167e-20 2.59757461843313697 0.115934 0 -0.00203298
709 2 3 31.1018 -280.500101365216267 8.73671e-20 2.59757461828216885 0.114655 0 -0.00199045
710 2 3 31.1018 -277.500101365216267 8.64174e-20 2.59757461813120072 0.113375 0 -0.00194792
711 2 3 31.1018 -274.500101365216324 8.54678e-20 2.59757461798023215 0.112096 0 -0.00190539
712 2 3 31.1018 -271.500101365216381 8.45181e-20 2.59757461782926402 0.110817 0 -0.00186285
713 2 3 31.1018 -268.500101365216437 8.35685e-20 2.59757461767829589 0.109537 0 -0.00182032
714 2 3 31.1018 -265.500101365216437 8.26189e-20 2.59757461752732777 0.108258 0 -0.00177779
715 2 3 31.1018 -262.500101365216494 8.16692e-20 2.5975746173763592 0.106979 0 -0.00173525
716 2 3 31.1018 -259.500101365216551 8.07196e-20 2.59757461722539107 0.105699 0 -0.00169272
717 2 3 31.1018 -256.500101365216608 7.97699e-20 2.59757461707442294 0.10442 0 -0.00165019
718 2 3 31.1018 -253.500101365216665 7.88203e-20 2.59757461692345482 0.103141 0 -0.00160765
719 2 3 31.1018 -250.500101365216722 7.78706e-20 2.59757461677248624 0.101861 0 -0.00156512
720 2 3 31.1018 -247.50010136521675 7.6921e-20 2.59757461662151812 0.100582 0 -0.00152259
721 2 3 31.1018 -244.500101365216807 7.59714e-20 2.59757461647054999 0.0993025 0 -0.00148006
722 2 3 31.1018 -241.500101365216835 7.50217e-20 2.59757461631958186 0.0980231 0 -0.00143753
723 2 3 31.1018 -238.500101365216892 7.40721e-20 2.59757461616861329 0.0967437 0 -0.00139499
724 2 3 31.1018 -235.500101365216921 7.31224e-20 2.59757461601764517 0.0954643 0 -0.00135246
725 2 3 31.1018 -232.500101365216977 7.21728e-20 2.59757461586667704 0.094185 0 -0.00130993
726 2 3 31.1018 -229.500101365217006 7.12231e-20 2.59757461571570891 0.0929056 0 -0.0012674
727 2 3 31.1018 -226.500101365217063 7.02735e-20 2.59757461556474034 0.0916262 0 -0.00122486
728 2 3 31.1018 -223.500101365217091 6.93239e-20 2.59757461541377221 0.0903468 0 -0.00118234
729 2 3 31.1018 -220.500101365217148 6.83742e-20 2.59757461526280409 0.0890674 0 -0.0011398
730 2 3 31.1018 -217.500101365217176 6.74246e-20 2.59757461511183596 0.0877881 0 -0.00109727
731 2 3 31.1018 -214.500101365217233 6.64749e-20 2.59757461496086739 0.0865087 0 -0.00105474
732 2 3 31.1018 -211.500101365217262 6.55253e-20 2.59757461480989926 0.0852293 0 -0.00101221
733 2 3 31.1018 -208.500101365217319 6.45757e-20 2.59757461465893114 0.0839499 0 -0.000969678
734 2 3 31.1018 -205.500101365217347 6.3626e-20 2.59757461450796301 0.0826705 0 -0.000927148
735 2 3 31.1018 -202.500101365217404 6.26764e-20 2.59757461435699444 0.0813912 0 -0.000884615
736 2 3 31.1018 -199.500101365217432 6.17267e-20 2.59757461420602631 0.0801118 0 -0.000842086
737 2 3 31.1018 -196.500101365217489 6.07771e-20 2.59757461405505818 0.0788324 0 -0.000799553
738 2 3 31.1018 -193.500101365217517 5.98274e-20 2.59757461390409006 0.077553 0 -0.000757025
739 2 3 31.1018 -190.500101365217574 5.88778e-20 2.59757461375312149 0.0762736 0 -0.000714493
740 2 3 31.1018 -187.500101365217603 5.79282e-20 2.59757461360215336 0.0749942 0 -0.000671963
741 2 3 31.1018 -184.50010136521766 5.69785e-20 2.59757461345118523 0.0737149 0 -0.000629432
742 2 3 31.1018 -181.500101365217688 5.60289e-20 2.59757461330021711 0.0724355 0 -0.000586903
743 2 3 31.1018 -178.500101365217745 5.50792e-20 2.59757461314924853 0.0711561 0 -0.000544371
744 2 3 31.1018 -175.500101365217773 5.41296e-20 2.59757461299828041 0.0698767 0 -0.000501843
745 2 3 31.1018 -172.50010136521783 5.31799e-20 2.59757461284731228 0.0685973 0 -0.000459312
746 2 3 31.1018 -169.500101365217859 5.22303e-20 2.59757461269634415 0.0673179 0 -0.000416783
747 2 3 31.1018 -166.500101365217915 5.12807e-20 2.59757461254537558 0.0660386 0 -0.000374251
748 2 3 31.1018 -163.500101365217944 5.0331e-20 2.59757461239440746 0.0647592 0 -0.000331724
749 2 3 31.1018 -160.500101365218001 4.93814e-20 2.59757461224343933 0.0634798 0 -0.000289192
750 2 3 31.1018 -157.500101365218029 4.84317e-20 2.5975746120924712 0.0622004 0 -0.000246663
751 2 3 31.1018 -154.500101365218086 4.74821e-20 2.59757461194150263 0.060921 0 -0.000204131
752 2 3 31.1018 -151.500101365218114 4.65325e-20 2.5975746117905345 0.0596416 0 -0.000161604
753 2 3 31.1018 -148.500101365218171 4.55828e-20 2.59757461163956638 0.0583622 0 -0.000119074
754 2 3 31.1018 -145.5001013652182 4.46332e-20 2.59757461148859825 0.0570828 0 -7.65465e-05
755 2 3 31.1018 -142.500101365218256 4.36835e-20 2.59757461133762968 0.0558035 0 -3.40149e-05
756 2 3 31.1018 -139.500101365218285 4.27339e-20 2.59757461118666155 0.054524 0 8.51231e-06
757 2 3 31.1018 -136.500101365218342 4.17842e-20 2.59757461103569343 0.0532447 0 5.10429e-05
758 2 3 31.1018 -133.50010136521837 4.08346e-20 2.5975746108847253 0.0519653 0 9.35714e-05
759 2 3 31.1018 -130.500101365218399 3.9885e-20 2.59757461073375673 0.0506859 0 0.0001361
760 2 3 31.1018 -127.500101365218441 3.89353e-20 2.5975746105827886 0.0494065 0 0.000178626
761 2 3 31.1018 -124.500101365218484 3.79857e-20 2.59757461043182047 0.0481271 0 0.000221155
762 2 3 31.1018 -121.500101365218526 3.7036e-20 2.59757461028085235 0.0468477 0 0.000263684
763 2 3 31.1018 -118.500101365218569 3.60864e-20 2.59757461012988378 0.0455683 0 0.000306214
764 2 3 31.1018 -115.500101365218612 3.51368e-20 2.59757460997891565 0.0442889 0 0.000348742
765 2 3 31.1018 -112.500101365218654 3.41871e-20 2.59757460982794752 0.0430095 0 0.00039127
766 2 3 31.1018 -109.500101365218697 3.32375e-20 2.5975746096769794 0.0417301 0 0.000433797
767 2 3 31.1018 -106.50010136521874 3.22878e-20 2.59757460952601082 0.0404507 0 0.000476327
768 2 3 31.1018 -103.500101365218782 3.13382e-20 2.5975746093750427 0.0391713 0 0.000518855
769 2 3 31.1018 -100.500101365218825 3.03885e-20 2.59757460922407457 0.0378919 0 0.000561383
770 2 3 31.1018 -97.5001013652188675 2.94389e-20 2.59757460907310644 0.0366125 0 0.00060391
771 2 3 31.1018 -94.5001013652189101 2.84893e-20 2.59757460892213787 0.0353331 0 0.000646439
772 2 3 31.1018 -91.5001013652189528 2.75396e-20 2.59757460877116975 0.0340537 0 0.000688966
773 2 3 31.1018 -88.5001013652189954 2.659e-20 2.59757460862020162 0.0327743 0 0.000731494
774 2 3 31.1018 -85.500101365219038 2.56403e-20 2.59757460846923349 0.0314949 0 0.000774022
775 2 3 31.1018 -82.5001013652190807 2.46907e-20 2.59757460831826492 0.0302155 0 0.000816551
776 2 3 31.1018 -79.5001013652191233 2.3741e-20 2.59757460816729679 0.0289361 0 0.000859076
777 2 3 31.1018 -76.5001013652191659 2.27914e-20 2.59757460801632867 0.0276567 0 0.000901604
778 2 3 31.1018 -73.5001013652192086 2.18418e-20 2.59757460786536054 0.0263773 0 0.000944132
779 2 3 31.1018 -70.5001013652192512 2.08921e-20 2.59757460771439197 0.0250979 0 0.00098666
780 2 3 31.1018 -67.5001013652192796 1.99425e-20 2.59757460756342384 0.0238185 0 0.00102918
781 2 3 31.1018 -64.5001013652193222 1.89928e-20 2.59757460741245572 0.0225391 0 0.00107171
782 2 3 31.1018 -61.500101365219372 1.80432e-20 2.59757460726148759 0.0212597 0 0.00111424
783 2 3 31.1018 -58.5001013652194146 1.70936e-20 2.59757460711051902 0.0199803 0 0.00115677
784 2 3 31.1018 -55.5001013652194573 1.61439e-20 2.59757460695955089 0.0187009 0 0.00119929
785 2 3 31.1018 -52.5001013652194999 1.51943e-20 2.59757460680858276 0.0174215 0 0.00124182
786 2 3 31.1018 -49.5001013652195425 1.42446e-20 2.59757460665761464 0.0161421 0 0.00128435
787 2 3 31.1018 -46.5001013652195851 1.3295e-20 2.59757460650664607 0.0148627 0 0.00132687
788 2 3 31.1018 -43.5001013652196278 1.23453e-20 2.59757460635567794 0.0135833 0 0.0013694
789 2 3 31.1018 -40.5001013652196704 1.13957e-20 2.59757460620470981 0.0123039 0 0.00141193
790 2 3 31.1018 -37.500101365219713 1.04461e-20 2.59757460605374169 0.0110244 0 0.0014545
791 2 3 31.1018 -34.5001013652197486 9.49642e-21 2.59757460590277311 0.00974445 0 0.00149736
792 2 3 31.1018 -31.5001013652197912 8.54678e-21 2.59757460575180499 0.00846448 0 0.00154021
793 2 3 31.1018 -28.5001013652198338 7.59714e-21 2.59757460560083686 0.00718451 0 0.00158306
794 2 3 31.1018 -25.5001013652198765 6.64749e-21 2.59757460544986873 0.00590454 0 0.00162591
795 2 3 31.1018 -22.5001013652199191 5.69785e-21 2.59757460529890016 0.00462457 0 0.00166876
796 2 3 31.1018 -19.5001013652199617 4.74821e-21 2.59757460514793204 0.0033446 0 0.00171161
797 2 3 31.1018 -16.5001013652200044 3.79857e-21 2.59757460499696391 0.00206463 0 0.00175446
798 2 3 31.1018 -13.500101365220047 2.84893e-21 2.59757460484599578 0.00078466 0 0.00179731
799 2 3 31.1018 -10.5001013652200896 1.89928e-21 2.59757460469502721 -0.000495311 0 0.00184016
800 2 3 31.1018 -7.50010136522013049 9.49642e-22 2.59757460454405908 -0.00177528 0 0.00188301
801 2 3 31.1018 -4.50010136522017312 8.08367e-36 2.59757460439309096 -0.00305526 0 0.00192586
802 2 3 31.1018 -1.50010136522021531 -9.49642e-22 2.59757460424212283 -0.00433523 0 0.00196871
301 1 3 31.1018 0 0 0 0 0 0
302 1 3 31.1018 3 0 0 0 0 0
303 1 3 31.1018 6 0 0 0 0 0
304 1 3 31.1018 9 0 0 0 0 0
305 1 3 31.1018 12 0 0 0 0 0
306 1 3 31.1018 15 0 0 0 0 0
307 1 3 31.1018 18 0 0 0 0 0
308 1 3 31.1018 21 0 0 0 0 0
309 1 3 31.1018 24 0 0 0 0 0
310 1 3 31.1018 27 0 0 0 0 0
311 1 3 31.1018 30 0 0 0 0 0
312 1 3 31.1018 33 0 0 0 0 0
313 1 3 31.1018 36 0 0 0 0 0
314 1 3 31.1018 39 0 0 0 0 0
315 1 3 31.1018 42 0 0 0 0 0
316 1 3 31.1018 45 0 0 0 0 0
317 1 3 31.1018 48 0 0 0 0 0
318 1 3 31.1018 51 0 0 0 0 0
319 1 3 31.1018 54 0 0 0 0 0
320 1 3 31.1018 57 0 0 0 0 0
321 1 3 31.1018 60 0 0 0 0 0
322 1 3 31.1018 63 0 0 0 0 0
323 1 3 31.1018 66 0 0 0 0 0
324 1 3 31.1018 69 0 0 0 0 0
325 1 3 31.1018 72 0 0 0 0 0
326 1 3 31.1018 75 0 0 0 0 0
327 1 3 31.1018 78 0 0 0 0 0
328 1 3 31.1018 81 0 0 0 0 0
329 1 3 31.1018 84 0 0 0 0 0
330 1 3 31.1018 87 0 0 0 0 0
331 1 3 31.1018 90 0 0 0 0 0
332 1 3 31.1018 93 0 0 0 0 0
333 1 3 31.1018 96 0 0 0 0 0
334 1 3 31.1018 99 0 0 0 0 0
335 1 3 31.1018 102 0 0 0 0 0
336 1 3 31.1018 105 0 0 0 0 0
337 1 3 31.1018 108 0 0 0 0 0
338 1 3 31.1018 111 0 0 0 0 0
339 1 3 31.1018 114 0 0 0 0 0
340 1 3 31.1018 117 0 0 0 0 0
341 1 3 31.1018 120 0 0 0 0 0
342 1 3 31.1018 123 0 0 0 0 0
343 1 3 31.1018 126 0 0 0 0 0
344 1 3 31.1018 129 0 0 0 0 0
345 1 3 31.1018 132 0 0 0 0 0
346 1 3 31.1018 135 0 0 0 0 0
347 1 3 31.1018 138 0 0 0 0 0
348 1 3 31.1018 141 0 0 0 0 0
349 1 3 31.1018 144 0 0 0 0 0
350 1 3 31.1018 147 0 0 0 0 0
351 1 3 31.1018 150 0 0 0 0 0
352 1 3 31.1018 153 0 0 0 0 0
353 1 3 31.1018 156 0 0 0 0 0
354 1 3 31.1018 159 0 0 0 0 0
355 1 3 31.1018 162 0 0 0 0 0
356 1 3 31.1018 165 0 0 0 0 0
357 1 3 31.1018 168 0 0 0 0 0
358 1 3 31.1018 171 0 0 0 0 0
359 1 3 31.1018 174 0 0 0 0 0
360 1 3 31.1018 177 0 0 0 0 0
361 1 3 31.1018 180 0 0 0 0 0
362 1 3 31.1018 183 0 0 0 0 0
363 1 3 31.1018 186 0 0 0 0 0
364 1 3 31.1018 189 0 0 0 0 0
365 1 3 31.1018 192 0 0 0 0 0
366 1 3 31.1018 195 0 0 0 0 0
367 1 3 31.1018 198 0 0 0 0 0