ITEM: TIMESTEP
4400000
ITEM: NUMBER OF ATOMS
751
ITEM: BOX BOUNDS pp pp pp
-6.7500000000000000e+02 6.7500000000000000e+02
-1.0000000000000000e+02 1.0000000000000000e+02
-1.0000000000000000e+02 1.0000000000000000e+02
ITEM: ATOMS id type diameter mass xu yu zu fx fy fz
1 1 3 31.1018 -675 0 0 0 0 0
2 1 3 31.1018 -672 0 0 0 0 0
3 1 3 31.1018 -669 0 0 0 0 0
4 1 3 31.1018 -666 0 0 0 0 0
5 1 3 31.1018 -663 0 0 0 0 0
6 1 3 31.1018 -660 0 0 0 0 0
7 1 3 31.1018 -657 0 0 0 0 0
8 1 3 31.1018 -654 0 0 0 0 0
9 1 3 31.1018 -651 0 0 0 0 0
10 1 3 31.1018 -648 0 0 0 0 0
11 1 3 31.1018 -645 0 0 0 0 0
12 1 3 31.1018 -642 0 0 0 0 0
13 1 3 31.1018 -639 0 0 0 0 0
14 1 3 31.1018 -636 0 0 0 0 0
15 1 3 31.1018 -633 0 0 0 0 0
16 1 3 31.1018 -630 0 0 0 0 0
17 1 3 31.1018 -627 0 0 0 0 0
18 1 3 31.1018 -624 0 0 0 0 0
19 1 3 31.1018 -621 0 0 0 0 0
20 1 3 31.1018 -618 0 0 0 0 0
21 1 3 31.1018 -615 0 0 0 0 0
22 1 3 31.1018 -612 0 0 0 0 0
23 1 3 31.1018 -609 0 0 0 0 0
24 1 3 31.1018 -606 0 0 0 0 0
25 1 3 31.1018 -603 0 0 0 0 0
26 1 3 31.1018 -600 0 0 0 0 0
27 1 3 31.1018 -597 0 0 0 0 0
28 1 3 31.1018 -594 0 0 0 0 0
29 1 3 31.1018 -591 0 0 0 0 0
30 1 3 31.1018 -588 0 0 0 0 0
31 1 3 31.1018 -585 0 0 0 0 0
32 1 3 31.1018 -582 0 0 0 0 0
33 1 3 31.1018 -579 0 0 0 0 0
34 1 3 31.1018 -576 0 0 0 0 0
35 1 3 31.1018 -573 0 0 0 0 0
36 1 3 31.1018 -570 0 0 0 0 0
37 1 3 31.1018 -567 0 0 0 0 0
38 1 3 31.1018 -564 0 0 0 0 0
39 1 3 31.1018 -561 0 0 0 0 0
40 1 3 31.1018 -558 0 0 0 0 0
41 1 3 31.1018 -555 0 0 0 0 0
42 1 3 31.1018 -552 0 0 0 0 0
43 1 3 31.1018 -549 0 0 0 0 0
44 1 3 31.1018 -546 0 0 0 0 0
45 1 3 31.1018 -543 0 0 0 0 0
46 1 3 31.1018 -540 0 0 0 0 0
47 1 3 31.1018 -537 0 0 0 0 0
48 1 3 31.1018 -534 0 0 0 0 0
49 1 3 31.1018 -531 0 0 0 0 0
50 1 3 31.1018 -528 0 0 0 0 0
51 1 3 31.1018 -525 0 0 0 0 0
52 1 3 31.1018 -522 0 0 0 0 0
53 1 3 31.1018 -519 0 0 0 0 0
54 1 3 31.1018 -516 0 0 0 0 0
55 1 3 31.1018 -513 0 0 0 0 0
56 1 3 31.1018 -510 0 0 0 0 0
57 1 3 31.1018 -507 0 0 0 0 0
58 1 3 31.1018 -504 0 0 0 0 0
59 1 3 31.1018 -501 0 0 0 0 0
60 1 3 31.1018 -498 0 0 0 0 0
61 1 3 31.1018 -495 0 0 0 0 0
62 1 3 31.1018 -492 0 0 0 0 0
63 1 3 31.1018 -489 0 0 0 0 0
64 1 3 31.1018 -486 0 0 0 0 0
65 1 3 31.1018 -483 0 0 0 0 0
66 1 3 31.1018 -480 0 0 0 0 0
67 1 3 31.1018 -477 0 0 0 0 0
68 1 3 31.1018 -474 0 0 0 0 0
69 1 3 31.1018 -471 0 0 0 0 0
70 1 3 31.1018 -468 0 0 0 0 0
71 1 3 31.1018 -465 0 0 0 0 0
72 1 3 31.1018 -462 0 0 0 0 0
73 1 3 31.1018 -459 0 0 0 0 0
74 1 3 31.1018 -456 0 0 0 0 0
75 1 3 31.1018 -453 0 0 0 0 0
76 1 3 31.1018 -450 0 0 0 0 0
77 1 3 31.1018 -447 0 0 0 0 0
78 1 3 31.1018 -444 0 0 0 0 0
79 1 3 31.1018 -441 0 0 0 0 0
80 1 3 31.1018 -438 0 0 0 0 0
81 1 3 31.1018 -435 0 0 0 0 0
82 1 3 31.1018 -432 0 0 0 0 0
83 1 3 31.1018 -429 0 0 0 0 0
84 1 3 31.1018 -426 0 0 0 0 0
85 1 3 31.1018 -423 0 0 0 0 0
86 1 3 31.1018 -420 0 0 0 0 0
87 1 3 31.1018 -417 0 0 0 0 0
88 1 3 31.1018 -414 0 0 0 0 0
89 1 3 31.1018 -411 0 0 0 0 0
90 1 3 31.1018 -408 0 0 0 0 0
91 1 3 31.1018 -405 0 0 0 0 0
92 1 3 31.1018 -402 0 0 0 0 0
93 1 3 31.1018 -399 0 0 0 0 0
94 1 3 31.1018 -396 0 0 0 0 0
95 1 3 31.1018 -393 0 0 0 0 0
96 1 3 31.1018 -390 0 0 0 0 0
97 1 3 31.1018 -387 0 0 0 0 0
98 1 3 31.1018 -384 0 0 0 0 0
99 1 3 31.1018 -381 0 0 0 0 0
100 1 3 31.1018 -378 0 0 0 0 0
101 1 3 31.1018 -375 0 0 0 0 0
102 1 3 31.1018 -372 0 0 0 0 0
103 1 3 31.1018 -369 0 0 0 0 0
104 1 3 31.1018 -366 0 0 0 0 0
105 1 3 31.1018 -363 0 0 0 0 0
106 1 3 31.1018 -360 0 0 0 0 0
107 1 3 31.1018 -357 0 0 0 0 0
108 1 3 31.1018 -354 0 0 0 0 0
109 1 3 31.1018 -351 0 0 0 0 0
110 1 3 31.1018 -348 0 0 0 0 0
111 1 3 31.1018 -345 0 0 0 0 0
112 1 3 31.1018 -342 0 0 0 0 0
113 1 3 31.1018 -339 0 0 0 0 0
451 2 3 31.1018 -454.500101367918091 4.27712e-19 2.59757464094045254 0.283223 0 -0.032515
452 2 3 31.1018 -451.500101367918319 4.2486e-19 2.5975746406788538 0.284326 0 -0.0305174
453 2 3 31.1018 -448.500101367918546 4.22009e-19 2.59757464041725505 0.285429 0 -0.0285198
454 2 3 31.1018 -445.500101367918774 4.19157e-19 2.59757464015565631 0.286532 0 -0.0265222
455 2 3 31.1018 -442.500101367919001 4.16306e-19 2.59757463989405757 0.287635 0 -0.0245246
456 2 3 31.1018 -439.500101367919228 4.13454e-19 2.59757463963245883 0.286813 0 -0.0236376
457 2 3 31.1018 -436.500101367919456 4.10603e-19 2.59757463937086008 0.284638 0 -0.023532
458 2 3 31.1018 -433.500101367919683 4.07752e-19 2.59757463910926134 0.282463 0 -0.0234264
459 2 3 31.1018 -430.500101367919967 4.049e-19 2.5975746388476626 0.280288 0 -0.0233207
460 2 3 31.1018 -427.500101367920195 4.02049e-19 2.59757463858606386 0.278113 0 -0.0232151
461 2 3 31.1018 -424.500101367920422 3.99197e-19 2.59757463832446511 0.275937 0 -0.0231095
462 2 3 31.1018 -421.500101367920649 3.96346e-19 2.59757463806286637 0.273762 0 -0.0230039
463 2 3 31.1018 -418.500101367920877 3.93495e-19 2.59757463780126763 0.271587 0 -0.0228983
464 2 3 31.1018 -415.500101367921104 3.90643e-19 2.59757463753966888 0.269412 0 -0.0227927
465 2 3 31.1018 -412.500101367921332 3.87792e-19 2.59757463727807014 0.267237 0 -0.0226871
466 2 3 31.1018 -409.500101367921559 3.8494e-19 2.5975746370164714 0.265061 0 -0.0225816
467 2 3 31.1018 -406.500101367921786 3.82089e-19 2.59757463675487266 0.262886 0 -0.022476
468 2 3 31.1018 -403.500101367922014 3.79238e-19 2.59757463649327391 0.260711 0 -0.0223704
469 2 3 31.1018 -400.500101367922298 3.76386e-19 2.59757463623167517 0.258536 0 -0.0222647
470 2 3 31.1018 -397.500101367922525 3.73535e-19 2.59757463597007643 0.256361 0 -0.0221588
471 2 3 31.1018 -394.500101367922753 3.70683e-19 2.59757463570847769 0.254187 0 -0.0220529
472 2 3 31.1018 -391.50010136792298 3.67832e-19 2.59757463544687894 0.252012 0 -0.0219469
473 2 3 31.1018 -388.500101367923207 3.64981e-19 2.5975746351852802 0.249838 0 -0.0218409
474 2 3 31.1018 -385.500101367923435 3.62129e-19 2.59757463492368146 0.247663 0 -0.021735
475 2 3 31.1018 -382.500101367923662 3.59278e-19 2.59757463466208272 0.245489 0 -0.021629
476 2 3 31.1018 -379.500101367923889 3.56426e-19 2.59757463440048397 0.243314 0 -0.021523
477 2 3 31.1018 -376.500101367924117 3.53575e-19 2.59757463413888523 0.241139 0 -0.0214171
478 2 3 31.1018 -373.500101367924401 3.50723e-19 2.59757463387728649 0.242247 0 -0.0194155
479 2 3 31.1018 -370.500101367924628 3.47872e-19 2.59757463361568774 0.24343 0 -0.0173709
480 2 3 31.1018 -367.500101367924856 3.45021e-19 2.597574633354089 0.244612 0 -0.0153263
481 2 3 31.1018 -364.500101367925083 3.42169e-19 2.59757463309249026 0.245794 0 -0.0132817
482 2 3 31.1018 -361.500101367925311 3.39318e-19 2.59757463283089152 0.246977 0 -0.0112372
483 2 3 31.1018 -358.500101367925538 3.36466e-19 2.59757463256929277 0.248159 0 -0.00919257
484 2 3 31.1018 -355.500101367925765 3.33615e-19 2.59757463230769403 0.249341 0 -0.00714799
485 2 3 31.1018 -352.500101367925993 3.30764e-19 2.59757463204609529 0.250524 0 -0.00510341
486 2 3 31.1018 -349.50010136792622 3.27912e-19 2.59757463178449655 0.251706 0 -0.00305882
487 2 3 31.1018 -346.500101367926447 3.25061e-19 2.5975746315228978 0.252888 0 -0.00101424
488 2 3 31.1018 -343.500101367926732 3.22209e-19 2.59757463126129906 0.250983 0 -0.0007528
489 2 3 31.1018 -340.500101367926959 3.19358e-19 2.59757463099970032 0.248733 0 -0.000690414
114 1 3 31.1018 -336 0 0 0 0 0
115 1 3 31.1018 -333 0 0 0 0 0
116 1 3 31.1018 -330 0 0 0 0 0
117 1 3 31.1018 -327 0 0 0 0 0
118 1 3 31.1018 -324 0 0 0 0 0
119 1 3 31.1018 -321 0 0 0 0 0
120 1 3 31.1018 -318 0 0 0 0 0
121 1 3 31.1018 -315 0 0 0 0 0
122 1 3 31.1018 -312 0 0 0 0 0
123 1 3 31.1018 -309 0 0 0 0 0
124 1 3 31.1018 -306 0 0 0 0 0
125 1 3 31.1018 -303 0 0 0 0 0
126 1 3 31.1018 -300 0 0 0 0 0
127 1 3 31.1018 -297 0 0 0 0 0
128 1 3 31.1018 -294 0 0 0 0 0
129 1 3 31.1018 -291 0 0 0 0 0
130 1 3 31.1018 -288 0 0 0 0 0
131 1 3 31.1018 -285 0 0 0 0 0
132 1 3 31.1018 -282 0 0 0 0 0
133 1 3 31.1018 -279 0 0 0 0 0
134 1 3 31.1018 -276 0 0 0 0 0
135 1 3 31.1018 -273 0 0 0 0 0
136 1 3 31.1018 -270 0 0 0 0 0
137 1 3 31.1018 -267 0 0 0 0 0
138 1 3 31.1018 -264 0 0 0 0 0
139 1 3 31.1018 -261 0 0 0 0 0
140 1 3 31.1018 -258 0 0 0 0 0
141 1 3 31.1018 -255 0 0 0 0 0
142 1 3 31.1018 -252 0 0 0 0 0
143 1 3 31.1018 -249 0 0 0 0 0
144 1 3 31.1018 -246 0 0 0 0 0
145 1 3 31.1018 -243 0 0 0 0 0
146 1 3 31.1018 -240 0 0 0 0 0
147 1 3 31.1018 -237 0 0 0 0 0
148 1 3 31.1018 -234 0 0 0 0 0
149 1 3 31.1018 -231 0 0 0 0 0
150 1 3 31.1018 -228 0 0 0 0 0
151 1 3 31.1018 -225 0 0 0 0 0
152 1 3 31.1018 -222 0 0 0 0 0
153 1 3 31.1018 -219 0 0 0 0 0
154 1 3 31.1018 -216 0 0 0 0 0
155 1 3 31.1018 -213 0 0 0 0 0
156 1 3 31.1018 -210 0 0 0 0 0
157 1 3 31.1018 -207 0 0 0 0 0
158 1 3 31.1018 -204 0 0 0 0 0
159 1 3 31.1018 -201 0 0 0 0 0
160 1 3 31.1018 -198 0 0 0 0 0
161 1 3 31.1018 -195 0 0 0 0 0
162 1 3 31.1018 -192 0 0 0 0 0
163 1 3 31.1018 -189 0 0 0 0 0
164 1 3 31.1018 -186 0 0 0 0 0
165 1 3 31.1018 -183 0 0 0 0 0
166 1 3 31.1018 -180 0 0 0 0 0
167 1 3 31.1018 -177 0 0 0 0 0
168 1 3 31.1018 -174 0 0 0 0 0
169 1 3 31.1018 -171 0 0 0 0 0
170 1 3 31.1018 -168 0 0 0 0 0
171 1 3 31.1018 -165 0 0 0 0 0
172 1 3 31.1018 -162 0 0 0 0 0
173 1 3 31.1018 -159 0 0 0 0 0
174 1 3 31.1018 -156 0 0 0 0 0
175 1 3 31.1018 -153 0 0 0 0 0
176 1 3 31.1018 -150 0 0 0 0 0
177 1 3 31.1018 -147 0 0 0 0 0
178 1 3 31.1018 -144 0 0 0 0 0
179 1 3 31.1018 -141 0 0 0 0 0
180 1 3 31.1018 -138 0 0 0 0 0
181 1 3 31.1018 -135 0 0 0 0 0
182 1 3 31.1018 -132 0 0 0 0 0
183 1 3 31.1018 -129 0 0 0 0 0
184 1 3 31.1018 -126 0 0 0 0 0
185 1 3 31.1018 -123 0 0 0 0 0
186 1 3 31.1018 -120 0 0 0 0 0
187 1 3 31.1018 -117 0 0 0 0 0
188 1 3 31.1018 -114 0 0 0 0 0
189 1 3 31.1018 -111 0 0 0 0 0
190 1 3 31.1018 -108 0 0 0 0 0
191 1 3 31.1018 -105 0 0 0 0 0
192 1 3 31.1018 -102 0 0 0 0 0
193 1 3 31.1018 -99 0 0 0 0 0
194 1 3 31.1018 -96 0 0 0 0 0
195 1 3 31.1018 -93 0 0 0 0 0
196 1 3 31.1018 -90 0 0 0 0 0
197 1 3 31.1018 -87 0 0 0 0 0
198 1 3 31.1018 -84 0 0 0 0 0
199 1 3 31.1018 -81 0 0 0 0 0
200 1 3 31.1018 -78 0 0 0 0 0
201 1 3 31.1018 -75 0 0 0 0 0
202 1 3 31.1018 -72 0 0 0 0 0
203 1 3 31.1018 -69 0 0 0 0 0
204 1 3 31.1018 -66 0 0 0 0 0
205 1 3 31.1018 -63 0 0 0 0 0
206 1 3 31.1018 -60 0 0 0 0 0
207 1 3 31.1018 -57 0 0 0 0 0
208 1 3 31.1018 -54 0 0 0 0 0
209 1 3 31.1018 -51 0 0 0 0 0
210 1 3 31.1018 -48 0 0 0 0 0
211 1 3 31.1018 -45 0 0 0 0 0
212 1 3 31.1018 -42 0 0 0 0 0
213 1 3 31.1018 -39 0 0 0 0 0
214 1 3 31.1018 -36 0 0 0 0 0
215 1 3 31.1018 -33 0 0 0 0 0
216 1 3 31.1018 -30 0 0 0 0 0
217 1 3 31.1018 -27 0 0 0 0 0
218 1 3 31.1018 -24 0 0 0 0 0
219 1 3 31.1018 -21 0 0 0 0 0
220 1 3 31.1018 -18 0 0 0 0 0
221 1 3 31.1018 -15 0 0 0 0 0
222 1 3 31.1018 -12 0 0 0 0 0
223 1 3 31.1018 -9 0 0 0 0 0
224 1 3 31.1018 -6 0 0 0 0 0
225 1 3 31.1018 -3 0 0 0 0 0
490 2 3 31.1018 -337.500101367927186 3.16507e-19 2.59757463073810158 0.246483 0 -0.00062803
491 2 3 31.1018 -334.500101367927414 3.13655e-19 2.59757463047650283 0.244233 0 -0.000565645
492 2 3 31.1018 -331.500101367927641 3.10804e-19 2.59757463021490409 0.241983 0 -0.000503262
493 2 3 31.1018 -328.500101367927869 3.07952e-19 2.59757462995330535 0.239733 0 -0.000440877
494 2 3 31.1018 -325.500101367928096 3.05101e-19 2.5975746296917066 0.237483 0 -0.000378494
495 2 3 31.1018 -322.500101367928323 3.02249e-19 2.59757462943010786 0.235233 0 -0.00031611
496 2 3 31.1018 -319.500101367928551 2.99398e-19 2.59757462916850912 0.232983 0 -0.000253727
497 2 3 31.1018 -316.500101367928778 2.96547e-19 2.59757462890691038 0.230733 0 -0.000191344
498 2 3 31.1018 -313.500101367929062 2.93695e-19 2.59757462864531163 0.228483 0 -0.000128956
499 2 3 31.1018 -310.50010136792929 2.90844e-19 2.59757462838371289 0.226233 0 -6.65731e-05
500 2 3 31.1018 -307.500101367929517 2.87992e-19 2.59757462812211415 0.223983 0 -4.19099e-06
501 2 3 31.1018 -304.500101367929744 2.85141e-19 2.59757462786051541 0.221733 0 5.81907e-05
502 2 3 31.1018 -301.500101367929972 2.8229e-19 2.59757462759891666 0.219483 0 0.000120573
503 2 3 31.1018 -298.500101367930199 2.79438e-19 2.59757462733731792 0.217233 0 0.000182954
504 2 3 31.1018 -295.500101367930426 2.76587e-19 2.59757462707571918 0.214983 0 0.000245336
505 2 3 31.1018 -292.500101367930654 2.73735e-19 2.59757462681412044 0.212732 0 0.000307716
506 2 3 31.1018 -289.500101367930881 2.70884e-19 2.59757462655252169 0.210482 0 0.000370097
507 2 3 31.1018 -286.500101367931109 2.68033e-19 2.59757462629092295 0.208232 0 0.000432477
508 2 3 31.1018 -283.500101367931393 2.65181e-19 2.59757462602932421 0.205982 0 0.000494863
509 2 3 31.1018 -280.50010136793162 2.6233e-19 2.59757462576772546 0.203732 0 0.000557243
510 2 3 31.1018 -277.500101367931848 2.59478e-19 2.59757462550612672 0.201482 0 0.000619623
511 2 3 31.1018 -274.500101367932075 2.56627e-19 2.59757462524452798 0.199232 0 0.000682003
512 2 3 31.1018 -271.500101367932302 2.53776e-19 2.59757462498292924 0.196982 0 0.000744381
513 2 3 31.1018 -268.50010136793253 2.50924e-19 2.59757462472133049 0.194732 0 0.00080676
514 2 3 31.1018 -265.500101367932757 2.48073e-19 2.59757462445973175 0.192482 0 0.000869139
515 2 3 31.1018 -262.500101367932984 2.45221e-19 2.59757462419813301 0.190232 0 0.000931588
516 2 3 31.1018 -259.500101367933212 2.4237e-19 2.59757462393653427 0.187982 0 0.000994173
517 2 3 31.1018 -256.500101367933439 2.39518e-19 2.59757462367493552 0.185733 0 0.00105675
518 2 3 31.1018 -253.500101367933667 2.36667e-19 2.59757462341333678 0.183483 0 0.00111934
519 2 3 31.1018 -250.500101367933894 2.33816e-19 2.59757462315173804 0.181233 0 0.00118192
520 2 3 31.1018 -247.50010136793415 2.30964e-19 2.5975746228901393 0.178984 0 0.00124451
521 2 3 31.1018 -244.500101367934377 2.28113e-19 2.59757462262854055 0.176734 0 0.00130709
522 2 3 31.1018 -241.500101367934604 2.25261e-19 2.59757462236694181 0.174483 0 0.00137007
523 2 3 31.1018 -238.500101367934832 2.2241e-19 2.59757462210534307 0.172233 0 0.00143323
524 2 3 31.1018 -235.500101367935059 2.19559e-19 2.59757462184374432 0.169982 0 0.00149638
525 2 3 31.1018 -232.500101367935315 2.16707e-19 2.59757462158214558 0.167731 0 0.00155955
526 2 3 31.1018 -229.500101367935542 2.13856e-19 2.59757462132054684 0.165481 0 0.0016227
527 2 3 31.1018 -226.50010136793577 2.11004e-19 2.5975746210589481 0.16323 0 0.00168586
528 2 3 31.1018 -223.500101367935997 2.08153e-19 2.59757462079734935 0.160979 0 0.00174902
529 2 3 31.1018 -220.500101367936225 2.05302e-19 2.59757462053575061 0.158728 0 0.00181218
530 2 3 31.1018 -217.50010136793648 2.0245e-19 2.59757462027415187 0.156478 0 0.00187534
531 2 3 31.1018 -214.500101367936708 1.99599e-19 2.59757462001255313 0.154227 0 0.0019385
532 2 3 31.1018 -211.500101367936935 1.96747e-19 2.59757461975095438 0.151976 0 0.00200165
533 2 3 31.1018 -208.500101367937162 1.93896e-19 2.59757461948935564 0.149725 0 0.00206481
534 2 3 31.1018 -205.50010136793739 1.91044e-19 2.5975746192277569 0.147475 0 0.00212797
535 2 3 31.1018 -202.500101367937646 1.88193e-19 2.59757461896615816 0.145224 0 0.00219113
536 2 3 31.1018 -199.500101367937873 1.85342e-19 2.59757461870455941 0.142973 0 0.00225428
537 2 3 31.1018 -196.5001013679381 1.8249e-19 2.59757461844296067 0.140723 0 0.00231744
538 2 3 31.1018 -193.500101367938328 1.79639e-19 2.59757461818136193 0.138472 0 0.0023806
539 2 3 31.1018 -190.500101367938555 1.76787e-19 2.59757461791976318 0.136221 0 0.00244375
540 2 3 31.1018 -187.500101367938811 1.73936e-19 2.59757461765816444 0.13397 0 0.00250691
541 2 3 31.1018 -184.500101367939038 1.71085e-19 2.5975746173965657 0.13172 0 0.00257006
542 2 3 31.1018 -181.500101367939266 1.68233e-19 2.59757461713496696 0.129469 0 0.00263322
543 2 3 31.1018 -178.500101367939493 1.65382e-19 2.59757461687336821 0.127218 0 0.00269637
544 2 3 31.1018 -175.50010136793972 1.6253e-19 2.59757461661176947 0.124967 0 0.00275953
545 2 3 31.1018 -172.500101367939976 1.59679e-19 2.59757461635017073 0.122717 0 0.00282268
546 2 3 31.1018 -169.500101367940204 1.56828e-19 2.59757461608857199 0.120466 0 0.00288584
547 2 3 31.1018 -166.500101367940431 1.53976e-19 2.59757461582697324 0.118215 0 0.00294899
548 2 3 31.1018 -163.500101367940658 1.51125e-19 2.5975746155653745 0.115964 0 0.00301214
549 2 3 31.1018 -160.500101367940886 1.48273e-19 2.59757461530377576 0.113714 0 0.0030753
550 2 3 31.1018 -157.500101367941141 1.45422e-19 2.59757461504217702 0.111463 0 0.00313845
551 2 3 31.1018 -154.500101367941369 1.42571e-19 2.59757461478057827 0.109212 0 0.00320161
552 2 3 31.1018 -151.500101367941596 1.39719e-19 2.59757461451897953 0.106961 0 0.00326476
553 2 3 31.1018 -148.500101367941824 1.36868e-19 2.59757461425738079 0.104711 0 0.00332791
554 2 3 31.1018 -145.500101367942051 1.34016e-19 2.59757461399578204 0.10246 0 0.00339106
555 2 3 31.1018 -142.500101367942307 1.31165e-19 2.5975746137341833 0.100209 0 0.00345422
556 2 3 31.1018 -139.500101367942534 1.28313e-19 2.59757461347258456 0.0979584 0 0.00351737
557 2 3 31.1018 -136.500101367942761 1.25462e-19 2.59757461321098582 0.0957076 0 0.00358052
558 2 3 31.1018 -133.500101367942989 1.22611e-19 2.59757461294938707 0.0934568 0 0.00364367
559 2 3 31.1018 -130.500101367943245 1.19759e-19 2.59757461268778833 0.0912061 0 0.00370682
560 2 3 31.1018 -127.500101367943472 1.16908e-19 2.59757461242618959 0.0889553 0 0.00376997
561 2 3 31.1018 -124.500101367943714 1.14056e-19 2.59757461216459085 0.0867046 0 0.00383312
562 2 3 31.1018 -121.500101367943941 1.11205e-19 2.5975746119029921 0.0844538 0 0.00389627
563 2 3 31.1018 -118.500101367944183 1.08354e-19 2.59757461164139336 0.082203 0 0.00395942
564 2 3 31.1018 -115.50010136794441 1.05502e-19 2.59757461137979462 0.0799523 0 0.00402257
565 2 3 31.1018 -112.500101367944637 1.02651e-19 2.59757461111819588 0.0777015 0 0.00408572
566 2 3 31.1018 -109.500101367944879 9.97994e-20 2.59757461085659713 0.0754507 0 0.00414887
567 2 3 31.1018 -106.500101367945106 9.6948e-20 2.59757461059499839 0.0732 0 0.00421202
568 2 3 31.1018 -103.500101367945348 9.40965e-20 2.59757461033339965 0.0709492 0 0.00427517
569 2 3 31.1018 -100.500101367945575 9.12451e-20 2.5975746100718009 0.0686984 0 0.00433832
570 2 3 31.1018 -97.5001013679458026 8.83937e-20 2.59757460981020216 0.0664476 0 0.00440146
571 2 3 31.1018 -94.5001013679460442 8.55423e-20 2.59757460954860342 0.0641969 0 0.00446461
572 2 3 31.1018 -91.5001013679462716 8.26909e-20 2.59757460928700468 0.0619461 0 0.00452776
573 2 3 31.1018 -88.5001013679465132 7.98395e-20 2.59757460902540593 0.0596953 0 0.00459091
574 2 3 31.1018 -85.5001013679467405 7.69881e-20 2.59757460876380719 0.0574445 0 0.00465405
575 2 3 31.1018 -82.5001013679469679 7.41367e-20 2.59757460850220845 0.0551937 0 0.0047172
576 2 3 31.1018 -79.5001013679472095 7.12853e-20 2.59757460824060971 0.052943 0 0.00478035
577 2 3 31.1018 -76.5001013679474369 6.84338e-20 2.59757460797901096 0.0506922 0 0.00484349
578 2 3 31.1018 -73.5001013679476785 6.55824e-20 2.59757460771741222 0.0484414 0 0.00490664
579 2 3 31.1018 -70.5001013679479058 6.2731e-20 2.59757460745581348 0.0461906 0 0.00496979
580 2 3 31.1018 -67.5001013679481474 5.98796e-20 2.59757460719421474 0.0439398 0 0.00503293
581 2 3 31.1018 -64.5001013679483748 5.70282e-20 2.59757460693261599 0.041689 0 0.00509608
582 2 3 31.1018 -61.5001013679486164 5.41768e-20 2.59757460667101725 0.0394382 0 0.00515923
583 2 3 31.1018 -58.5001013679488437 5.13254e-20 2.59757460640941851 0.0371874 0 0.00522237
584 2 3 31.1018 -55.5001013679490782 4.8474e-20 2.59757460614781976 0.0349366 0 0.00528551
585 2 3 31.1018 -52.5001013679493127 4.56226e-20 2.59757460588622102 0.0326859 0 0.00534866
586 2 3 31.1018 -49.5001013679495472 4.27712e-20 2.59757460562462228 0.0304351 0 0.0054118
587 2 3 31.1018 -46.5001013679497817 3.99197e-20 2.59757460536302354 0.0281843 0 0.00547495
588 2 3 31.1018 -43.500101367950009 3.70683e-20 2.59757460510142479 0.0259332 0 0.00553823
589 2 3 31.1018 -40.5001013679502435 3.42169e-20 2.59757460483982605 0.0236814 0 0.00560195
590 2 3 31.1018 -37.500101367950478 3.13655e-20 2.59757460457822731 0.0214296 0 0.00566567
591 2 3 31.1018 -34.5001013679507054 2.85141e-20 2.59757460431662857 0.0191778 0 0.00572939
592 2 3 31.1018 -31.5001013679509398 2.56627e-20 2.59757460405502982 0.016926 0 0.00579311
593 2 3 31.1018 -28.5001013679511743 2.28113e-20 2.59757460379343108 0.0146742 0 0.00585683
594 2 3 31.1018 -25.5001013679514088 1.99599e-20 2.59757460353183234 0.0124224 0 0.00592055
595 2 3 31.1018 -22.5001013679516397 1.71085e-20 2.5975746032702336 0.0101706 0 0.00598426
596 2 3 31.1018 -19.5001013679518742 1.42571e-20 2.59757460300863485 0.00791879 0 0.00604798
597 2 3 31.1018 -16.5001013679521051 1.14056e-20 2.59757460274703611 0.00566698 0 0.0061117
598 2 3 31.1018 -13.5001013679523396 8.55423e-21 2.59757460248543737 0.00341517 0 0.00617542
599 2 3 31.1018 -10.5001013679525741 5.70282e-21 2.59757460222383862 0.00116336 0 0.00623913
600 2 3 31.1018 -7.5001013679528068 2.85141e-21 2.59757460196223988 -0.00108845 0 0.00630285
601 2 3 31.1018 -4.5001013679530395 -1.56167e-35 2.59757460170064114 -0.00334027 0 0.00636657
602 2 3 31.1018 -1.50010136795327265 -2.85141e-21 2.5975746014390424 -0.00559208 0 0.00643029
226 1 3 31.1018 0 0 0 0 0 0
227 1 3 31.1018 3 0 0 0 0 0
228 1 3 31.1018 6 0 0 0 0 0
229 1 3 31.1018 9 0 0 0 0 0
230 1 3 31.1018 12 0 0 0 0 0
231 1 3 31.1018 15 0 0 0 0 0
232 1 3 31.1018 18 0 0 0 0 0
233 1 3 31.1018 21 0 0 0 0 0
234 1 3 31.1018 24 0 0 0 0 0
235 1 3 31.1018 27 0 0 0 0 0
236 1 3 31.1018 30 0 0 0 0 0
237 1 3 31.1018 33 0 0 0 0 0
238 1 3 31.1018 36 0 0 0 0 0
239 1 3 31.1018 39 0 0 0 0 0
240 1 3 31.1018 42 0 0 0 0 0
241 1 3 31.1018 45 0 0 0 0 0
242 1 3 31.1018 48 0 0 0 0 0
243 1 3 31.1018 51 0 0 0 0 0
244 1 3 31.1018 54 0 0 0 0 0
245 1 3 31.1018 57 0 0 0 0 0
246 1 3 31.1018 60 0 0 0 0 0
247 1 3 31.1018 63 0 0 0 0 0
248 1 3 31.1018 66 0 0 0 0 0
249 1 3 31.1018 69 0 0 0 0 0
250 1 3 31.1018 72 0 0 0 0 0
251 1 3 31.1018 75 0 0 0 0 0
252 1 3 31.1018 78 0 0 0 0 0
253 1 3 31.1018 81 0 0 0 0 0
254 1 3 31.1018 84 0 0 0 0 0
255 1 3 31.1018 87 0 0 0 0 0
256 1 3 31.1018 90 0 0 0 0 0
257 1 3 31.1018 93 0 0 0 0 0
258 1 3 31.1018 96 0 0 0 0 0
259 1 3 31.1018 99 0 0 0 0 0
260 1 3 31.1018 102 0 0 0 0 0
261 1 3 31.1018 105 0 0 0 0 0
262 1 3 31.1018 108 0 0 0 0 0
263 1 3 31.1018 111 0 0 0 0 0
264 1 3 31.1018 114 0 0 0 0 0
265 1 3 31.1018 117 0 0 0 0 0
266 1 3 31.1018 120 0 0 0 0 0
267 1 3 31.1018 123 0 0 0 0 0
268 1 3 31.1018 126 0 0 0 0 0
269 1 3 31.1018 129 0 0 0 0 0
270 1 3 31.1018 132 0 0 0 0 0
271 1 3 31.1018 135 0 0 0 0 0
272 1 3 31.1018 138 0 0 0 0 0
273 1 3 31.1018 141 0 0 0 0 0
274 1 3 31.1018 144 0 0 0 0 0
275 1 3 31.1018 147 0 0 0 0 0
276 1 3 31.1018 150 0 0 0 0 0
277 1 3 31.1018 153 0 0 0 0 0
278 1 3 31.1018 156 0 0 0 0 0
279 1 3 31.1018 159 0 0 0 0 0
280 1 3 31.1018 162 0 0 0 0 0
281 1 3 31.1018 165 0 0 0 0 0
282 1 3 31.1018 168 0 0 0 0 0
283 1 3 31.1018 171 0 0 0 0 0
284 1 3 31.1018 174 0 0 0 0 0
285 1 3 31.1018 177 0 0 0 0 0
286 1 3 31.1018 180 0 0 0 0 0
287 1 3 31.1018 183 0 0 0 0 0
288 1 3 31.1018 186 0 0 0 0 0
289 1 3 31.1018 189 0 0 0 0 0
290 1 3 31.1018 192 0 0 0 0 0
291 1 3 31.1018 195 0 0 0 0 0
292 1 3 31.1018 198 0 0 0 0 0
293 1 3 31.1018 201 0 0 0 0 0
294 1 3 31.1018 204 0 0 0 0 0
295 1 3 31.1018 207 0 0 0 0 0
296 1 3 31.1018 210 0 0 0 0 0
297 1 3 31.1018 213 0 0 0 0 0
298 1 3 31.1018 216 0 0 0 0 0
299 1 3 31.1018 219 0 0 0 0 0
300 1 3 31.1018 222 0 0 0 0 0
301 1 3 31.1018 225 0 0 0 0 0
302 1 3 31.1018 228 0 0 0 0 0
303 1 3 31.1018 231 0 0 0 0 0
304 1 3 31.1018 234 0 0 0 0 0
305 1 3 31.1018 237 0 0 0 0 0
306 1 3 31.1018 240 0 0 0 0 0
307 1 3 31.1018 243 0 0 0 0 0
308 1 3 31.1018 246 0 0 0 0 0
309 1 3 31.1018 249 0 0 0 0 0
310 1 3 31.1018 252 0 0 0 0 0
311 1 3 31.1018 255 0 0 0 0 0
312 1 3 31.1018 258 0 0 0 0 0
313 1 3 31.1018 261 0 0 0 0 0
314 1 3 31.1018 264 0 0 0 0 0
315 1 3 31.1018 267 0 0 0 0 0
316 1 3 31.1018 270 0 0 0 0 0
317 1 3 31.1018 273 0 0 0 0 0
318 1 3 31.1018 276 0 0 0 0 0
319 1 3 31.1018 279 0 0 0 0 0
320 1 3 31.1018 282 0 0 0 0 0
321 1 3 31.1018 285 0 0 0 0 0
322 1 3 31.1018 288 0 0 0 0 0
323 1 3 31.1018 291 0 0 0 0 0
324 1 3 31.1018 294 0 0 0 0 0
325 1 3 31.1018 297 0 0 0 0 0
326 1 3 31.1018 300 0 0 0 0 0
327 1 3 31.1018 303 0 0 0 0 0
328 1 3 31.1018 306 0 0 0 0 0
329 1 3 31.1018 309 0 0 0 0 0
330 1 3 31.1018 312 0 0 0 0 0
331 1 3 31.1018 315 0 0 0 0 0
332 1 3 31.1018 318 0 0 0 0 0
333 1 3 31.1018 321 0 0 0 0 0
334 1 3 31.1018 324 0 0 0 0 0
335 1 3 31.1018 327 0 0 0 0 0
336 1 3 31.1018 330 0 0 0 0 0
337 1 3 31.1018 333 0 0 0 0 0
338 1 3 31.1018 336 0 0 0 0 0
603 2 3 31.1018 1.49989863204649421 -5.70282e-21 2.59757460117744365 -0.0078439 0 0.006494
604 2 3 31.1018 4.49989863204625973 -8.55423e-21 2.59757460091584491 -0.0100957 0 0.00655772
605 2 3 31.1018 7.49989863204602702 -1.14056e-20 2.59757460065424617 -0.0123475 0 0.00662143
606 2 3 31.1018 10.4998986320457952 -1.42571e-20 2.59757460039264743 -0.0145994 0 0.00668515
607 2 3 31.1018 13.4998986320455607 -1.71085e-20 2.59757460013104868 -0.0168512 0 0.00674887
608 2 3 31.1018 16.4998986320453298 -1.99599e-20 2.59757459986944994 -0.019103 0 0.00681258
609 2 3 31.1018 19.4998986320450953 -2.28113e-20 2.5975745996078512 -0.0213548 0 0.00687629
610 2 3 31.1018 22.4998986320448608 -2.56627e-20 2.59757459934625246 -0.0236067 0 0.00694001
611 2 3 31.1018 25.4998986320446299 -2.85141e-20 2.59757459908465371 -0.0258585 0 0.00700372
612 2 3 31.1018 28.499898632044399 -3.13655e-20 2.59757459882305497 -0.0281103 0 0.00706744
613 2 3 31.1018 31.4998986320441645 -3.42169e-20 2.59757459856145623 -0.0303621 0 0.00713115
614 2 3 31.1018 34.4998986320439229 -3.70683e-20 2.59757459829985748 -0.032614 0 0.00719487
615 2 3 31.1018 37.4998986320436956 -3.99197e-20 2.59757459803825874 -0.0348658 0 0.00725858
616 2 3 31.1018 40.4998986320434611 -4.27712e-20 2.59757459777666 -0.0371176 0 0.00732229
617 2 3 31.1018 43.4998986320432266 -4.56226e-20 2.59757459751506126 -0.0393695 0 0.007386
618 2 3 31.1018 46.4998986320429921 -4.8474e-20 2.59757459725346251 -0.0416213 0 0.00744972
619 2 3 31.1018 49.4998986320427576 -5.13254e-20 2.59757459699186377 -0.0438731 0 0.00751343
620 2 3 31.1018 52.4998986320425303 -5.41768e-20 2.59757459673026503 -0.046125 0 0.00757714
621 2 3 31.1018 55.4998986320422958 -5.70282e-20 2.59757459646866629 -0.0483768 0 0.00764085
622 2 3 31.1018 58.4998986320420613 -5.98796e-20 2.59757459620706754 -0.0506287 0 0.00770456
623 2 3 31.1018 61.4998986320418268 -6.2731e-20 2.5975745959454688 -0.0528805 0 0.00776828
624 2 3 31.1018 64.4998986320416066 -6.55824e-20 2.59757459568387006 -0.0551324 0 0.00783199
625 2 3 31.1018 67.499898632041365 -6.84338e-20 2.59757459542227132 -0.0573842 0 0.0078957
626 2 3 31.1018 70.4998986320411376 -7.12853e-20 2.59757459516067257 -0.059636 0 0.00795941
627 2 3 31.1018 73.499898632040896 -7.41367e-20 2.59757459489907383 -0.0618879 0 0.00802312
628 2 3 31.1018 76.4998986320406686 -7.69881e-20 2.59757459463747509 -0.0641397 0 0.00808683
629 2 3 31.1018 79.4998986320404413 -7.98395e-20 2.59757459437587634 -0.0663916 0 0.00815054
630 2 3 31.1018 82.4998986320401997 -8.26909e-20 2.5975745941142776 -0.0686434 0 0.00821425
631 2 3 31.1018 85.4998986320399723 -8.55423e-20 2.59757459385267886 -0.0708953 0 0.00827796
632 2 3 31.1018 88.4998986320397307 -8.83937e-20 2.59757459359108012 -0.0731471 0 0.00834167
633 2 3 31.1018 91.4998986320395034 -9.12451e-20 2.59757459332948137 -0.075399 0 0.00840537
634 2 3 31.1018 94.499898632039276 -9.40965e-20 2.59757459306788263 -0.0776509 0 0.00846908
635 2 3 31.1018 97.4998986320390344 -9.6948e-20 2.59757459280628389 -0.0799027 0 0.00853279
636 2 3 31.1018 100.499898632038807 -9.97994e-20 2.59757459254468515 -0.0821546 0 0.0085965
637 2 3 31.1018 103.499898632038565 -1.02651e-19 2.5975745922830864 -0.0844064 0 0.00866021
638 2 3 31.1018 106.499898632038338 -1.05502e-19 2.59757459202148766 -0.0866583 0 0.00872391
639 2 3 31.1018 109.499898632038111 -1.08354e-19 2.59757459175988892 -0.0889098 0 0.00878783
640 2 3 31.1018 112.499898632037869 -1.11205e-19 2.59757459149829018 -0.0911613 0 0.00885176
641 2 3 31.1018 115.499898632037642 -1.14056e-19 2.59757459123669143 -0.0934128 0 0.00891568
642 2 3 31.1018 118.4998986320374 -1.16908e-19 2.59757459097509269 -0.0956643 0 0.00897961
643 2 3 31.1018 121.499898632037173 -1.19759e-19 2.59757459071349395 -0.0979158 0 0.00904353
644 2 3 31.1018 124.499898632036945 -1.22611e-19 2.5975745904518952 -0.100167 0 0.00910745
645 2 3 31.1018 127.499898632036718 -1.25462e-19 2.59757459019029646 -0.102419 0 0.00917137
646 2 3 31.1018 130.499898632036491 -1.28313e-19 2.59757458992869772 -0.10467 0 0.0092353
647 2 3 31.1018 133.499898632036263 -1.31165e-19 2.59757458966709898 -0.106922 0 0.00929922
648 2 3 31.1018 136.499898632036007 -1.34016e-19 2.59757458940550023 -0.109173 0 0.00936314
649 2 3 31.1018 139.49989863203578 -1.36868e-19 2.59757458914390149 -0.111425 0 0.00942706
650 2 3 31.1018 142.499898632035553 -1.39719e-19 2.59757458888230275 -0.113676 0 0.00949099
651 2 3 31.1018 145.499898632035325 -1.42571e-19 2.59757458862070401 -0.115928 0 0.00955491
652 2 3 31.1018 148.499898632035098 -1.45422e-19 2.59757458835910526 -0.118179 0 0.00961883
653 2 3 31.1018 151.499898632034842 -1.48273e-19 2.59757458809750652 -0.120431 0 0.00968275
654 2 3 31.1018 154.499898632034615 -1.51125e-19 2.59757458783590778 -0.122682 0 0.00974667
655 2 3 31.1018 157.499898632034387 -1.53976e-19 2.59757458757430904 -0.124934 0 0.00981093
656 2 3 31.1018 160.49989863203416 -1.56828e-19 2.59757458731271029 -0.127187 0 0.00987542
657 2 3 31.1018 163.499898632033933 -1.59679e-19 2.59757458705111155 -0.129439 0 0.00993992
658 2 3 31.1018 166.499898632033677 -1.6253e-19 2.59757458678951281 -0.131692 0 0.0100044
659 2 3 31.1018 169.49989863203345 -1.65382e-19 2.59757458652791406 -0.133944 0 0.0100689
660 2 3 31.1018 172.499898632033222 -1.68233e-19 2.59757458626631532 -0.136197 0 0.0101334
661 2 3 31.1018 175.499898632032995 -1.71085e-19 2.59757458600471658 -0.138449 0 0.0101979
662 2 3 31.1018 178.499898632032767 -1.73936e-19 2.59757458574311784 -0.140702 0 0.0102624
663 2 3 31.1018 181.499898632032512 -1.76787e-19 2.59757458548151909 -0.142954 0 0.0103269