ITEM: TIMESTEP
900000
ITEM: NUMBER OF ATOMS
2501
ITEM: BOX BOUNDS pp pp pp
-5.1075000000000000e+03 5.1075000000000000e+03
-1.0000000000000000e+02 1.0000000000000000e+02
-1.0000000000000000e+02 1.0000000000000000e+02
ITEM: ATOMS id type diameter mass xu yu zu fx fy fz
1 1 3 31.1018 -5107.5 0 0 0 0 0
2 1 3 31.1018 -5100.69 0 0 0 0 0
3 1 3 31.1018 -5093.88 0 0 0 0 0
4 1 3 31.1018 -5087.07 0 0 0 0 0
5 1 3 31.1018 -5080.26 0 0 0 0 0
6 1 3 31.1018 -5073.45 0 0 0 0 0
7 1 3 31.1018 -5066.64 0 0 0 0 0
8 1 3 31.1018 -5059.83 0 0 0 0 0
9 1 3 31.1018 -5053.02 0 0 0 0 0
10 1 3 31.1018 -5046.21 0 0 0 0 0
11 1 3 31.1018 -5039.4 0 0 0 0 0
12 1 3 31.1018 -5032.59 0 0 0 0 0
13 1 3 31.1018 -5025.78 0 0 0 0 0
14 1 3 31.1018 -5018.97 0 0 0 0 0
15 1 3 31.1018 -5012.16 0 0 0 0 0
16 1 3 31.1018 -5005.35 0 0 0 0 0
17 1 3 31.1018 -4998.54 0 0 0 0 0
18 1 3 31.1018 -4991.73 0 0 0 0 0
19 1 3 31.1018 -4984.92 0 0 0 0 0
20 1 3 31.1018 -4978.11 0 0 0 0 0
21 1 3 31.1018 -4971.3 0 0 0 0 0
22 1 3 31.1018 -4964.49 0 0 0 0 0
23 1 3 31.1018 -4957.68 0 0 0 0 0
24 1 3 31.1018 -4950.87 0 0 0 0 0
25 1 3 31.1018 -4944.06 0 0 0 0 0
26 1 3 31.1018 -4937.25 0 0 0 0 0
27 1 3 31.1018 -4930.44 0 0 0 0 0
28 1 3 31.1018 -4923.63 0 0 0 0 0
29 1 3 31.1018 -4916.82 0 0 0 0 0
30 1 3 31.1018 -4910.01 0 0 0 0 0
31 1 3 31.1018 -4903.2 0 0 0 0 0
32 1 3 31.1018 -4896.39 0 0 0 0 0
33 1 3 31.1018 -4889.58 0 0 0 0 0
34 1 3 31.1018 -4882.77 0 0 0 0 0
35 1 3 31.1018 -4875.96 0 0 0 0 0
36 1 3 31.1018 -4869.15 0 0 0 0 0
37 1 3 31.1018 -4862.34 0 0 0 0 0
38 1 3 31.1018 -4855.53 0 0 0 0 0
39 1 3 31.1018 -4848.72 0 0 0 0 0
40 1 3 31.1018 -4841.91 0 0 0 0 0
41 1 3 31.1018 -4835.1 0 0 0 0 0
42 1 3 31.1018 -4828.29 0 0 0 0 0
43 1 3 31.1018 -4821.48 0 0 0 0 0
44 1 3 31.1018 -4814.67 0 0 0 0 0
45 1 3 31.1018 -4807.86 0 0 0 0 0
46 1 3 31.1018 -4801.05 0 0 0 0 0
47 1 3 31.1018 -4794.24 0 0 0 0 0
48 1 3 31.1018 -4787.43 0 0 0 0 0
49 1 3 31.1018 -4780.62 0 0 0 0 0
50 1 3 31.1018 -4773.81 0 0 0 0 0
51 1 3 31.1018 -4767 0 0 0 0 0
52 1 3 31.1018 -4760.19 0 0 0 0 0
53 1 3 31.1018 -4753.38 0 0 0 0 0
54 1 3 31.1018 -4746.57 0 0 0 0 0
55 1 3 31.1018 -4739.76 0 0 0 0 0
56 1 3 31.1018 -4732.95 0 0 0 0 0
57 1 3 31.1018 -4726.14 0 0 0 0 0
58 1 3 31.1018 -4719.33 0 0 0 0 0
59 1 3 31.1018 -4712.52 0 0 0 0 0
60 1 3 31.1018 -4705.71 0 0 0 0 0
61 1 3 31.1018 -4698.9 0 0 0 0 0
62 1 3 31.1018 -4692.09 0 0 0 0 0
63 1 3 31.1018 -4685.28 0 0 0 0 0
64 1 3 31.1018 -4678.47 0 0 0 0 0
65 1 3 31.1018 -4671.66 0 0 0 0 0
66 1 3 31.1018 -4664.85 0 0 0 0 0
67 1 3 31.1018 -4658.04 0 0 0 0 0
68 1 3 31.1018 -4651.23 0 0 0 0 0
69 1 3 31.1018 -4644.42 0 0 0 0 0
70 1 3 31.1018 -4637.61 0 0 0 0 0
71 1 3 31.1018 -4630.8 0 0 0 0 0
72 1 3 31.1018 -4623.99 0 0 0 0 0
73 1 3 31.1018 -4617.18 0 0 0 0 0
74 1 3 31.1018 -4610.37 0 0 0 0 0
75 1 3 31.1018 -4603.56 0 0 0 0 0
76 1 3 31.1018 -4596.75 0 0 0 0 0
77 1 3 31.1018 -4589.94 0 0 0 0 0
78 1 3 31.1018 -4583.13 0 0 0 0 0
79 1 3 31.1018 -4576.32 0 0 0 0 0
80 1 3 31.1018 -4569.51 0 0 0 0 0
81 1 3 31.1018 -4562.7 0 0 0 0 0
82 1 3 31.1018 -4555.89 0 0 0 0 0
83 1 3 31.1018 -4549.08 0 0 0 0 0
84 1 3 31.1018 -4542.27 0 0 0 0 0
85 1 3 31.1018 -4535.46 0 0 0 0 0
86 1 3 31.1018 -4528.65 0 0 0 0 0
87 1 3 31.1018 -4521.84 0 0 0 0 0
88 1 3 31.1018 -4515.03 0 0 0 0 0
89 1 3 31.1018 -4508.22 0 0 0 0 0
90 1 3 31.1018 -4501.41 0 0 0 0 0
91 1 3 31.1018 -4494.6 0 0 0 0 0
92 1 3 31.1018 -4487.79 0 0 0 0 0
93 1 3 31.1018 -4480.98 0 0 0 0 0
94 1 3 31.1018 -4474.17 0 0 0 0 0
95 1 3 31.1018 -4467.36 0 0 0 0 0
96 1 3 31.1018 -4460.55 0 0 0 0 0
97 1 3 31.1018 -4453.74 0 0 0 0 0
98 1 3 31.1018 -4446.93 0 0 0 0 0
99 1 3 31.1018 -4440.12 0 0 0 0 0
100 1 3 31.1018 -4433.31 0 0 0 0 0
101 1 3 31.1018 -4426.5 0 0 0 0 0
102 1 3 31.1018 -4419.69 0 0 0 0 0
103 1 3 31.1018 -4412.88 0 0 0 0 0
104 1 3 31.1018 -4406.07 0 0 0 0 0
105 1 3 31.1018 -4399.26 0 0 0 0 0
106 1 3 31.1018 -4392.45 0 0 0 0 0
107 1 3 31.1018 -4385.64 0 0 0 0 0
108 1 3 31.1018 -4378.83 0 0 0 0 0
109 1 3 31.1018 -4372.02 0 0 0 0 0
110 1 3 31.1018 -4365.21 0 0 0 0 0
111 1 3 31.1018 -4358.4 0 0 0 0 0
112 1 3 31.1018 -4351.59 0 0 0 0 0
113 1 3 31.1018 -4344.78 0 0 0 0 0
114 1 3 31.1018 -4337.97 0 0 0 0 0
115 1 3 31.1018 -4331.16 0 0 0 0 0
116 1 3 31.1018 -4324.35 0 0 0 0 0
117 1 3 31.1018 -4317.54 0 0 0 0 0
118 1 3 31.1018 -4310.73 0 0 0 0 0
119 1 3 31.1018 -4303.92 0 0 0 0 0
120 1 3 31.1018 -4297.11 0 0 0 0 0
121 1 3 31.1018 -4290.3 0 0 0 0 0
122 1 3 31.1018 -4283.49 0 0 0 0 0
123 1 3 31.1018 -4276.68 0 0 0 0 0
124 1 3 31.1018 -4269.87 0 0 0 0 0
125 1 3 31.1018 -4263.06 0 0 0 0 0
126 1 3 31.1018 -4256.25 0 0 0 0 0
127 1 3 31.1018 -4249.44 0 0 0 0 0
128 1 3 31.1018 -4242.63 0 0 0 0 0
129 1 3 31.1018 -4235.82 0 0 0 0 0
130 1 3 31.1018 -4229.01 0 0 0 0 0
131 1 3 31.1018 -4222.2 0 0 0 0 0
132 1 3 31.1018 -4215.39 0 0 0 0 0
133 1 3 31.1018 -4208.58 0 0 0 0 0
134 1 3 31.1018 -4201.77 0 0 0 0 0
135 1 3 31.1018 -4194.96 0 0 0 0 0
136 1 3 31.1018 -4188.15 0 0 0 0 0
137 1 3 31.1018 -4181.34 0 0 0 0 0
138 1 3 31.1018 -4174.53 0 0 0 0 0
139 1 3 31.1018 -4167.72 0 0 0 0 0
140 1 3 31.1018 -4160.91 0 0 0 0 0
141 1 3 31.1018 -4154.1 0 0 0 0 0
142 1 3 31.1018 -4147.29 0 0 0 0 0
143 1 3 31.1018 -4140.48 0 0 0 0 0
144 1 3 31.1018 -4133.67 0 0 0 0 0
145 1 3 31.1018 -4126.86 0 0 0 0 0
146 1 3 31.1018 -4120.05 0 0 0 0 0
147 1 3 31.1018 -4113.24 0 0 0 0 0
148 1 3 31.1018 -4106.43 0 0 0 0 0
149 1 3 31.1018 -4099.62 0 0 0 0 0
150 1 3 31.1018 -4092.81 0 0 0 0 0
151 1 3 31.1018 -4086 0 0 0 0 0
152 1 3 31.1018 -4079.19 0 0 0 0 0
153 1 3 31.1018 -4072.38 0 0 0 0 0
154 1 3 31.1018 -4065.57 0 0 0 0 0
155 1 3 31.1018 -4058.76 0 0 0 0 0
156 1 3 31.1018 -4051.95 0 0 0 0 0
157 1 3 31.1018 -4045.14 0 0 0 0 0
158 1 3 31.1018 -4038.33 0 0 0 0 0
159 1 3 31.1018 -4031.52 0 0 0 0 0
160 1 3 31.1018 -4024.71 0 0 0 0 0
161 1 3 31.1018 -4017.9 0 0 0 0 0
162 1 3 31.1018 -4011.09 0 0 0 0 0
163 1 3 31.1018 -4004.28 0 0 0 0 0
164 1 3 31.1018 -3997.47 0 0 0 0 0
165 1 3 31.1018 -3990.66 0 0 0 0 0
166 1 3 31.1018 -3983.85 0 0 0 0 0
167 1 3 31.1018 -3977.04 0 0 0 0 0
168 1 3 31.1018 -3970.23 0 0 0 0 0
169 1 3 31.1018 -3963.42 0 0 0 0 0
170 1 3 31.1018 -3956.61 0 0 0 0 0
171 1 3 31.1018 -3949.8 0 0 0 0 0
172 1 3 31.1018 -3942.99 0 0 0 0 0
173 1 3 31.1018 -3936.18 0 0 0 0 0
174 1 3 31.1018 -3929.37 0 0 0 0 0
175 1 3 31.1018 -3922.56 0 0 0 0 0
176 1 3 31.1018 -3915.75 0 0 0 0 0
177 1 3 31.1018 -3908.94 0 0 0 0 0
178 1 3 31.1018 -3902.13 0 0 0 0 0
179 1 3 31.1018 -3895.32 0 0 0 0 0
180 1 3 31.1018 -3888.51 0 0 0 0 0
181 1 3 31.1018 -3881.7 0 0 0 0 0
182 1 3 31.1018 -3874.89 0 0 0 0 0
183 1 3 31.1018 -3868.08 0 0 0 0 0
184 1 3 31.1018 -3861.27 0 0 0 0 0
185 1 3 31.1018 -3854.46 0 0 0 0 0
186 1 3 31.1018 -3847.65 0 0 0 0 0
187 1 3 31.1018 -3840.84 0 0 0 0 0
188 1 3 31.1018 -3834.03 0 0 0 0 0
189 1 3 31.1018 -3827.22 0 0 0 0 0
190 1 3 31.1018 -3820.41 0 0 0 0 0
191 1 3 31.1018 -3813.6 0 0 0 0 0
192 1 3 31.1018 -3806.79 0 0 0 0 0
193 1 3 31.1018 -3799.98 0 0 0 0 0
194 1 3 31.1018 -3793.17 0 0 0 0 0
195 1 3 31.1018 -3786.36 0 0 0 0 0
196 1 3 31.1018 -3779.55 0 0 0 0 0
197 1 3 31.1018 -3772.74 0 0 0 0 0
198 1 3 31.1018 -3765.93 0 0 0 0 0
199 1 3 31.1018 -3759.12 0 0 0 0 0
200 1 3 31.1018 -3752.31 0 0 0 0 0
201 1 3 31.1018 -3745.5 0 0 0 0 0
202 1 3 31.1018 -3738.69 0 0 0 0 0
203 1 3 31.1018 -3731.88 0 0 0 0 0
204 1 3 31.1018 -3725.07 0 0 0 0 0
205 1 3 31.1018 -3718.26 0 0 0 0 0
206 1 3 31.1018 -3711.45 0 0 0 0 0
207 1 3 31.1018 -3704.64 0 0 0 0 0
208 1 3 31.1018 -3697.83 0 0 0 0 0
209 1 3 31.1018 -3691.02 0 0 0 0 0
210 1 3 31.1018 -3684.21 0 0 0 0 0
211 1 3 31.1018 -3677.4 0 0 0 0 0
212 1 3 31.1018 -3670.59 0 0 0 0 0
213 1 3 31.1018 -3663.78 0 0 0 0 0
214 1 3 31.1018 -3656.97 0 0 0 0 0
215 1 3 31.1018 -3650.16 0 0 0 0 0
216 1 3 31.1018 -3643.35 0 0 0 0 0
217 1 3 31.1018 -3636.54 0 0 0 0 0
218 1 3 31.1018 -3629.73 0 0 0 0 0
219 1 3 31.1018 -3622.92 0 0 0 0 0
220 1 3 31.1018 -3616.11 0 0 0 0 0
221 1 3 31.1018 -3609.3 0 0 0 0 0
222 1 3 31.1018 -3602.49 0 0 0 0 0
223 1 3 31.1018 -3595.68 0 0 0 0 0
224 1 3 31.1018 -3588.87 0 0 0 0 0
225 1 3 31.1018 -3582.06 0 0 0 0 0
226 1 3 31.1018 -3575.25 0 0 0 0 0
227 1 3 31.1018 -3568.44 0 0 0 0 0
228 1 3 31.1018 -3561.63 0 0 0 0 0
229 1 3 31.1018 -3554.82 0 0 0 0 0
230 1 3 31.1018 -3548.01 0 0 0 0 0
231 1 3 31.1018 -3541.2 0 0 0 0 0
232 1 3 31.1018 -3534.39 0 0 0 0 0
233 1 3 31.1018 -3527.58 0 0 0 0 0
234 1 3 31.1018 -3520.77 0 0 0 0 0
235 1 3 31.1018 -3513.96 0 0 0 0 0
236 1 3 31.1018 -3507.15 0 0 0 0 0
237 1 3 31.1018 -3500.34 0 0 0 0 0
238 1 3 31.1018 -3493.53 0 0 0 0 0
239 1 3 31.1018 -3486.72 0 0 0 0 0
240 1 3 31.1018 -3479.91 0 0 0 0 0
241 1 3 31.1018 -3473.1 0 0 0 0 0
242 1 3 31.1018 -3466.29 0 0 0 0 0
243 1 3 31.1018 -3459.48 0 0 0 0 0
244 1 3 31.1018 -3452.67 0 0 0 0 0
245 1 3 31.1018 -3445.86 0 0 0 0 0
246 1 3 31.1018 -3439.05 0 0 0 0 0
247 1 3 31.1018 -3432.24 0 0 0 0 0
248 1 3 31.1018 -3425.43 0 0 0 0 0
249 1 3 31.1018 -3418.62 0 0 0 0 0
250 1 3 31.1018 -3411.81 0 0 0 0 0
251 1 3 31.1018 -3405 0 0 0 0 0
252 1 3 31.1018 -3398.19 0 0 0 0 0
253 1 3 31.1018 -3391.38 0 0 0 0 0
254 1 3 31.1018 -3384.57 0 0 0 0 0
255 1 3 31.1018 -3377.76 0 0 0 0 0
256 1 3 31.1018 -3370.95 0 0 0 0 0
257 1 3 31.1018 -3364.14 0 0 0 0 0
258 1 3 31.1018 -3357.33 0 0 0 0 0
259 1 3 31.1018 -3350.52 0 0 0 0 0
260 1 3 31.1018 -3343.71 0 0 0 0 0
261 1 3 31.1018 -3336.9 0 0 0 0 0
262 1 3 31.1018 -3330.09 0 0 0 0 0
263 1 3 31.1018 -3323.28 0 0 0 0 0
264 1 3 31.1018 -3316.47 0 0 0 0 0
265 1 3 31.1018 -3309.66 0 0 0 0 0
266 1 3 31.1018 -3302.85 0 0 0 0 0
267 1 3 31.1018 -3296.04 0 0 0 0 0
268 1 3 31.1018 -3289.23 0 0 0 0 0
269 1 3 31.1018 -3282.42 0 0 0 0 0
270 1 3 31.1018 -3275.61 0 0 0 0 0
271 1 3 31.1018 -3268.8 0 0 0 0 0
272 1 3 31.1018 -3261.99 0 0 0 0 0
273 1 3 31.1018 -3255.18 0 0 0 0 0
274 1 3 31.1018 -3248.37 0 0 0 0 0
275 1 3 31.1018 -3241.56 0 0 0 0 0
276 1 3 31.1018 -3234.75 0 0 0 0 0
277 1 3 31.1018 -3227.94 0 0 0 0 0
278 1 3 31.1018 -3221.13 0 0 0 0 0
279 1 3 31.1018 -3214.32 0 0 0 0 0
280 1 3 31.1018 -3207.51 0 0 0 0 0
281 1 3 31.1018 -3200.7 0 0 0 0 0
282 1 3 31.1018 -3193.89 0 0 0 0 0
283 1 3 31.1018 -3187.08 0 0 0 0 0
284 1 3 31.1018 -3180.27 0 0 0 0 0
285 1 3 31.1018 -3173.46 0 0 0 0 0
286 1 3 31.1018 -3166.65 0 0 0 0 0
287 1 3 31.1018 -3159.84 0 0 0 0 0
288 1 3 31.1018 -3153.03 0 0 0 0 0
289 1 3 31.1018 -3146.22 0 0 0 0 0
290 1 3 31.1018 -3139.41 0 0 0 0 0
291 1 3 31.1018 -3132.6 0 0 0 0 0
292 1 3 31.1018 -3125.79 0 0 0 0 0
293 1 3 31.1018 -3118.98 0 0 0 0 0
294 1 3 31.1018 -3112.17 0 0 0 0 0
295 1 3 31.1018 -3105.36 0 0 0 0 0
296 1 3 31.1018 -3098.55 0 0 0 0 0
297 1 3 31.1018 -3091.74 0 0 0 0 0
298 1 3 31.1018 -3084.93 0 0 0 0 0
299 1 3 31.1018 -3078.12 0 0 0 0 0
300 1 3 31.1018 -3071.31 0 0 0 0 0
301 1 3 31.1018 -3064.5 0 0 0 0 0
302 1 3 31.1018 -3057.69 0 0 0 0 0
303 1 3 31.1018 -3050.88 0 0 0 0 0
304 1 3 31.1018 -3044.07 0 0 0 0 0
305 1 3 31.1018 -3037.26 0 0 0 0 0
306 1 3 31.1018 -3030.45 0 0 0 0 0
307 1 3 31.1018 -3023.64 0 0 0 0 0
308 1 3 31.1018 -3016.83 0 0 0 0 0
309 1 3 31.1018 -3010.02 0 0 0 0 0
310 1 3 31.1018 -3003.21 0 0 0 0 0
311 1 3 31.1018 -2996.4 0 0 0 0 0
312 1 3 31.1018 -2989.59 0 0 0 0 0
313 1 3 31.1018 -2982.78 0 0 0 0 0
314 1 3 31.1018 -2975.97 0 0 0 0 0
315 1 3 31.1018 -2969.16 0 0 0 0 0
316 1 3 31.1018 -2962.35 0 0 0 0 0
317 1 3 31.1018 -2955.54 0 0 0 0 0
318 1 3 31.1018 -2948.73 0 0 0 0 0
319 1 3 31.1018 -2941.92 0 0 0 0 0
320 1 3 31.1018 -2935.11 0 0 0 0 0
321 1 3 31.1018 -2928.3 0 0 0 0 0
322 1 3 31.1018 -2921.49 0 0 0 0 0
323 1 3 31.1018 -2914.68 0 0 0 0 0
324 1 3 31.1018 -2907.87 0 0 0 0 0
325 1 3 31.1018 -2901.06 0 0 0 0 0
326 1 3 31.1018 -2894.25 0 0 0 0 0
327 1 3 31.1018 -2887.44 0 0 0 0 0
328 1 3 31.1018 -2880.63 0 0 0 0 0
329 1 3 31.1018 -2873.82 0 0 0 0 0
330 1 3 31.1018 -2867.01 0 0 0 0 0
331 1 3 31.1018 -2860.2 0 0 0 0 0
332 1 3 31.1018 -2853.39 0 0 0 0 0
333 1 3 31.1018 -2846.58 0 0 0 0 0
334 1 3 31.1018 -2839.77 0 0 0 0 0
335 1 3 31.1018 -2832.96 0 0 0 0 0
336 1 3 31.1018 -2826.15 0 0 0 0 0
337 1 3 31.1018 -2819.34 0 0 0 0 0
338 1 3 31.1018 -2812.53 0 0 0 0 0
339 1 3 31.1018 -2805.72 0 0 0 0 0
340 1 3 31.1018 -2798.91 0 0 0 0 0
341 1 3 31.1018 -2792.1 0 0 0 0 0
342 1 3 31.1018 -2785.29 0 0 0 0 0
343 1 3 31.1018 -2778.48 0 0 0 0 0
344 1 3 31.1018 -2771.67 0 0 0 0 0
345 1 3 31.1018 -2764.86 0 0 0 0 0
346 1 3 31.1018 -2758.05 0 0 0 0 0
347 1 3 31.1018 -2751.24 0 0 0 0 0
348 1 3 31.1018 -2744.43 0 0 0 0 0
349 1 3 31.1018 -2737.62 0 0 0 0 0
350 1 3 31.1018 -2730.81 0 0 0 0 0
351 1 3 31.1018 -2724 0 0 0 0 0
352 1 3 31.1018 -2717.19 0 0 0 0 0
353 1 3 31.1018 -2710.38 0 0 0 0 0
354 1 3 31.1018 -2703.57 0 0 0 0 0
355 1 3 31.1018 -2696.76 0 0 0 0 0
356 1 3 31.1018 -2689.95 0 0 0 0 0
357 1 3 31.1018 -2683.14 0 0 0 0 0
358 1 3 31.1018 -2676.33 0 0 0 0 0
359 1 3 31.1018 -2669.52 0 0 0 0 0
360 1 3 31.1018 -2662.71 0 0 0 0 0
361 1 3 31.1018 -2655.9 0 0 0 0 0
362 1 3 31.1018 -2649.09 0 0 0 0 0
363 1 3 31.1018 -2642.28 0 0 0 0 0
364 1 3 31.1018 -2635.47 0 0 0 0 0
365 1 3 31.1018 -2628.66 0 0 0 0 0
366 1 3 31.1018 -2621.85 0 0 0 0 0
367 1 3 31.1018 -2615.04 0 0 0 0 0
368 1 3 31.1018 -2608.23 0 0 0 0 0
369 1 3 31.1018 -2601.42 0 0 0 0 0
370 1 3 31.1018 -2594.61 0 0 0 0 0
371 1 3 31.1018 -2587.8 0 0 0 0 0
372 1 3 31.1018 -2580.99 0 0 0 0 0
373 1 3 31.1018 -2574.18 0 0 0 0 0
374 1 3 31.1018 -2567.37 0 0 0 0 0
375 1 3 31.1018 -2560.56 0 0 0 0 0
376 1 3 31.1018 -2553.75 0 0 0 0 0
377 1 3 31.1018 -2546.94 0 0 0 0 0
378 1 3 31.1018 -2540.13 0 0 0 0 0
379 1 3 31.1018 -2533.32 0 0 0 0 0
380 1 3 31.1018 -2526.51 0 0 0 0 0
381 1 3 31.1018 -2519.7 0 0 0 0 0
382 1 3 31.1018 -2512.89 0 0 0 0 0
383 1 3 31.1018 -2506.08 0 0 0 0 0
384 1 3 31.1018 -2499.27 0 0 0 0 0
385 1 3 31.1018 -2492.46 0 0 0 0 0
386 1 3 31.1018 -2485.65 0 0 0 0 0
387 1 3 31.1018 -2478.84 0 0 0 0 0
388 1 3 31.1018 -2472.03 0 0 0 0 0
389 1 3 31.1018 -2465.22 0 0 0 0 0
390 1 3 31.1018 -2458.41 0 0 0 0 0
391 1 3 31.1018 -2451.6 0 0 0 0 0
392 1 3 31.1018 -2444.79 0 0 0 0 0
393 1 3 31.1018 -2437.98 0 0 0 0 0
394 1 3 31.1018 -2431.17 0 0 0 0 0
395 1 3 31.1018 -2424.36 0 0 0 0 0
396 1 3 31.1018 -2417.55 0 0 0 0 0
397 1 3 31.1018 -2410.74 0 0 0 0 0
398 1 3 31.1018 -2403.93 0 0 0 0 0
399 1 3 31.1018 -2397.12 0 0 0 0 0
400 1 3 31.1018 -2390.31 0 0 0 0 0
401 1 3 31.1018 -2383.5 0 0 0 0 0
402 1 3 31.1018 -2376.69 0 0 0 0 0
403 1 3 31.1018 -2369.88 0 0 0 0 0
404 1 3 31.1018 -2363.07 0 0 0 0 0
405 1 3 31.1018 -2356.26 0 0 0 0 0
406 1 3 31.1018 -2349.45 0 0 0 0 0
407 1 3 31.1018 -2342.64 0 0 0 0 0
408 1 3 31.1018 -2335.83 0 0 0 0 0
409 1 3 31.1018 -2329.02 0 0 0 0 0
410 1 3 31.1018 -2322.21 0 0 0 0 0
411 1 3 31.1018 -2315.4 0 0 0 0 0
412 1 3 31.1018 -2308.59 0 0 0 0 0
413 1 3 31.1018 -2301.78 0 0 0 0 0
414 1 3 31.1018 -2294.97 0 0 0 0 0
415 1 3 31.1018 -2288.16 0 0 0 0 0
416 1 3 31.1018 -2281.35 0 0 0 0 0
417 1 3 31.1018 -2274.54 0 0 0 0 0
418 1 3 31.1018 -2267.73 0 0 0 0 0
419 1 3 31.1018 -2260.92 0 0 0 0 0
420 1 3 31.1018 -2254.11 0 0 0 0 0
421 1 3 31.1018 -2247.3 0 0 0 0 0
422 1 3 31.1018 -2240.49 0 0 0 0 0
423 1 3 31.1018 -2233.68 0 0 0 0 0
424 1 3 31.1018 -2226.87 0 0 0 0 0
425 1 3 31.1018 -2220.06 0 0 0 0 0
426 1 3 31.1018 -2213.25 0 0 0 0 0
427 1 3 31.1018 -2206.44 0 0 0 0 0
428 1 3 31.1018 -2199.63 0 0 0 0 0
429 1 3 31.1018 -2192.82 0 0 0 0 0
430 1 3 31.1018 -2186.01 0 0 0 0 0
431 1 3 31.1018 -2179.2 0 0 0 0 0
432 1 3 31.1018 -2172.39 0 0 0 0 0
433 1 3 31.1018 -2165.58 0 0 0 0 0
434 1 3 31.1018 -2158.77 0 0 0 0 0
435 1 3 31.1018 -2151.96 0 0 0 0 0
436 1 3 31.1018 -2145.15 0 0 0 0 0
437 1 3 31.1018 -2138.34 0 0 0 0 0
438 1 3 31.1018 -2131.53 0 0 0 0 0
439 1 3 31.1018 -2124.72 0 0 0 0 0
440 1 3 31.1018 -2117.91 0 0 0 0 0
441 1 3 31.1018 -2111.1 0 0 0 0 0
442 1 3 31.1018 -2104.29 0 0 0 0 0
443 1 3 31.1018 -2097.48 0 0 0 0 0
444 1 3 31.1018 -2090.67 0 0 0 0 0
445 1 3 31.1018 -2083.86 0 0 0 0 0
446 1 3 31.1018 -2077.05 0 0 0 0 0
447 1 3 31.1018 -2070.24 0 0 0 0 0
448 1 3 31.1018 -2063.43 0 0 0 0 0
449 1 3 31.1018 -2056.62 0 0 0 0 0
450 1 3 31.1018 -2049.81 0 0 0 0 0
451 1 3 31.1018 -2043 0 0 0 0 0
452 1 3 31.1018 -2036.19 0 0 0 0 0
453 1 3 31.1018 -2029.38 0 0 0 0 0
454 1 3 31.1018 -2022.57 0 0 0 0 0
455 1 3 31.1018 -2015.76 0 0 0 0 0
456 1 3 31.1018 -2008.95 0 0 0 0 0
457 1 3 31.1018 -2002.14 0 0 0 0 0
458 1 3 31.1018 -1995.33 0 0 0 0 0
459 1 3 31.1018 -1988.52 0 0 0 0 0
460 1 3 31.1018 -1981.71 0 0 0 0 0
461 1 3 31.1018 -1974.9 0 0 0 0 0
462 1 3 31.1018 -1968.09 0 0 0 0 0
463 1 3 31.1018 -1961.28 0 0 0 0 0
464 1 3 31.1018 -1954.47 0 0 0 0 0
465 1 3 31.1018 -1947.66 0 0 0 0 0
466 1 3 31.1018 -1940.85 0 0 0 0 0
467 1 3 31.1018 -1934.04 0 0 0 0 0
468 1 3 31.1018 -1927.23 0 0 0 0 0
469 1 3 31.1018 -1920.42 0 0 0 0 0
470 1 3 31.1018 -1913.61 0 0 0 0 0
471 1 3 31.1018 -1906.8 0 0 0 0 0
472 1 3 31.1018 -1899.99 0 0 0 0 0
473 1 3 31.1018 -1893.18 0 0 0 0 0
474 1 3 31.1018 -1886.37 0 0 0 0 0
475 1 3 31.1018 -1879.56 0 0 0 0 0
476 1 3 31.1018 -1872.75 0 0 0 0 0
477 1 3 31.1018 -1865.94 0 0 0 0 0
478 1 3 31.1018 -1859.13 0 0 0 0 0
479 1 3 31.1018 -1852.32 0 0 0 0 0
480 1 3 31.1018 -1845.51 0 0 0 0 0
481 1 3 31.1018 -1838.7 0 0 0 0 0
482 1 3 31.1018 -1831.89 0 0 0 0 0
483 1 3 31.1018 -1825.08 0 0 0 0 0
484 1 3 31.1018 -1818.27 0 0 0 0 0
485 1 3 31.1018 -1811.46 0 0 0 0 0
486 1 3 31.1018 -1804.65 0 0 0 0 0
487 1 3 31.1018 -1797.84 0 0 0 0 0
488 1 3 31.1018 -1791.03 0 0 0 0 0
489 1 3 31.1018 -1784.22 0 0 0 0 0
490 1 3 31.1018 -1777.41 0 0 0 0 0
491 1 3 31.1018 -1770.6 0 0 0 0 0
492 1 3 31.1018 -1763.79 0 0 0 0 0
493 1 3 31.1018 -1756.98 0 0 0 0 0
494 1 3 31.1018 -1750.17 0 0 0 0 0
495 1 3 31.1018 -1743.36 0 0 0 0 0
496 1 3 31.1018 -1736.55 0 0 0 0 0
497 1 3 31.1018 -1729.74 0 0 0 0 0
498 1 3 31.1018 -1722.93 0 0 0 0 0
499 1 3 31.1018 -1716.12 0 0 0 0 0
500 1 3 31.1018 -1709.31 0 0 0 0 0
501 1 3 31.1018 -1702.5 0 0 0 0 0
502 1 3 31.1018 -1695.69 0 0 0 0 0
503 1 3 31.1018 -1688.88 0 0 0 0 0
504 1 3 31.1018 -1682.07 0 0 0 0 0
505 1 3 31.1018 -1675.26 0 0 0 0 0
506 1 3 31.1018 -1668.45 0 0 0 0 0
507 1 3 31.1018 -1661.64 0 0 0 0 0
508 1 3 31.1018 -1654.83 0 0 0 0 0
509 1 3 31.1018 -1648.02 0 0 0 0 0
510 1 3 31.1018 -1641.21 0 0 0 0 0
511 1 3 31.1018 -1634.4 0 0 0 0 0
512 1 3 31.1018 -1627.59 0 0 0 0 0
513 1 3 31.1018 -1620.78 0 0 0 0 0
514 1 3 31.1018 -1613.97 0 0 0 0 0
515 1 3 31.1018 -1607.16 0 0 0 0 0
516 1 3 31.1018 -1600.35 0 0 0 0 0
517 1 3 31.1018 -1593.54 0 0 0 0 0
518 1 3 31.1018 -1586.73 0 0 0 0 0
519 1 3 31.1018 -1579.92 0 0 0 0 0
520 1 3 31.1018 -1573.11 0 0 0 0 0
521 1 3 31.1018 -1566.3 0 0 0 0 0
522 1 3 31.1018 -1559.49 0 0 0 0 0
523 1 3 31.1018 -1552.68 0 0 0 0 0
524 1 3 31.1018 -1545.87 0 0 0 0 0
525 1 3 31.1018 -1539.06 0 0 0 0 0
526 1 3 31.1018 -1532.25 0 0 0 0 0
527 1 3 31.1018 -1525.44 0 0 0 0 0
528 1 3 31.1018 -1518.63 0 0 0 0 0
529 1 3 31.1018 -1511.82 0 0 0 0 0
530 1 3 31.1018 -1505.01 0 0 0 0 0
531 1 3 31.1018 -1498.2 0 0 0 0 0
532 1 3 31.1018 -1491.39 0 0 0 0 0
533 1 3 31.1018 -1484.58 0 0 0 0 0
534 1 3 31.1018 -1477.77 0 0 0 0 0
535 1 3 31.1018 -1470.96 0 0 0 0 0
536 1 3 31.1018 -1464.15 0 0 0 0 0
537 1 3 31.1018 -1457.34 0 0 0 0 0
538 1 3 31.1018 -1450.53 0 0 0 0 0
539 1 3 31.1018 -1443.72 0 0 0 0 0
540 1 3 31.1018 -1436.91 0 0 0 0 0
541 1 3 31.1018 -1430.1 0 0 0 0 0
542 1 3 31.1018 -1423.29 0 0 0 0 0
543 1 3 31.1018 -1416.48 0 0 0 0 0
544 1 3 31.1018 -1409.67 0 0 0 0 0
545 1 3 31.1018 -1402.86 0 0 0 0 0
546 1 3 31.1018 -1396.05 0 0 0 0 0
547 1 3 31.1018 -1389.24 0 0 0 0 0
548 1 3 31.1018 -1382.43 0 0 0 0 0
549 1 3 31.1018 -1375.62 0 0 0 0 0
550 1 3 31.1018 -1368.81 0 0 0 0 0
551 1 3 31.1018 -1362 0 0 0 0 0
552 1 3 31.1018 -1355.19 0 0 0 0 0
553 1 3 31.1018 -1348.38 0 0 0 0 0
554 1 3 31.1018 -1341.57 0 0 0 0 0
555 1 3 31.1018 -1334.76 0 0 0 0 0
556 1 3 31.1018 -1327.95 0 0 0 0 0
557 1 3 31.1018 -1321.14 0 0 0 0 0
558 1 3 31.1018 -1314.33 0 0 0 0 0
559 1 3 31.1018 -1307.52 0 0 0 0 0
560 1 3 31.1018 -1300.71 0 0 0 0 0
561 1 3 31.1018 -1293.9 0 0 0 0 0
562 1 3 31.1018 -1287.09 0 0 0 0 0
563 1 3 31.1018 -1280.28 0 0 0 0 0
564 1 3 31.1018 -1273.47 0 0 0 0 0
565 1 3 31.1018 -1266.66 0 0 0 0 0
566 1 3 31.1018 -1259.85 0 0 0 0 0
567 1 3 31.1018 -1253.04 0 0 0 0 0
568 1 3 31.1018 -1246.23 0 0 0 0 0
569 1 3 31.1018 -1239.42 0 0 0 0 0
570 1 3 31.1018 -1232.61 0 0 0 0 0
571 1 3 31.1018 -1225.8 0 0 0 0 0
572 1 3 31.1018 -1218.99 0 0 0 0 0
573 1 3 31.1018 -1212.18 0 0 0 0 0
574 1 3 31.1018 -1205.37 0 0 0 0 0
575 1 3 31.1018 -1198.56 0 0 0 0 0
576 1 3 31.1018 -1191.75 0 0 0 0 0
577 1 3 31.1018 -1184.94 0 0 0 0 0
578 1 3 31.1018 -1178.13 0 0 0 0 0
579 1 3 31.1018 -1171.32 0 0 0 0 0
580 1 3 31.1018 -1164.51 0 0 0 0 0
581 1 3 31.1018 -1157.7 0 0 0 0 0
582 1 3 31.1018 -1150.89 0 0 0 0 0
583 1 3 31.1018 -1144.08 0 0 0 0 0
584 1 3 31.1018 -1137.27 0 0 0 0 0
585 1 3 31.1018 -1130.46 0 0 0 0 0
586 1 3 31.1018 -1123.65 0 0 0 0 0
587 1 3 31.1018 -1116.84 0 0 0 0 0
588 1 3 31.1018 -1110.03 0 0 0 0 0
589 1 3 31.1018 -1103.22 0 0 0 0 0
590 1 3 31.1018 -1096.41 0 0 0 0 0
591 1 3 31.1018 -1089.6 0 0 0 0 0
592 1 3 31.1018 -1082.79 0 0 0 0 0
593 1 3 31.1018 -1075.98 0 0 0 0 0
594 1 3 31.1018 -1069.17 0 0 0 0 0
595 1 3 31.1018 -1062.36 0 0 0 0 0
596 1 3 31.1018 -1055.55 0 0 0 0 0
597 1 3 31.1018 -1048.74 0 0 0 0 0
598 1 3 31.1018 -1041.93 0 0 0 0 0
599 1 3 31.1018 -1035.12 0 0 0 0 0
600 1 3 31.1018 -1028.31 0 0 0 0 0
601 1 3 31.1018 -1021.5 0 0 0 0 0
602 1 3 31.1018 -1014.69 0 0 0 0 0
603 1 3 31.1018 -1007.88 0 0 0 0 0
604 1 3 31.1018 -1001.07 0 0 0 0 0
605 1 3 31.1018 -994.26 0 0 0 0 0
606 1 3 31.1018 -987.45 0 0 0 0 0
607 1 3 31.1018 -980.64 0 0 0 0 0
608 1 3 31.1018 -973.83 0 0 0 0 0
609 1 3 31.1018 -967.02 0 0 0 0 0
610 1 3 31.1018 -960.21 0 0 0 0 0
611 1 3 31.1018 -953.4 0 0 0 0 0
612 1 3 31.1018 -946.59 0 0 0 0 0
613 1 3 31.1018 -939.78 0 0 0 0 0
614 1 3 31.1018 -932.97 0 0 0 0 0
615 1 3 31.1018 -926.16 0 0 0 0 0
616 1 3 31.1018 -919.35 0 0 0 0 0
617 1 3 31.1018 -912.54 0 0 0 0 0
618 1 3 31.1018 -905.73 0 0 0 0 0
619 1 3 31.1018 -898.92 0 0 0 0 0
620 1 3 31.1018 -892.11 0 0 0 0 0
621 1 3 31.1018 -885.3 0 0 0 0 0
622 1 3 31.1018 -878.49 0 0 0 0 0
623 1 3 31.1018 -871.68 0 0 0 0 0
624 1 3 31.1018 -864.87 0 0 0 0 0
625 1 3 31.1018 -858.06 0 0 0 0 0
626 1 3 31.1018 -851.25 0 0 0 0 0
627 1 3 31.1018 -844.44 0 0 0 0 0
628 1 3 31.1018 -837.63 0 0 0 0 0
629 1 3 31.1018 -830.82 0 0 0 0 0
630 1 3 31.1018 -824.01 0 0 0 0 0
631 1 3 31.1018 -817.2 0 0 0 0 0
632 1 3 31.1018 -810.39 0 0 0 0 0
633 1 3 31.1018 -803.58 0 0 0 0 0
634 1 3 31.1018 -796.77 0 0 0 0 0
635 1 3 31.1018 -789.96 0 0 0 0 0
636 1 3 31.1018 -783.15 0 0 0 0 0
637 1 3 31.1018 -776.34 0 0 0 0 0
638 1 3 31.1018 -769.53 0 0 0 0 0
639 1 3 31.1018 -762.72 0 0 0 0 0
640 1 3 31.1018 -755.91 0 0 0 0 0
641 1 3 31.1018 -749.1 0 0 0 0 0
642 1 3 31.1018 -742.29 0 0 0 0 0
643 1 3 31.1018 -735.48 0 0 0 0 0
644 1 3 31.1018 -728.67 0 0 0 0 0
645 1 3 31.1018 -721.86 0 0 0 0 0
646 1 3 31.1018 -715.05 0 0 0 0 0
647 1 3 31.1018 -708.24 0 0 0 0 0
648 1 3 31.1018 -701.43 0 0 0 0 0
649 1 3 31.1018 -694.62 0 0 0 0 0
650 1 3 31.1018 -687.81 0 0 0 0 0
651 1 3 31.1018 -681 0 0 0 0 0
652 1 3 31.1018 -674.19 0 0 0 0 0
653 1 3 31.1018 -667.38 0 0 0 0 0
654 1 3 31.1018 -660.57 0 0 0 0 0
655 1 3 31.1018 -653.76 0 0 0 0 0
656 1 3 31.1018 -646.95 0 0 0 0 0
657 1 3 31.1018 -640.14 0 0 0 0 0
658 1 3 31.1018 -633.33 0 0 0 0 0
659 1 3 31.1018 -626.52 0 0 0 0 0
660 1 3 31.1018 -619.71 0 0 0 0 0
661 1 3 31.1018 -612.9 0 0 0 0 0
662 1 3 31.1018 -606.09 0 0 0 0 0
663 1 3 31.1018 -599.28 0 0 0 0 0
664 1 3 31.1018 -592.47 0 0 0 0 0
665 1 3 31.1018 -585.66 0 0 0 0 0
666 1 3 31.1018 -578.85 0 0 0 0 0
667 1 3 31.1018 -572.04 0 0 0 0 0
668 1 3 31.1018 -565.23 0 0 0 0 0
669 1 3 31.1018 -558.42 0 0 0 0 0
670 1 3 31.1018 -551.61 0 0 0 0 0
671 1 3 31.1018 -544.8 0 0 0 0 0
672 1 3 31.1018 -537.99 0 0 0 0 0
673 1 3 31.1018 -531.18 0 0 0 0 0
674 1 3 31.1018 -524.37 0 0 0 0 0
675 1 3 31.1018 -517.56 0 0 0 0 0
676 1 3 31.1018 -510.75 0 0 0 0 0
677 1 3 31.1018 -503.94 0 0 0 0 0
678 1 3 31.1018 -497.13 0 0 0 0 0
679 1 3 31.1018 -490.32 0 0 0 0 0
680 1 3 31.1018 -483.51 0 0 0 0 0
681 1 3 31.1018 -476.7 0 0 0 0 0
682 1 3 31.1018 -469.89 0 0 0 0 0
683 1 3 31.1018 -463.08 0 0 0 0 0
684 1 3 31.1018 -456.27 0 0 0 0 0
685 1 3 31.1018 -449.46 0 0 0 0 0
686 1 3 31.1018 -442.65 0 0 0 0 0
687 1 3 31.1018 -435.84 0 0 0 0 0
688 1 3 31.1018 -429.03 0 0 0 0 0
689 1 3 31.1018 -422.22 0 0 0 0 0
690 1 3 31.1018 -415.41 0 0 0 0 0
691 1 3 31.1018 -408.6 0 0 0 0 0
692 1 3 31.1018 -401.79 0 0 0 0 0
693 1 3 31.1018 -394.98 0 0 0 0 0
694 1 3 31.1018 -388.17 0 0 0 0 0
695 1 3 31.1018 -381.36 0 0 0 0 0
696 1 3 31.1018 -374.55 0 0 0 0 0
697 1 3 31.1018 -367.74 0 0 0 0 0
698 1 3 31.1018 -360.93 0 0 0 0 0
699 1 3 31.1018 -354.12 0 0 0 0 0
700 1 3 31.1018 -347.31 0 0 0 0 0
701 1 3 31.1018 -340.5 0 0 0 0 0
702 1 3 31.1018 -333.69 0 0 0 0 0
703 1 3 31.1018 -326.88 0 0 0 0 0
704 1 3 31.1018 -320.07 0 0 0 0 0
705 1 3 31.1018 -313.26 0 0 0 0 0
706 1 3 31.1018 -306.45 0 0 0 0 0
707 1 3 31.1018 -299.64 0 0 0 0 0
708 1 3 31.1018 -292.83 0 0 0 0 0
709 1 3 31.1018 -286.02 0 0 0 0 0
710 1 3 31.1018 -279.21 0 0 0 0 0
711 1 3 31.1018 -272.4 0 0 0 0 0
712 1 3 31.1018 -265.59 0 0 0 0 0
713 1 3 31.1018 -258.78 0 0 0 0 0
714 1 3 31.1018 -251.97 0 0 0 0 0
715 1 3 31.1018 -245.16 0 0 0 0 0
716 1 3 31.1018 -238.35 0 0 0 0 0
717 1 3 31.1018 -231.54 0 0 0 0 0
718 1 3 31.1018 -224.73 0 0 0 0 0
719 1 3 31.1018 -217.92 0 0 0 0 0
720 1 3 31.1018 -211.11 0 0 0 0 0
721 1 3 31.1018 -204.3 0 0 0 0 0
722 1 3 31.1018 -197.49 0 0 0 0 0
723 1 3 31.1018 -190.68 0 0 0 0 0
724 1 3 31.1018 -183.87 0 0 0 0 0
725 1 3 31.1018 -177.06 0 0 0 0 0
726 1 3 31.1018 -170.25 0 0 0 0 0
727 1 3 31.1018 -163.44 0 0 0 0 0
728 1 3 31.1018 -156.63 0 0 0 0 0
729 1 3 31.1018 -149.82 0 0 0 0 0
730 1 3 31.1018 -143.01 0 0 0 0 0
731 1 3 31.1018 -136.2 0 0 0 0 0
732 1 3 31.1018 -129.39 0 0 0 0 0
733 1 3 31.1018 -122.58 0 0 0 0 0
734 1 3 31.1018 -115.77 0 0 0 0 0
735 1 3 31.1018 -108.96 0 0 0 0 0
736 1 3 31.1018 -102.15 0 0 0 0 0
737 1 3 31.1018 -95.34 0 0 0 0 0
738 1 3 31.1018 -88.53 0 0 0 0 0
739 1 3 31.1018 -81.72 0 0 0 0 0
740 1 3 31.1018 -74.91 0 0 0 0 0
741 1 3 31.1018 -68.1 0 0 0 0 0
742 1 3 31.1018 -61.29 0 0 0 0 0
743 1 3 31.1018 -54.48 0 0 0 0 0
744 1 3 31.1018 -47.67 0 0 0 0 0
745 1 3 31.1018 -40.86 0 0 0 0 0
746 1 3 31.1018 -34.05 0 0 0 0 0
747 1 3 31.1018 -27.24 0 0 0 0 0
748 1 3 31.1018 -20.43 0 0 0 0 0
749 1 3 31.1018 -13.62 0 0 0 0 0
750 1 3 31.1018 -6.81 0 0 0 0 0
1501 2 3 31.1018 -1500 0 2.99393 0 0 -1000
1502 2 3 31.1018 -1497 0 2.99393 0 0 -1000
1503 2 3 31.1018 -1494 0 2.99393 0 0 -1000
1504 2 3 31.1018 -1491 0 2.99393 0 0 -1000
1505 2 3 31.1018 -1488 0 2.99393 0 0 -1000
1506 2 3 31.1018 -1485 0 2.99393 0 0 -1000
1507 2 3 31.1018 -1482 0 2.99393 0 0 -1000
1508 2 3 31.1018 -1479 0 2.99393 0 0 -1000
1509 2 3 31.1018 -1476 0 2.99393 0 0 -1000
1510 2 3 31.1018 -1473 0 2.99393 0 0 -1000
1511 2 3 31.1018 -1470 0 2.99393 0 0 -1000
1512 2 3 31.1018 -1467 0 2.99393 0 0 -1000
1513 2 3 31.1018 -1464 0 2.99393 351.114 0 6055.29
1514 2 3 31.1018 -1461 0 2.99393 0 0 -1000
1515 2 3 31.1018 -1458 0 2.99393 0 0 -1000
1516 2 3 31.1018 -1455 0 2.99393 0 0 -1000
1517 2 3 31.1018 -1452 0 2.99393 0 0 -1000
1518 2 3 31.1018 -1449 0 2.99393 0 0 -1000
1519 2 3 31.1018 -1446 0 2.99393 0 0 -1000
1520 2 3 31.1018 -1443 0 2.99393 0 0 -1000
1521 2 3 31.1018 -1440 0 2.99393 0 0 -1000
1522 2 3 31.1018 -1437 0 2.99393 -562.925 0 19547.7
1523 2 3 31.1018 -1434 0 2.99393 0 0 -1000
1524 2 3 31.1018 -1431 0 2.99393 0 0 -1000
1525 2 3 31.1018 -1428 0 2.99393 0 0 -1000
1526 2 3 31.1018 -1425 0 2.99393 0 0 -1000
1527 2 3 31.1018 -1422 0 2.99393 0 0 -1000
1528 2 3 31.1018 -1419 0 2.99393 0 0 -1000
1529 2 3 31.1018 -1416 0 2.99393 0 0 -1000
1530 2 3 31.1018 -1413 0 2.99393 0 0 -1000
1531 2 3 31.1018 -1410 0 2.99393 0 0 -1000
1532 2 3 31.1018 -1407 0 2.99393 0 0 -1000
1533 2 3 31.1018 -1404 0 2.99393 0 0 -1000
1534 2 3 31.1018 -1401 0 2.99393 0 0 -1000
1535 2 3 31.1018 -1398 0 2.99393 0 0 -1000
1536 2 3 31.1018 -1395 0 2.99393 0 0 -1000
1537 2 3 31.1018 -1392 0 2.99393 0 0 -1000
1538 2 3 31.1018 -1389 0 2.99393 0 0 -1000
1539 2 3 31.1018 -1386 0 2.99393 0 0 -1000
1540 2 3 31.1018 -1383 0 2.99393 0 0 -1000
1541 2 3 31.1018 -1380 0 2.99393 0 0 -1000
1542 2 3 31.1018 -1377 0 2.99393 0 0 -1000
1543 2 3 31.1018 -1374 0 2.99393 0 0 -1000
1544 2 3 31.1018 -1371 0 2.99393 0 0 -1000
1545 2 3 31.1018 -1368 0 2.99393 0 0 -1000
1546 2 3 31.1018 -1365 0 2.99393 0 0 -1000
1547 2 3 31.1018 -1362 0 2.99393 8.23042e-12 0 29001.4
1548 2 3 31.1018 -1359 0 2.99393 0 0 -1000
1549 2 3 31.1018 -1356 0 2.99393 0 0 -1000
1550 2 3 31.1018 -1353 0 2.99393 0 0 -1000
1551 2 3 31.1018 -1350 0 2.99393 0 0 -1000
1552 2 3 31.1018 -1347 0 2.99393 0 0 -1000
1553 2 3 31.1018 -1344 0 2.99393 0 0 -1000
1554 2 3 31.1018 -1341 0 2.99393 0 0 -1000
1555 2 3 31.1018 -1338 0 2.99393 0 0 -1000
1556 2 3 31.1018 -1335 0 2.99393 0 0 -1000
1557 2 3 31.1018 -1332 0 2.99393 0 0 -1000
1558 2 3 31.1018 -1329 0 2.99393 0 0 -1000
1559 2 3 31.1018 -1326 0 2.99393 0 0 -1000
1560 2 3 31.1018 -1323 0 2.99393 0 0 -1000
1561 2 3 31.1018 -1320 0 2.99393 0 0 -1000
1562 2 3 31.1018 -1317 0 2.99393 0 0 -1000
1563 2 3 31.1018 -1314 0 2.99393 0 0 -1000
1564 2 3 31.1018 -1311 0 2.99393 0 0 -1000
1565 2 3 31.1018 -1308 0 2.99393 0 0 -1000
1566 2 3 31.1018 -1305 0 2.99393 0 0 -1000
1567 2 3 31.1018 -1302 0 2.99393 0 0 -1000
1568 2 3 31.1018 -1299 0 2.99393 0 0 -1000
1569 2 3 31.1018 -1296 0 2.99393 0 0 -1000
1570 2 3 31.1018 -1293 0 2.99393 0 0 -1000
1571 2 3 31.1018 -1290 0 2.99393 0 0 -1000
1572 2 3 31.1018 -1287 0 2.99393 562.925 0 19547.7
1573 2 3 31.1018 -1284 0 2.99393 0 0 -1000
1574 2 3 31.1018 -1281 0 2.99393 0 0 -1000
1575 2 3 31.1018 -1278 0 2.99393 0 0 -1000
1576 2 3 31.1018 -1275 0 2.99393 0 0 -1000
1577 2 3 31.1018 -1272 0 2.99393 0 0 -1000
1578 2 3 31.1018 -1269 0 2.99393 0 0 -1000
1579 2 3 31.1018 -1266 0 2.99393 0 0 -1000
1580 2 3 31.1018 -1263 0 2.99393 0 0 -1000
1581 2 3 31.1018 -1260 0 2.99393 -351.114 0 6055.29
1582 2 3 31.1018 -1257 0 2.99393 0 0 -1000
1583 2 3 31.1018 -1254 0 2.99393 0 0 -1000
1584 2 3 31.1018 -1251 0 2.99393 0 0 -1000
1585 2 3 31.1018 -1248 0 2.99393 0 0 -1000
1586 2 3 31.1018 -1245 0 2.99393 0 0 -1000
1587 2 3 31.1018 -1242 0 2.99393 0 0 -1000
1588 2 3 31.1018 -1239 0 2.99393 0 0 -1000