LAMMPS (23 Jun 2022 - Update 1)
  using 1 OpenMP thread(s) per MPI task
variable num index 0 1 2 3 4 5 6 7 8 9 10 11 12 13 14 15 16 17 18 19 20 21 22 23 24 25 26 27 28 29 30 31 32 33 34 35 36 37 38 39 40 41 42 43 44 45 46 47 48 49 50 51 52 53 54 55 56 57 58 59 60 61 62 63 64 65 66 67 68 69 70 71 72 73 74 75 76 77 78 79 80 81 82 83 84 85 86 87 88 89 90 91 92 93 94 95 96 97 98 99

label startloop

include granular.in
### Simulation of contact between two chain

##################### Simulation setup ####################

units micro                              # units
dimension	3                            # dimension
boundary	p p p                        # boundary condition p: periodic
atom_style	sphere                       # atom style
#processors * * 1

####################### Parameter ##################################

variable ind equal ${num}
variable ind equal 0

#variable lat0 equal 1                    #
variable lat1 equal 3+(300*0.01)+(v_ind*0.01)  # .491+(v_ind*0.001)       # Lattice distance of bottom chain
variable lat2 equal 3                    # Lattice distance of top chain
variable d1 equal 3                      # Diamter of particle at bottom chain
variable d2 equal 3                      # Diamter of particle at top chain
#variable d3 equal 1                      # Diamter of supporting particle

variable n2e1 equal 500*v_lat2             # Half length of top chain. 1500 is number of particles
variable n1e1 equal 1.5*v_n2e1*(v_lat1/v_lat2)             # Half length of bottom chain, which is 1.5 time larger than top chain
variable n1e2 equal -v_n1e1
variable n2e2 equal -v_n2e1
#variable lenspr equal -(v_n2e1+100)           # length of the spring connecting top chain and supporting particle
#variable lenspr1 equal -v_lenspr-0.1         # Position of supporting particle upper bound
#variable lenspr2 equal -v_lenspr+0.1         # Position of supporting particle lower bound

variable den equal 2.2 #grams/cm^3      # micrometer^3=10^-12 cm^3 Density of materials

variable V1 equal (1/6)*PI*(v_d1^3)     # Volume of particle 1
variable V2 equal (1/6)*PI*(v_d2^3)     # Volume of particle 2
#variable V3 equal (1/6)*PI*(v_d3^3)     # Volume of particle 3

variable mass1 equal v_den*v_V1  # Mass of particle 1 (picograms)
variable mass2 equal v_den*v_V2  # Mass of particle 2
#variable mass3 equal v_den*v_V3  # Mass of particle 3

# E GPa to picogram/(micrometer-microsecond^2)= 10^3 Pa= 10^-6 GPa
# Force unit(picogram-micrometer/microsecond^2)=10^-9 N= 1nN
# Spring stiffness (force/distance) 10^-3 N/m

variable K0 equal (1500/50)*(10^5)             # Spring stiffness conneting top chain and sup particle
variable E equal 100*(10^6)                    # Young's Modulus using for Hertz/material model
variable PR equal 0.3                          # Poisson's ratio using for Hertz/material model
variable Fn equal -1000                        # Force apply to each particles in top chain
variable dt equal 0.00001                      # Time step units microsecond
variable lgv equal 0.5                         #damping for langevin thermostat for slider


################### Creating the model #################################
lattice sc ${lat1}                                                               # Bottom chain type1
lattice sc 6                                                               
Lattice spacing in x,y,z = 6 6 6

region box block ${n1e2} ${n1e1} -100 100 -100 100 units box
region box block -4500 ${n1e1} -100 100 -100 100 units box
region box block -4500 4500 -100 100 -100 100 units box
region substrate block ${n1e2} ${n1e1} -0.5 0.5 0 0.5 units box
region substrate block -4500 ${n1e1} -0.5 0.5 0 0.5 units box
region substrate block -4500 4500 -0.5 0.5 0 0.5 units box

create_box 2 box
Created orthogonal box = (-4500 -100 -100) to (4500 100 100)
  4 by 1 by 1 MPI processor grid
create_atoms 1 region substrate
Created 1500 atoms
  using lattice units in orthogonal box = (-4500 -100 -100) to (4500 100 100)
  create_atoms CPU = 0.001 seconds

lattice sc ${lat2}                                                             # Top chain type2
lattice sc 3                                                             
Lattice spacing in x,y,z = 3 3 3

region slider1 block ${n2e2} ${n2e1} -0.1 0.1 5.9 6.1 units box
region slider1 block -1500 ${n2e1} -0.1 0.1 5.9 6.1 units box
region slider1 block -1500 1500 -0.1 0.1 5.9 6.1 units box

create_atoms 2 region slider1
Created 1001 atoms
  using lattice units in orthogonal box = (-4500 -100 -100) to (4500 100 100)
  create_atoms CPU = 0.002 seconds

#lattice sc ${lat0}                                                             # Supporting particle type3

#region support block ${lenspr1} ${lenspr2} -0.1 0.1 7.9 8.1 units box

#create_atoms 3 region support

set type 1 diameter ${d1}                    # Set mass and diameter for each particles type
set type 1 diameter 3                    
Setting atom values ...
  1500 settings made for diameter
set type 1 mass ${mass1}
set type 1 mass 31.101767270539
Setting atom values ...
  1500 settings made for mass
set type 2 diameter ${d2}
set type 2 diameter 3
Setting atom values ...
  1001 settings made for diameter
set type 2 mass ${mass2}
set type 2 mass 31.101767270539
Setting atom values ...
  1001 settings made for mass
#set type 3 diameter ${d3}
#set type 3 mass ${mass3}

group substrate region substrate           # Define gorup
1500 atoms in group substrate
group slider1 region slider1
1001 atoms in group slider1
#group support region support
#group substrate_slider union substrate slider1

########################## Potential ###################################
pair_style granular
pair_coeff 1 1 hertz/material 0.00000001 0.001 ${PR} tangential mindlin NULL 0.1 0.01 damping viscoelastic              ########### set E between each particle in same type is small to neglect their interaction
pair_coeff 1 1 hertz/material 0.00000001 0.001 0.3 tangential mindlin NULL 0.1 0.01 damping viscoelastic              
pair_coeff 2 2 hertz/material 0.00000001 0.001 ${PR} tangential mindlin NULL 0.1 0.01 damping viscoelastic
pair_coeff 2 2 hertz/material 0.00000001 0.001 0.3 tangential mindlin NULL 0.1 0.01 damping viscoelastic
#pair_coeff 3 3 hertz/material ${E} 0.001 ${PR} tangential mindlin NULL 0.1 0.01 damping viscoelastic
pair_coeff 1 2 hertz/material ${E} 0.001 ${PR} tangential mindlin NULL 0.1 0.01 damping viscoelastic
pair_coeff 1 2 hertz/material 100000000 0.001 ${PR} tangential mindlin NULL 0.1 0.01 damping viscoelastic
pair_coeff 1 2 hertz/material 100000000 0.001 0.3 tangential mindlin NULL 0.1 0.01 damping viscoelastic
#pair_coeff 1 3 hertz/material 0.00000001 0.001 ${PR} tangential mindlin NULL 0.1 0.01 damping viscoelastic
#pair_coeff 2 3 hertz/material 0.00000001 0.001 ${PR} tangential mindlin NULL 0.1 0.01 damping viscoelastic
comm_modify     vel yes
neigh_modify    delay 0 every 1 check yes

### Compute properties ###

compute 1 slider1 com                      # Compute the center of mass of top chain
#compute 2 support com                      # Compute the center of mass of supporting particle

variable p0 equal "step"

variable slider_z equal "c_1[3]"          # output the position of top chain in z-direction

#variable distance equal "c_2[1]-c_1[1]"   # Distance between COM of top chain and supporting particle

thermo 100000
thermo_style custom step lx ly lz press pxx pyy pzz ke pe temp c_1[1] c_1[2] c_1[3] #c_2[1] c_2[2] c_2[3] v_distance

############### Fix ##################


############## Equilibrium the system with apply force ########################

fix force_slider1 slider1 setforce NULL 0 NULL                                # Fix top chain not to move in y-direction

fix f_sub substrate freeze                                                    # Freeze the bottom chain

fix rigid_top slider1 rigid/nve group 1 slider1 langevin 0 0 ${lgv} 6987532   # NVE+langevin
fix rigid_top slider1 rigid/nve group 1 slider1 langevin 0 0 0.5 6987532   
  1 rigid bodies with 1001 atoms

fix add slider1 addforce 0 0 ${Fn} every 1                                    # Add force to top layer
fix add slider1 addforce 0 0 -1000 every 1                                    

timestep ${dt}
timestep 1e-05

# fix  nve_1 slider1 nve

dump 		D1 all custom 100000 Equi_${num}_*.dump id type diameter mass xu yu zu fx fy fz
dump 		D1 all custom 100000 Equi_0_*.dump id type diameter mass xu yu zu fx fy fz

run 3000000
Generated 0 of 1 mixed pair_coeff terms from geometric mixing rule
Neighbor list info ...
  update every 1 steps, delay 0 steps, check yes
  max neighbors/atom: 2000, page size: 100000
  master list distance cutoff = 3.1
  ghost atom cutoff = 3.1
  binsize = 1.55, bins = 5807 130 130
  1 neighbor lists, perpetual/occasional/extra = 1 0 0
  (1) pair granular, perpetual
      attributes: half, newton on, size, history
      pair build: half/size/bin/newton
      stencil: half/bin/3d
      bin: standard
Per MPI rank memory allocation (min/avg/max) = 114.2 | 114.2 | 114.2 Mbytes
   Step           Lx             Ly             Lz           Press           Pxx            Pyy            Pzz           KinEng         PotEng          Temp          c_1[1]         c_1[2]         c_1[3]    
         0   9000           200            200            0              0              0              0              0              0              0              1.1965779e-13  0              6            
    100000   9000           200            200            0.0022948165   8.9755333e-36  0              0.0068844495   598584.56      0              5.7807012e+10  1.1965779e-13  0              3.3183368    
    200000   9000           200            200            0.00088220172 -5.3852715e-35  0              0.0026466051   165767.85      0              1.6008672e+10  1.1965779e-13  0              3.0576515    
    300000   9000           200            200            0.00020595447 -1.2565654e-34  0              0.0006178634   15829.63       0              1.5287123e+09  1.1965779e-13  0              3.0391545    
    400000   9000           200            200            7.8362333e-05  5.3853167e-35  0              0.000235087    2776.3876      0              2.6812364e+08  1.1965779e-13  0              3.009441     
    500000   9000           200            200           -5.1416066e-05 -8.9754633e-35  0             -0.0001542482   1527.4951      0              1.4751454e+08  1.1965779e-13  0              3.0004271    
    600000   9000           200            200            0.0012291225   8.9754926e-35  0              0.0036873675   277.59679      0              26808311       1.1965779e-13  0              2.9994287    
    700000   9000           200            200            0.0023737643   3.4538543e-41  0              0.0071212929   47.084909      0              4547123.5      1.1965779e-13  0              2.9991       
    800000   9000           200            200            0.0027542966  -2.6926418e-35  0              0.0082628897   7.2291816      0              698142.62      1.1965779e-13  0              2.9990079    
    900000   9000           200            200            0.0027773975  -2.6926424e-35  0              0.0083321926   0.96830613     0              93512.076      1.1965779e-13  0              2.999003     
   1000000   9000           200            200            0.0027792069  -8.9754649e-36  0              0.0083376208   0.12927723     0              12484.669      1.1965779e-13  0              2.9990027    
   1100000   9000           200            200            0.0027794827   6.7316196e-36  0              0.008338448    0.017257502    0              1666.606       1.1965779e-13  0              2.9990028    
   1200000   9000           200            200            0.0027795686  -1.1219348e-36  0              0.0083387057   0.0023037065   0              222.47549      1.1965779e-13  0              2.9990028    
   1300000   9000           200            200            0.0027796042   9.5364518e-36  0              0.0083388127   0.00030751958  0              29.69804       1.1965779e-13  0              2.9990028    
   1400000   9000           200            200            0.0027796197   6.8881997e-44  0              0.0083388592   4.1050204e-05  0              3.9643349      1.1965779e-13  0              2.9990028    
   1500000   9000           200            200            0.0027796264   6.1706454e-36  0              0.0083388793   5.4796778e-06  0              0.52918806     1.1965779e-13  0              2.9990028    
   1600000   9000           200            200            0.0027796293  -2.2438709e-36  0              0.0083388878   7.3146146e-07  0              0.070639312    1.1965779e-13  0              2.9990028    
   1700000   9000           200            200            0.0027796305   8.9395597e-44  0              0.0083388914   9.7639895e-08  0              0.0094293622   1.1965779e-13  0              2.9990028    
   1800000   9000           200            200            0.0027796309   9.0120936e-44  0              0.0083388928   1.3033366e-08  0              0.0012586692   1.1965779e-13  0              2.9990028    
   1900000   9000           200            200            0.0027796311   2.1877743e-35  0              0.0083388934   1.7397784e-09  0              0.00016801534  1.1965779e-13  0              2.9990028    
   2000000   9000           200            200            0.0027796312  -4.4877419e-36  0              0.0083388936   2.3222794e-10  0              2.2426912e-05  1.1965779e-13  0              2.9990028    
   2100000   9000           200            200            0.0027796312  -5.6096766e-37  0              0.0083388937   3.0994796e-11  0              2.9932555e-06  1.1965779e-13  0              2.9990028    
   2200000   9000           200            200            0.0027796313   5.6096784e-37  0              0.0083388938   4.1372428e-12  0              3.9954529e-07  1.1965779e-13  0              2.9990028    
   2300000   9000           200            200            0.0027796313  -1.1219354e-36  0              0.0083388938   5.520984e-13   0              5.3317712e-08  1.1965779e-13  0              2.9990028    
   2400000   9000           200            200            0.0027796313  -1.1219354e-36  0              0.0083388938   7.3793638e-14  0              7.1264613e-09  1.1965779e-13  0              2.9990028    
   2500000   9000           200            200            0.0027796313   1.6829034e-36  0              0.0083388938   9.8756656e-15  0              9.537211e-10   1.1965779e-13  0              2.9990028    
   2600000   9000           200            200            0.0027796313   1.1219356e-36  0              0.0083388938   1.3128746e-15  0              1.2678803e-10  1.1965779e-13  0              2.9990028    
   2700000   9000           200            200            0.0027796313  -5.6096766e-37  0              0.0083388938   1.7972738e-16  0              1.7356783e-11  1.1965779e-13  0              2.9990028    
   2800000   9000           200            200            0.0027796313  -2.8048387e-36  0              0.0083388938   6.2184266e-18  0              6.0053113e-13  1.1965779e-13  0              2.9990028    
   2900000   9000           200            200            0.0027796313   1.6829033e-36  0              0.0083388938   1.1191834e-19  0              1.0808272e-14  1.1965779e-13  0              2.9990028    
   3000000   9000           200            200            0.0027796313  -6.1706452e-36  0              0.0083388938   2.607073e-18   0              2.5177245e-13  1.1965779e-13  0              2.9990028    
Loop time of 353.833 on 4 procs for 3000000 steps with 2501 atoms

Performance: 7325497.539 ns/day, 0.000 hours/ns, 8478.585 timesteps/s
100.0% CPU use with 4 MPI tasks x 1 OpenMP threads

MPI task timing breakdown:
Section |  min time  |  avg time  |  max time  |%varavg| %total
---------------------------------------------------------------
Pair    | 11.573     | 60.469     | 110.02     | 625.3 | 17.09
Neigh   | 5.7839     | 5.8937     | 6.0061     |   4.1 |  1.67
Comm    | 22.545     | 52.464     | 123.9      | 572.2 | 14.83
Output  | 0.28294    | 0.28329    | 0.28369    |   0.1 |  0.08
Modify  | 116.52     | 176.49     | 219.25     | 281.0 | 49.88
Other   |            | 58.23      |            |       | 16.46

Nlocal:         625.25 ave         876 max         375 min
Histogram: 2 0 0 0 0 0 0 0 0 2
Nghost:           1.75 ave           3 max           1 min
Histogram: 2 0 0 0 0 1 0 0 0 1
Neighs:         375.25 ave         751 max           0 min
Histogram: 2 0 0 0 0 0 0 0 0 2

Total # of neighbors = 1501
Ave neighs/atom = 0.60015994
Neighbor list builds = 172
Dangerous builds = 0

undump D1

############ Add spring between top chain to supp particle and then equilibrium  ###########

#fix sp1 support spring couple slider1 ${K0} ${lenspr} NULL NULL 0                                 # Add spring

#dump 		D2 all custom 100000 add_${num}*.dump id type diameter mass xu yu zu

#fix add1 all print 10 "${p0} ${distance} ${slider_z}" file add_distance_${num}.txt screen no      # out put step, distance(spring length), z-position of top chain

#run 1000000

#undump D2

#unfix add1

########## Pulling the supporting particle with constant velocity #############

#fix m1 support move linear 0.1 0 0 units box                                                      # apply constant velocity to supporting particles along x-direction V=0.1m/s

#fix move1 all print 100 "${p0} ${distance} ${slider_z}" file move_distance_${num}.txt screen no

#dump 		1 all custom 50000 move_${num}_*.dump id type diameter mass xu yu zu

#run 1000000

clear
  using 1 OpenMP thread(s) per MPI task

next num

jump SELF startloop

include granular.in
### Simulation of contact between two chain

##################### Simulation setup ####################

units micro                              # units
dimension	3                            # dimension
boundary	p p p                        # boundary condition p: periodic
atom_style	sphere                       # atom style
#processors * * 1

####################### Parameter ##################################

variable ind equal ${num}
variable ind equal 1

#variable lat0 equal 1                    #
variable lat1 equal 3+(300*0.01)+(v_ind*0.01)  # .491+(v_ind*0.001)       # Lattice distance of bottom chain
variable lat2 equal 3                    # Lattice distance of top chain
variable d1 equal 3                      # Diamter of particle at bottom chain
variable d2 equal 3                      # Diamter of particle at top chain
#variable d3 equal 1                      # Diamter of supporting particle

variable n2e1 equal 500*v_lat2             # Half length of top chain. 1500 is number of particles
variable n1e1 equal 1.5*v_n2e1*(v_lat1/v_lat2)             # Half length of bottom chain, which is 1.5 time larger than top chain
variable n1e2 equal -v_n1e1
variable n2e2 equal -v_n2e1
#variable lenspr equal -(v_n2e1+100)           # length of the spring connecting top chain and supporting particle
#variable lenspr1 equal -v_lenspr-0.1         # Position of supporting particle upper bound
#variable lenspr2 equal -v_lenspr+0.1         # Position of supporting particle lower bound

variable den equal 2.2 #grams/cm^3      # micrometer^3=10^-12 cm^3 Density of materials

variable V1 equal (1/6)*PI*(v_d1^3)     # Volume of particle 1
variable V2 equal (1/6)*PI*(v_d2^3)     # Volume of particle 2
#variable V3 equal (1/6)*PI*(v_d3^3)     # Volume of particle 3

variable mass1 equal v_den*v_V1  # Mass of particle 1 (picograms)
variable mass2 equal v_den*v_V2  # Mass of particle 2
#variable mass3 equal v_den*v_V3  # Mass of particle 3

# E GPa to picogram/(micrometer-microsecond^2)= 10^3 Pa= 10^-6 GPa
# Force unit(picogram-micrometer/microsecond^2)=10^-9 N= 1nN
# Spring stiffness (force/distance) 10^-3 N/m

variable K0 equal (1500/50)*(10^5)             # Spring stiffness conneting top chain and sup particle
variable E equal 100*(10^6)                    # Young's Modulus using for Hertz/material model
variable PR equal 0.3                          # Poisson's ratio using for Hertz/material model
variable Fn equal -1000                        # Force apply to each particles in top chain
variable dt equal 0.00001                      # Time step units microsecond
variable lgv equal 0.5                         #damping for langevin thermostat for slider


################### Creating the model #################################
lattice sc ${lat1}                                                               # Bottom chain type1
lattice sc 6.01                                                               
Lattice spacing in x,y,z = 6.01 6.01 6.01

region box block ${n1e2} ${n1e1} -100 100 -100 100 units box
region box block -4507.5 ${n1e1} -100 100 -100 100 units box
region box block -4507.5 4507.5 -100 100 -100 100 units box
region substrate block ${n1e2} ${n1e1} -0.5 0.5 0 0.5 units box
region substrate block -4507.5 ${n1e1} -0.5 0.5 0 0.5 units box
region substrate block -4507.5 4507.5 -0.5 0.5 0 0.5 units box

create_box 2 box
Created orthogonal box = (-4507.5 -100 -100) to (4507.5 100 100)
  4 by 1 by 1 MPI processor grid
create_atoms 1 region substrate
Created 1500 atoms
  using lattice units in orthogonal box = (-4507.5 -100 -100) to (4507.5 100 100)
  create_atoms CPU = 0.001 seconds

lattice sc ${lat2}                                                             # Top chain type2
lattice sc 3                                                             
Lattice spacing in x,y,z = 3 3 3

region slider1 block ${n2e2} ${n2e1} -0.1 0.1 5.9 6.1 units box
region slider1 block -1500 ${n2e1} -0.1 0.1 5.9 6.1 units box
region slider1 block -1500 1500 -0.1 0.1 5.9 6.1 units box

create_atoms 2 region slider1
Created 1001 atoms
  using lattice units in orthogonal box = (-4507.5 -100 -100) to (4507.5 100 100)
  create_atoms CPU = 0.001 seconds

#lattice sc ${lat0}                                                             # Supporting particle type3

#region support block ${lenspr1} ${lenspr2} -0.1 0.1 7.9 8.1 units box

#create_atoms 3 region support

set type 1 diameter ${d1}                    # Set mass and diameter for each particles type
set type 1 diameter 3                    
Setting atom values ...
  1500 settings made for diameter
set type 1 mass ${mass1}
set type 1 mass 31.101767270539
Setting atom values ...
  1500 settings made for mass
set type 2 diameter ${d2}
set type 2 diameter 3
Setting atom values ...
  1001 settings made for diameter
set type 2 mass ${mass2}
set type 2 mass 31.101767270539
Setting atom values ...
  1001 settings made for mass
#set type 3 diameter ${d3}
#set type 3 mass ${mass3}

group substrate region substrate           # Define gorup
1500 atoms in group substrate
group slider1 region slider1
1001 atoms in group slider1
#group support region support
#group substrate_slider union substrate slider1

########################## Potential ###################################
pair_style granular
pair_coeff 1 1 hertz/material 0.00000001 0.001 ${PR} tangential mindlin NULL 0.1 0.01 damping viscoelastic              ########### set E between each particle in same type is small to neglect their interaction
pair_coeff 1 1 hertz/material 0.00000001 0.001 0.3 tangential mindlin NULL 0.1 0.01 damping viscoelastic              
pair_coeff 2 2 hertz/material 0.00000001 0.001 ${PR} tangential mindlin NULL 0.1 0.01 damping viscoelastic
pair_coeff 2 2 hertz/material 0.00000001 0.001 0.3 tangential mindlin NULL 0.1 0.01 damping viscoelastic
#pair_coeff 3 3 hertz/material ${E} 0.001 ${PR} tangential mindlin NULL 0.1 0.01 damping viscoelastic
pair_coeff 1 2 hertz/material ${E} 0.001 ${PR} tangential mindlin NULL 0.1 0.01 damping viscoelastic
pair_coeff 1 2 hertz/material 100000000 0.001 ${PR} tangential mindlin NULL 0.1 0.01 damping viscoelastic
pair_coeff 1 2 hertz/material 100000000 0.001 0.3 tangential mindlin NULL 0.1 0.01 damping viscoelastic
#pair_coeff 1 3 hertz/material 0.00000001 0.001 ${PR} tangential mindlin NULL 0.1 0.01 damping viscoelastic
#pair_coeff 2 3 hertz/material 0.00000001 0.001 ${PR} tangential mindlin NULL 0.1 0.01 damping viscoelastic
comm_modify     vel yes
neigh_modify    delay 0 every 1 check yes

### Compute properties ###

compute 1 slider1 com                      # Compute the center of mass of top chain
#compute 2 support com                      # Compute the center of mass of supporting particle

variable p0 equal "step"

variable slider_z equal "c_1[3]"          # output the position of top chain in z-direction

#variable distance equal "c_2[1]-c_1[1]"   # Distance between COM of top chain and supporting particle

thermo 100000
thermo_style custom step lx ly lz press pxx pyy pzz ke pe temp c_1[1] c_1[2] c_1[3] #c_2[1] c_2[2] c_2[3] v_distance

############### Fix ##################


############## Equilibrium the system with apply force ########################

fix force_slider1 slider1 setforce NULL 0 NULL                                # Fix top chain not to move in y-direction

fix f_sub substrate freeze                                                    # Freeze the bottom chain

fix rigid_top slider1 rigid/nve group 1 slider1 langevin 0 0 ${lgv} 6987532   # NVE+langevin
fix rigid_top slider1 rigid/nve group 1 slider1 langevin 0 0 0.5 6987532   
  1 rigid bodies with 1001 atoms

fix add slider1 addforce 0 0 ${Fn} every 1                                    # Add force to top layer
fix add slider1 addforce 0 0 -1000 every 1                                    

timestep ${dt}
timestep 1e-05

# fix  nve_1 slider1 nve

dump 		D1 all custom 100000 Equi_${num}_*.dump id type diameter mass xu yu zu fx fy fz
dump 		D1 all custom 100000 Equi_1_*.dump id type diameter mass xu yu zu fx fy fz

run 3000000
Generated 0 of 1 mixed pair_coeff terms from geometric mixing rule
Neighbor list info ...
  update every 1 steps, delay 0 steps, check yes
  max neighbors/atom: 2000, page size: 100000
  master list distance cutoff = 3.1
  ghost atom cutoff = 3.1
  binsize = 1.55, bins = 5817 130 130
  1 neighbor lists, perpetual/occasional/extra = 1 0 0
  (1) pair granular, perpetual
      attributes: half, newton on, size, history
      pair build: half/size/bin/newton
      stencil: half/bin/3d
      bin: standard
Per MPI rank memory allocation (min/avg/max) = 114.4 | 114.4 | 114.4 Mbytes
   Step           Lx             Ly             Lz           Press           Pxx            Pyy            Pzz           KinEng         PotEng          Temp          c_1[1]         c_1[2]         c_1[3]    
         0   9015           200            200            0              0              0              0              0              0              0              1.1965779e-13  0              6            
    100000   9015           200            200            0.0022194946   4.48028e-36    0              0.0066584837   571198.06      0              5.5162221e+10  1.1965779e-13  0              3.3370948    
    200000   9015           200            200            0.00071289517 -1.7921066e-34  0              0.0021386855   119193.44      0              1.151085e+10   1.1965779e-13  0              3.0927309    
    300000   9015           200            200           -6.9997366e-05  5.7347629e-34  0             -0.0002099921   2885.0798      0              2.7862035e+08  1.1965779e-13  0              3.0377769    
    400000   9015           200            200            0.012691976    0.017518319    0              0.020557608    5866.7445      0              5.665682e+08   1.1965779e-13  0              2.9882666    
    500000   9015           200            200            0.0061222612   0.0056943691   0              0.012672414    848.34637      0              81927220       1.1965779e-13  0              2.9909039    
    600000   9015           200            200            0.0030204456   0.0028591733   0              0.0062021635   38.32023       0              3700693.6      1.1965779e-13  0              2.9936217    
    700000   9015           200            200            0.0037126851   0.0035886461   0              0.0075494091   7.1361085      0              689154.28      1.1965779e-13  0              2.9929421    
    800000   9015           200            200            0.0040232466   0.0037413823   0              0.0083283575   3.0546107      0              294992.43      1.1965779e-13  0              2.9925883    
    900000   9015           200            200            0.004055235    0.003746543    0              0.0084191621   0.075817184    0              7321.8809      1.1965779e-13  0              2.9925507    
   1000000   9015           200            200            0.0040274739   0.0037369333   0              0.0083454883   0.017223419    0              1663.3145      1.1965779e-13  0              2.9925841    
   1100000   9015           200            200            0.0040129737   0.0037321426   0              0.0083067784   0.0075349604   0              727.67254      1.1965779e-13  0              2.9926013    
   1200000   9015           200            200            0.0040112025   0.0037316914   0              0.008301916    0.00024449092  0              23.611183      1.1965779e-13  0              2.9926033    
   1300000   9015           200            200            0.0040124503   0.0037320905   0              0.0083052604   3.2546382e-05  0              3.1430966      1.1965779e-13  0              2.9926018    
   1400000   9015           200            200            0.0040131728   0.0037323151   0              0.0083072034   1.853017e-05   0              1.7895112      1.1965779e-13  0              2.9926009    
   1500000   9015           200            200            0.0040132822   0.0037323477   0              0.0083074989   7.8298512e-07  0              0.075615099    1.1965779e-13  0              2.9926008    
   1600000   9015           200            200            0.0040132267   0.0037323299   0              0.0083073502   5.8042288e-08  0              0.0056053088   1.1965779e-13  0              2.9926008    
   1700000   9015           200            200            0.0040131906   0.0037323187   0              0.0083072531   4.4980209e-08  0              0.0043438666   1.1965779e-13  0              2.9926009    
   1800000   9015           200            200            0.0040131842   0.0037323168   0              0.0083072359   2.402833e-09   0              0.00023204841  1.1965779e-13  0              2.9926009    
   1900000   9015           200            200            0.0040131866   0.0037323175   0              0.0083072424   9.5743387e-11  0              9.246211e-06   1.1965779e-13  0              2.9926009    
   2000000   9015           200            200            0.0040131884   0.0037323181   0              0.0083072472   1.0774072e-10  0              1.0404828e-05  1.1965779e-13  0              2.9926009    
   2100000   9015           200            200            0.0040131888   0.0037323182   0              0.0083072481   7.1287423e-12  0              6.8844291e-07  1.1965779e-13  0              2.9926009    
   2200000   9015           200            200            0.0040131887   0.0037323182   0              0.0083072479   1.4022797e-13  0              1.3542213e-08  1.1965779e-13  0              2.9926009    
   2300000   9015           200            200            0.0040131886   0.0037323182   0              0.0083072476   2.5444362e-13  0              2.4572344e-08  1.1965779e-13  0              2.9926009    
   2400000   9015           200            200            0.0040131886   0.0037323181   0              0.0083072476   2.0512408e-14  0              1.9809416e-09  1.1965779e-13  0              2.9926009    
   2500000   9015           200            200            0.0040131886   0.0037323181   0              0.0083072476   2.1426673e-16  0              2.0692347e-11  1.1965779e-13  0              2.9926009    
   2600000   9015           200            200            0.0040131886   0.0037323181   0              0.0083072476   5.7560839e-16  0              5.5588138e-11  1.1965779e-13  0              2.9926009    
   2700000   9015           200            200            0.0040131886   0.0037323181   0              0.0083072476   7.91625e-17    0              7.6449476e-12  1.1965779e-13  0              2.9926009    
   2800000   9015           200            200            0.0040131886   0.0037323181   0              0.0083072476   4.4468863e-19  0              4.2944845e-14  1.1965779e-13  0              2.9926009    
   2900000   9015           200            200            0.0040131886   0.0037323181   0              0.0083072476   7.4327475e-18  0              7.1780155e-13  1.1965779e-13  0              2.9926009    
   3000000   9015           200            200            0.0040131886   0.0037323181   0              0.0083072476   2.2724485e-19  0              2.1945681e-14  1.1965779e-13  0              2.9926009    
Loop time of 300.706 on 4 procs for 3000000 steps with 2501 atoms

Performance: 8619721.363 ns/day, 0.000 hours/ns, 9976.529 timesteps/s
100.0% CPU use with 4 MPI tasks x 1 OpenMP threads

MPI task timing breakdown:
Section |  min time  |  avg time  |  max time  |%varavg| %total
---------------------------------------------------------------
Pair    | 11.421     | 36.852     | 62.545     | 398.0 | 12.26
Neigh   | 5.5384     | 5.639      | 5.7409     |   3.8 |  1.88
Comm    | 23.787     | 40.73      | 76.276     | 325.3 | 13.54
Output  | 0.27243    | 0.27281    | 0.27321    |   0.1 |  0.09
Modify  | 111.43     | 159.99     | 181.02     | 226.0 | 53.21
Other   |            | 57.22      |            |       | 19.03

Nlocal:         625.25 ave         876 max         375 min
Histogram: 2 0 0 0 0 0 0 0 0 2
Nghost:           1.75 ave           3 max           1 min
Histogram: 2 0 0 0 0 1 0 0 0 1
Neighs:         303.25 ave         607 max           0 min
Histogram: 2 0 0 0 0 0 0 0 0 2

Total # of neighbors = 1213
Ave neighs/atom = 0.485006
Neighbor list builds = 164
Dangerous builds = 0

undump D1

############ Add spring between top chain to supp particle and then equilibrium  ###########

#fix sp1 support spring couple slider1 ${K0} ${lenspr} NULL NULL 0                                 # Add spring

#dump 		D2 all custom 100000 add_${num}*.dump id type diameter mass xu yu zu

#fix add1 all print 10 "${p0} ${distance} ${slider_z}" file add_distance_${num}.txt screen no      # out put step, distance(spring length), z-position of top chain

#run 1000000

#undump D2

#unfix add1

########## Pulling the supporting particle with constant velocity #############

#fix m1 support move linear 0.1 0 0 units box                                                      # apply constant velocity to supporting particles along x-direction V=0.1m/s

#fix move1 all print 100 "${p0} ${distance} ${slider_z}" file move_distance_${num}.txt screen no

#dump 		1 all custom 50000 move_${num}_*.dump id type diameter mass xu yu zu

#run 1000000

clear
  using 1 OpenMP thread(s) per MPI task

next num

jump SELF startloop

include granular.in
### Simulation of contact between two chain

##################### Simulation setup ####################

units micro                              # units
dimension	3                            # dimension
boundary	p p p                        # boundary condition p: periodic
atom_style	sphere                       # atom style
#processors * * 1

####################### Parameter ##################################

variable ind equal ${num}
variable ind equal 2

#variable lat0 equal 1                    #
variable lat1 equal 3+(300*0.01)+(v_ind*0.01)  # .491+(v_ind*0.001)       # Lattice distance of bottom chain
variable lat2 equal 3                    # Lattice distance of top chain
variable d1 equal 3                      # Diamter of particle at bottom chain
variable d2 equal 3                      # Diamter of particle at top chain
#variable d3 equal 1                      # Diamter of supporting particle

variable n2e1 equal 500*v_lat2             # Half length of top chain. 1500 is number of particles
variable n1e1 equal 1.5*v_n2e1*(v_lat1/v_lat2)             # Half length of bottom chain, which is 1.5 time larger than top chain
variable n1e2 equal -v_n1e1
variable n2e2 equal -v_n2e1
#variable lenspr equal -(v_n2e1+100)           # length of the spring connecting top chain and supporting particle
#variable lenspr1 equal -v_lenspr-0.1         # Position of supporting particle upper bound
#variable lenspr2 equal -v_lenspr+0.1         # Position of supporting particle lower bound

variable den equal 2.2 #grams/cm^3      # micrometer^3=10^-12 cm^3 Density of materials

variable V1 equal (1/6)*PI*(v_d1^3)     # Volume of particle 1
variable V2 equal (1/6)*PI*(v_d2^3)     # Volume of particle 2
#variable V3 equal (1/6)*PI*(v_d3^3)     # Volume of particle 3

variable mass1 equal v_den*v_V1  # Mass of particle 1 (picograms)
variable mass2 equal v_den*v_V2  # Mass of particle 2
#variable mass3 equal v_den*v_V3  # Mass of particle 3

# E GPa to picogram/(micrometer-microsecond^2)= 10^3 Pa= 10^-6 GPa
# Force unit(picogram-micrometer/microsecond^2)=10^-9 N= 1nN
# Spring stiffness (force/distance) 10^-3 N/m

variable K0 equal (1500/50)*(10^5)             # Spring stiffness conneting top chain and sup particle
variable E equal 100*(10^6)                    # Young's Modulus using for Hertz/material model
variable PR equal 0.3                          # Poisson's ratio using for Hertz/material model
variable Fn equal -1000                        # Force apply to each particles in top chain
variable dt equal 0.00001                      # Time step units microsecond
variable lgv equal 0.5                         #damping for langevin thermostat for slider


################### Creating the model #################################
lattice sc ${lat1}                                                               # Bottom chain type1
lattice sc 6.02                                                               
Lattice spacing in x,y,z = 6.02 6.02 6.02

region box block ${n1e2} ${n1e1} -100 100 -100 100 units box
region box block -4515 ${n1e1} -100 100 -100 100 units box
region box block -4515 4515 -100 100 -100 100 units box
region substrate block ${n1e2} ${n1e1} -0.5 0.5 0 0.5 units box
region substrate block -4515 ${n1e1} -0.5 0.5 0 0.5 units box
region substrate block -4515 4515 -0.5 0.5 0 0.5 units box

create_box 2 box
Created orthogonal box = (-4515 -100 -100) to (4515 100 100)
  4 by 1 by 1 MPI processor grid
create_atoms 1 region substrate
Created 1500 atoms
  using lattice units in orthogonal box = (-4515 -100 -100) to (4515 100 100)
  create_atoms CPU = 0.001 seconds

lattice sc ${lat2}                                                             # Top chain type2
lattice sc 3                                                             
Lattice spacing in x,y,z = 3 3 3

region slider1 block ${n2e2} ${n2e1} -0.1 0.1 5.9 6.1 units box
region slider1 block -1500 ${n2e1} -0.1 0.1 5.9 6.1 units box
region slider1 block -1500 1500 -0.1 0.1 5.9 6.1 units box

create_atoms 2 region slider1
Created 1001 atoms
  using lattice units in orthogonal box = (-4515 -100 -100) to (4515 100 100)
  create_atoms CPU = 0.001 seconds

#lattice sc ${lat0}                                                             # Supporting particle type3

#region support block ${lenspr1} ${lenspr2} -0.1 0.1 7.9 8.1 units box

#create_atoms 3 region support

set type 1 diameter ${d1}                    # Set mass and diameter for each particles type
set type 1 diameter 3                    
Setting atom values ...
  1500 settings made for diameter
set type 1 mass ${mass1}
set type 1 mass 31.101767270539
Setting atom values ...
  1500 settings made for mass
set type 2 diameter ${d2}
set type 2 diameter 3
Setting atom values ...
  1001 settings made for diameter
set type 2 mass ${mass2}
set type 2 mass 31.101767270539
Setting atom values ...
  1001 settings made for mass
#set type 3 diameter ${d3}
#set type 3 mass ${mass3}

group substrate region substrate           # Define gorup
1500 atoms in group substrate
group slider1 region slider1
1001 atoms in group slider1
#group support region support
#group substrate_slider union substrate slider1

########################## Potential ###################################
pair_style granular
pair_coeff 1 1 hertz/material 0.00000001 0.001 ${PR} tangential mindlin NULL 0.1 0.01 damping viscoelastic              ########### set E between each particle in same type is small to neglect their interaction
pair_coeff 1 1 hertz/material 0.00000001 0.001 0.3 tangential mindlin NULL 0.1 0.01 damping viscoelastic              
pair_coeff 2 2 hertz/material 0.00000001 0.001 ${PR} tangential mindlin NULL 0.1 0.01 damping viscoelastic
pair_coeff 2 2 hertz/material 0.00000001 0.001 0.3 tangential mindlin NULL 0.1 0.01 damping viscoelastic
#pair_coeff 3 3 hertz/material ${E} 0.001 ${PR} tangential mindlin NULL 0.1 0.01 damping viscoelastic
pair_coeff 1 2 hertz/material ${E} 0.001 ${PR} tangential mindlin NULL 0.1 0.01 damping viscoelastic
pair_coeff 1 2 hertz/material 100000000 0.001 ${PR} tangential mindlin NULL 0.1 0.01 damping viscoelastic
pair_coeff 1 2 hertz/material 100000000 0.001 0.3 tangential mindlin NULL 0.1 0.01 damping viscoelastic
#pair_coeff 1 3 hertz/material 0.00000001 0.001 ${PR} tangential mindlin NULL 0.1 0.01 damping viscoelastic
#pair_coeff 2 3 hertz/material 0.00000001 0.001 ${PR} tangential mindlin NULL 0.1 0.01 damping viscoelastic
comm_modify     vel yes
neigh_modify    delay 0 every 1 check yes

### Compute properties ###

compute 1 slider1 com                      # Compute the center of mass of top chain
#compute 2 support com                      # Compute the center of mass of supporting particle

variable p0 equal "step"

variable slider_z equal "c_1[3]"          # output the position of top chain in z-direction

#variable distance equal "c_2[1]-c_1[1]"   # Distance between COM of top chain and supporting particle

thermo 100000
thermo_style custom step lx ly lz press pxx pyy pzz ke pe temp c_1[1] c_1[2] c_1[3] #c_2[1] c_2[2] c_2[3] v_distance

############### Fix ##################


############## Equilibrium the system with apply force ########################

fix force_slider1 slider1 setforce NULL 0 NULL                                # Fix top chain not to move in y-direction

fix f_sub substrate freeze                                                    # Freeze the bottom chain

fix rigid_top slider1 rigid/nve group 1 slider1 langevin 0 0 ${lgv} 6987532   # NVE+langevin
fix rigid_top slider1 rigid/nve group 1 slider1 langevin 0 0 0.5 6987532   
  1 rigid bodies with 1001 atoms

fix add slider1 addforce 0 0 ${Fn} every 1                                    # Add force to top layer
fix add slider1 addforce 0 0 -1000 every 1                                    

timestep ${dt}
timestep 1e-05

# fix  nve_1 slider1 nve

dump 		D1 all custom 100000 Equi_${num}_*.dump id type diameter mass xu yu zu fx fy fz
dump 		D1 all custom 100000 Equi_2_*.dump id type diameter mass xu yu zu fx fy fz

run 3000000
Generated 0 of 1 mixed pair_coeff terms from geometric mixing rule
Neighbor list info ...
  update every 1 steps, delay 0 steps, check yes
  max neighbors/atom: 2000, page size: 100000
  master list distance cutoff = 3.1
  ghost atom cutoff = 3.1
  binsize = 1.55, bins = 5826 130 130
  1 neighbor lists, perpetual/occasional/extra = 1 0 0
  (1) pair granular, perpetual
      attributes: half, newton on, size, history
      pair build: half/size/bin/newton
      stencil: half/bin/3d
      bin: standard
Per MPI rank memory allocation (min/avg/max) = 114.4 | 114.5 | 114.5 Mbytes
   Step           Lx             Ly             Lz           Press           Pxx            Pyy            Pzz           KinEng         PotEng          Temp          c_1[1]         c_1[2]         c_1[3]    
         0   9030           200            200            0              0              0              0              0              0              0              1.1965779e-13  0              6            
    100000   9030           200            200            0.0022319611   2.2364174e-35  0              0.0066958832   577402.26      0              5.5761377e+10  1.1965779e-13  0              3.3325534    
    200000   9030           200            200            0.00075059564  1.7891526e-34  0              0.0022517869   129599.13      0              1.2515756e+10  1.1965779e-13  0              3.0846593    
    300000   9030           200            200           -1.4802083e-05  1.7891465e-35  0             -4.4406249e-05  113.84574      0              10994406       1.1965779e-13  0              3.0434225    
    400000   9030           200            200           -2.7112307e-05 -1.7891298e-34  0             -8.1336921e-05  403.54288      0              38971283       1.1965779e-13  0              3.0049062    
    500000   9030           200            200            0.0034720528   0.0019898839   0              0.0084262747   1405.4621      0              1.3572947e+08  1.1965779e-13  0              2.9938603    
    600000   9030           200            200            0.0022358139   0.001088327    0              0.0056191148   11.148152      0              1076608.8      1.1965779e-13  0              2.9950253    
    700000   9030           200            200            0.003511458    0.0015357416   0              0.0089986324   15.030905      0              1451577.2      1.1965779e-13  0              2.9937161    
    800000   9030           200            200            0.0032159858   0.0014918633   0              0.008156094    2.9848019      0              288250.81      1.1965779e-13  0              2.9940094    
    900000   9030           200            200            0.0032655034   0.0014939944   0              0.0083025158   0.45802976     0              44233.236      1.1965779e-13  0              2.9939596    
   1000000   9030           200            200            0.0032687721   0.0014945978   0              0.0083117186   0.056914728    0              5496.4171      1.1965779e-13  0              2.9939549    
   1100000   9030           200            200            0.0032598873   0.001493359    0              0.008286303    0.0056566228   0              546.27614      1.1965779e-13  0              2.9939646    
   1200000   9030           200            200            0.0032656731   0.0014941471   0              0.0083028722   0.00041409222  0              39.990063      1.1965779e-13  0              2.9939585    
   1300000   9030           200            200            0.0032628349   0.0014937654   0              0.0082947394   1.646597e-05   0              1.5901656      1.1965779e-13  0              2.9939615    
   1400000   9030           200            200            0.0032640362   0.001493926    0              0.0082981827   7.7804591e-09  0              0.00075138105  1.1965779e-13  0              2.9939602    
   1500000   9030           200            200            0.0032635804   0.0014938655   0              0.0082968756   2.3612439e-07  0              0.022803203    1.1965779e-13  0              2.9939607    
   1600000   9030           200            200            0.0032637366   0.0014938861   0              0.0082973237   1.2334606e-07  0              0.01191188     1.1965779e-13  0              2.9939605    
   1700000   9030           200            200            0.003263689    0.0014938798   0              0.0082971872   3.2280957e-08  0              0.0031174638   1.1965779e-13  0              2.9939606    
   1800000   9030           200            200            0.0032637012   0.0014938814   0              0.0082972221   6.0948189e-09  0              0.00058859399  1.1965779e-13  0              2.9939606    
   1900000   9030           200            200            0.0032636991   0.0014938812   0              0.0082972161   9.1631302e-10  0              8.8490953e-05  1.1965779e-13  0              2.9939606    
   2000000   9030           200            200            0.0032636989   0.0014938811   0              0.0082972156   1.1243201e-10  0              1.0857879e-05  1.1965779e-13  0              2.9939606    
   2100000   9030           200            200            0.0032636993   0.0014938812   0              0.0082972168   1.102054e-11   0              1.0642848e-06  1.1965779e-13  0              2.9939606    
   2200000   9030           200            200            0.0032636991   0.0014938811   0              0.008297216    7.8712945e-13  0              7.6015328e-08  1.1965779e-13  0              2.9939606    
   2300000   9030           200            200            0.0032636992   0.0014938812   0              0.0082972164   2.9300155e-14  0              2.8295993e-09  1.1965779e-13  0              2.9939606    
   2400000   9030           200            200            0.0032636991   0.0014938812   0              0.0082972162   6.8611812e-19  0              6.6260377e-14  1.1965779e-13  0              2.9939606    
   2500000   9030           200            200            0.0032636991   0.0014938812   0              0.0082972163   5.4368374e-16  0              5.2505084e-11  1.1965779e-13  0              2.9939606    
   2600000   9030           200            200            0.0032636991   0.0014938812   0              0.0082972163   2.6375743e-16  0              2.5471805e-11  1.1965779e-13  0              2.9939606    
   2700000   9030           200            200            0.0032636991   0.0014938812   0              0.0082972163   4.942272e-17   0              4.7728925e-12  1.1965779e-13  0              2.9939606    
   2800000   9030           200            200            0.0032636991   0.0014938812   0              0.0082972163   8.0007622e-18  0              7.7265634e-13  1.1965779e-13  0              2.9939606    
   2900000   9030           200            200            0.0032636991   0.0014938812   0              0.0082972163   3.9827835e-18  0              3.8462872e-13  1.1965779e-13  0              2.9939606    
   3000000   9030           200            200            0.0032636991   0.0014938812   0              0.0082972163   5.2525519e-18  0              5.0725387e-13  1.1965779e-13  0              2.9939606    
Loop time of 301.943 on 4 procs for 3000000 steps with 2501 atoms

Performance: 8584399.642 ns/day, 0.000 hours/ns, 9935.648 timesteps/s
100.0% CPU use with 4 MPI tasks x 1 OpenMP threads

MPI task timing breakdown:
Section |  min time  |  avg time  |  max time  |%varavg| %total
---------------------------------------------------------------
Pair    | 11.048     | 36.261     | 61.931     | 413.0 | 12.01
Neigh   | 5.6324     | 5.7287     | 5.8264     |   3.7 |  1.90
Comm    | 22.487     | 40.612     | 77.919     | 342.4 | 13.45
Output  | 0.26697    | 0.26729    | 0.26766    |   0.1 |  0.09
Modify  | 113.45     | 161.92     | 182.87     | 223.1 | 53.63
Other   |            | 57.15      |            |       | 18.93

Nlocal:         625.25 ave         876 max         375 min
Histogram: 2 0 0 0 0 0 0 0 0 2
Nghost:           1.75 ave           3 max           1 min
Histogram: 2 0 0 0 0 1 0 0 0 1
Neighs:         309.25 ave         619 max           0 min
Histogram: 2 0 0 0 0 0 0 0 0 2

Total # of neighbors = 1237
Ave neighs/atom = 0.49460216
Neighbor list builds = 166
Dangerous builds = 0

undump D1

############ Add spring between top chain to supp particle and then equilibrium  ###########

#fix sp1 support spring couple slider1 ${K0} ${lenspr} NULL NULL 0                                 # Add spring

#dump 		D2 all custom 100000 add_${num}*.dump id type diameter mass xu yu zu

#fix add1 all print 10 "${p0} ${distance} ${slider_z}" file add_distance_${num}.txt screen no      # out put step, distance(spring length), z-position of top chain

#run 1000000

#undump D2

#unfix add1

########## Pulling the supporting particle with constant velocity #############

#fix m1 support move linear 0.1 0 0 units box                                                      # apply constant velocity to supporting particles along x-direction V=0.1m/s

#fix move1 all print 100 "${p0} ${distance} ${slider_z}" file move_distance_${num}.txt screen no

#dump 		1 all custom 50000 move_${num}_*.dump id type diameter mass xu yu zu

#run 1000000

clear
  using 1 OpenMP thread(s) per MPI task

next num

jump SELF startloop

include granular.in
### Simulation of contact between two chain

##################### Simulation setup ####################

units micro                              # units
dimension	3                            # dimension
boundary	p p p                        # boundary condition p: periodic
atom_style	sphere                       # atom style
#processors * * 1

####################### Parameter ##################################

variable ind equal ${num}
variable ind equal 3

#variable lat0 equal 1                    #
variable lat1 equal 3+(300*0.01)+(v_ind*0.01)  # .491+(v_ind*0.001)       # Lattice distance of bottom chain
variable lat2 equal 3                    # Lattice distance of top chain
variable d1 equal 3                      # Diamter of particle at bottom chain
variable d2 equal 3                      # Diamter of particle at top chain
#variable d3 equal 1                      # Diamter of supporting particle

variable n2e1 equal 500*v_lat2             # Half length of top chain. 1500 is number of particles
variable n1e1 equal 1.5*v_n2e1*(v_lat1/v_lat2)             # Half length of bottom chain, which is 1.5 time larger than top chain
variable n1e2 equal -v_n1e1
variable n2e2 equal -v_n2e1
#variable lenspr equal -(v_n2e1+100)           # length of the spring connecting top chain and supporting particle
#variable lenspr1 equal -v_lenspr-0.1         # Position of supporting particle upper bound
#variable lenspr2 equal -v_lenspr+0.1         # Position of supporting particle lower bound

variable den equal 2.2 #grams/cm^3      # micrometer^3=10^-12 cm^3 Density of materials

variable V1 equal (1/6)*PI*(v_d1^3)     # Volume of particle 1
variable V2 equal (1/6)*PI*(v_d2^3)     # Volume of particle 2
#variable V3 equal (1/6)*PI*(v_d3^3)     # Volume of particle 3

variable mass1 equal v_den*v_V1  # Mass of particle 1 (picograms)
variable mass2 equal v_den*v_V2  # Mass of particle 2
#variable mass3 equal v_den*v_V3  # Mass of particle 3

# E GPa to picogram/(micrometer-microsecond^2)= 10^3 Pa= 10^-6 GPa
# Force unit(picogram-micrometer/microsecond^2)=10^-9 N= 1nN
# Spring stiffness (force/distance) 10^-3 N/m

variable K0 equal (1500/50)*(10^5)             # Spring stiffness conneting top chain and sup particle
variable E equal 100*(10^6)                    # Young's Modulus using for Hertz/material model
variable PR equal 0.3                          # Poisson's ratio using for Hertz/material model
variable Fn equal -1000                        # Force apply to each particles in top chain
variable dt equal 0.00001                      # Time step units microsecond
variable lgv equal 0.5                         #damping for langevin thermostat for slider


################### Creating the model #################################
lattice sc ${lat1}                                                               # Bottom chain type1
lattice sc 6.03                                                               
Lattice spacing in x,y,z = 6.03 6.03 6.03

region box block ${n1e2} ${n1e1} -100 100 -100 100 units box
region box block -4522.5 ${n1e1} -100 100 -100 100 units box
region box block -4522.5 4522.5 -100 100 -100 100 units box
region substrate block ${n1e2} ${n1e1} -0.5 0.5 0 0.5 units box
region substrate block -4522.5 ${n1e1} -0.5 0.5 0 0.5 units box
region substrate block -4522.5 4522.5 -0.5 0.5 0 0.5 units box

create_box 2 box
Created orthogonal box = (-4522.5 -100 -100) to (4522.5 100 100)
  4 by 1 by 1 MPI processor grid
create_atoms 1 region substrate
Created 1500 atoms
  using lattice units in orthogonal box = (-4522.5 -100 -100) to (4522.5 100 100)
  create_atoms CPU = 0.001 seconds

lattice sc ${lat2}                                                             # Top chain type2
lattice sc 3                                                             
Lattice spacing in x,y,z = 3 3 3

region slider1 block ${n2e2} ${n2e1} -0.1 0.1 5.9 6.1 units box
region slider1 block -1500 ${n2e1} -0.1 0.1 5.9 6.1 units box
region slider1 block -1500 1500 -0.1 0.1 5.9 6.1 units box

create_atoms 2 region slider1
Created 1001 atoms
  using lattice units in orthogonal box = (-4522.5 -100 -100) to (4522.5 100 100)
  create_atoms CPU = 0.001 seconds

#lattice sc ${lat0}                                                             # Supporting particle type3

#region support block ${lenspr1} ${lenspr2} -0.1 0.1 7.9 8.1 units box

#create_atoms 3 region support

set type 1 diameter ${d1}                    # Set mass and diameter for each particles type
set type 1 diameter 3                    
Setting atom values ...
  1500 settings made for diameter
set type 1 mass ${mass1}
set type 1 mass 31.101767270539
Setting atom values ...
  1500 settings made for mass
set type 2 diameter ${d2}
set type 2 diameter 3
Setting atom values ...
  1001 settings made for diameter
set type 2 mass ${mass2}
set type 2 mass 31.101767270539
Setting atom values ...
  1001 settings made for mass
#set type 3 diameter ${d3}
#set type 3 mass ${mass3}

group substrate region substrate           # Define gorup
1500 atoms in group substrate
group slider1 region slider1
1001 atoms in group slider1
#group support region support
#group substrate_slider union substrate slider1

########################## Potential ###################################
pair_style granular
pair_coeff 1 1 hertz/material 0.00000001 0.001 ${PR} tangential mindlin NULL 0.1 0.01 damping viscoelastic              ########### set E between each particle in same type is small to neglect their interaction
pair_coeff 1 1 hertz/material 0.00000001 0.001 0.3 tangential mindlin NULL 0.1 0.01 damping viscoelastic              
pair_coeff 2 2 hertz/material 0.00000001 0.001 ${PR} tangential mindlin NULL 0.1 0.01 damping viscoelastic
pair_coeff 2 2 hertz/material 0.00000001 0.001 0.3 tangential mindlin NULL 0.1 0.01 damping viscoelastic
#pair_coeff 3 3 hertz/material ${E} 0.001 ${PR} tangential mindlin NULL 0.1 0.01 damping viscoelastic
pair_coeff 1 2 hertz/material ${E} 0.001 ${PR} tangential mindlin NULL 0.1 0.01 damping viscoelastic
pair_coeff 1 2 hertz/material 100000000 0.001 ${PR} tangential mindlin NULL 0.1 0.01 damping viscoelastic
pair_coeff 1 2 hertz/material 100000000 0.001 0.3 tangential mindlin NULL 0.1 0.01 damping viscoelastic
#pair_coeff 1 3 hertz/material 0.00000001 0.001 ${PR} tangential mindlin NULL 0.1 0.01 damping viscoelastic
#pair_coeff 2 3 hertz/material 0.00000001 0.001 ${PR} tangential mindlin NULL 0.1 0.01 damping viscoelastic
comm_modify     vel yes
neigh_modify    delay 0 every 1 check yes

### Compute properties ###

compute 1 slider1 com                      # Compute the center of mass of top chain
#compute 2 support com                      # Compute the center of mass of supporting particle

variable p0 equal "step"

variable slider_z equal "c_1[3]"          # output the position of top chain in z-direction

#variable distance equal "c_2[1]-c_1[1]"   # Distance between COM of top chain and supporting particle

thermo 100000
thermo_style custom step lx ly lz press pxx pyy pzz ke pe temp c_1[1] c_1[2] c_1[3] #c_2[1] c_2[2] c_2[3] v_distance

############### Fix ##################


############## Equilibrium the system with apply force ########################

fix force_slider1 slider1 setforce NULL 0 NULL                                # Fix top chain not to move in y-direction

fix f_sub substrate freeze                                                    # Freeze the bottom chain

fix rigid_top slider1 rigid/nve group 1 slider1 langevin 0 0 ${lgv} 6987532   # NVE+langevin
fix rigid_top slider1 rigid/nve group 1 slider1 langevin 0 0 0.5 6987532   
  1 rigid bodies with 1001 atoms

fix add slider1 addforce 0 0 ${Fn} every 1                                    # Add force to top layer
fix add slider1 addforce 0 0 -1000 every 1                                    

timestep ${dt}
timestep 1e-05

# fix  nve_1 slider1 nve

dump 		D1 all custom 100000 Equi_${num}_*.dump id type diameter mass xu yu zu fx fy fz
dump 		D1 all custom 100000 Equi_3_*.dump id type diameter mass xu yu zu fx fy fz

run 3000000
Generated 0 of 1 mixed pair_coeff terms from geometric mixing rule
Neighbor list info ...
  update every 1 steps, delay 0 steps, check yes
  max neighbors/atom: 2000, page size: 100000
  master list distance cutoff = 3.1
  ghost atom cutoff = 3.1
  binsize = 1.55, bins = 5836 130 130
  1 neighbor lists, perpetual/occasional/extra = 1 0 0
  (1) pair granular, perpetual
      attributes: half, newton on, size, history
      pair build: half/size/bin/newton
      stencil: half/bin/3d
      bin: standard
Per MPI rank memory allocation (min/avg/max) = 114.6 | 114.6 | 114.7 Mbytes
   Step           Lx             Ly             Lz           Press           Pxx            Pyy            Pzz           KinEng         PotEng          Temp          c_1[1]         c_1[2]         c_1[3]    
         0   9045           200            200            0              0              0              0              0              0              0              1.1965779e-13  0              6            
    100000   9045           200            200            0.0022322943   2.2327103e-36  0              0.0066968828   578967.43      0              5.5912531e+10  1.1965779e-13  0              3.3313343    
    200000   9045           200            200            0.00075880488 -3.5722889e-35  0              0.0022764146   132175.53      0              1.2764567e+10  1.1965779e-13  0              3.0826026    
    300000   9045           200            200           -8.4835048e-07  1.7862054e-35  0             -2.5450514e-06  0.32078451     0              30979.072      1.1965779e-13  0              3.0442345    
    400000   9045           200            200            7.1068864e-06  1.4214356e-40  0              2.1320659e-05  26.492282      0              2558435        1.1965779e-13  0              3.0057366    
    500000   9045           200            200            0.00066854976  0.00012405507  0              0.0018815942   129.2957       0              12486454       1.1965779e-13  0              2.9973032    
    600000   9045           200            200            0.003276286    0.0010929937   0              0.0087358644   189.69199      0              18319094       1.1965779e-13  0              2.9940949    
    700000   9045           200            200            0.0034386368   0.00099598918  0              0.0093199212   4.5300452      0              437479.34      1.1965779e-13  0              2.9939192    
    800000   9045           200            200            0.0032158525   0.00094882684  0              0.0086987305   0.010115879    0              976.91922      1.1965779e-13  0              2.9941263    
    900000   9045           200            200            0.0031183922   0.00093363143  0              0.0084215451   0.086234525    0              8327.9132      1.1965779e-13  0              2.9942199    
   1000000   9045           200            200            0.0030844376   0.00093067587  0              0.0083226369   0.033712087    0              3255.672       1.1965779e-13  0              2.9942535    
   1100000   9045           200            200            0.003073951    0.00092979126  0              0.0082920617   0.0073790009   0              712.61109      1.1965779e-13  0              2.9942638    
   1200000   9045           200            200            0.003071338    0.00092957151  0              0.0082844426   0.0011560347   0              111.64155      1.1965779e-13  0              2.9942664    
   1300000   9045           200            200            0.0030709644   0.00092954182  0              0.0082833515   0.00013624309  0              13.157382      1.1965779e-13  0              2.9942667    
   1400000   9045           200            200            0.0030710614   0.00092955125  0              0.0082836329   1.1547656e-05  0              1.11519        1.1965779e-13  0              2.9942666    
   1500000   9045           200            200            0.0030711781   0.0009295617   0              0.0082839727   5.6251294e-07  0              0.054323473    1.1965779e-13  0              2.9942665    
   1600000   9045           200            200            0.0030712449   0.00092956757  0              0.0082841672   2.9858214e-09  0              0.00028834926  1.1965779e-13  0              2.9942664    
   1700000   9045           200            200            0.0030712749   0.00092957019  0              0.0082842544   4.0700721e-09  0              0.00039305843  1.1965779e-13  0              2.9942664    
   1800000   9045           200            200            0.0030712863   0.00092957118  0              0.0082842879   2.6023261e-09  0              0.00025131403  1.1965779e-13  0              2.9942664    
   1900000   9045           200            200            0.0030712902   0.00092957151  0              0.0082842989   6.9117632e-10  0              6.6748862e-05  1.1965779e-13  0              2.9942664    
   2000000   9045           200            200            0.0030712912   0.0009295716   0              0.008284302    1.2326318e-10  0              1.1903875e-05  1.1965779e-13  0              2.9942664    
   2100000   9045           200            200            0.0030712914   0.00092957161  0              0.0082843026   1.6386505e-11  0              1.5824913e-06  1.1965779e-13  0              2.9942664    
   2200000   9045           200            200            0.0030712914   0.00092957161  0              0.0082843026   1.6161755e-12  0              1.5607866e-07  1.1965779e-13  0              2.9942664    
   2300000   9045           200            200            0.0030712914   0.00092957161  0              0.0082843026   1.048813e-13   0              1.0128685e-08  1.1965779e-13  0              2.9942664    
   2400000   9045           200            200            0.0030712914   0.00092957161  0              0.0082843025   2.6022824e-15  0              2.5130981e-10  1.1965779e-13  0              2.9942664    
   2500000   9045           200            200            0.0030712914   0.00092957161  0              0.0082843025   1.1489499e-16  0              1.1095736e-11  1.1965779e-13  0              2.9942664    
   2600000   9045           200            200            0.0030712914   0.00092957161  0              0.0082843025   1.7893994e-16  0              1.7280739e-11  1.1965779e-13  0              2.9942664    
   2700000   9045           200            200            0.0030712914   0.00092957161  0              0.0082843025   4.4900574e-17  0              4.3361761e-12  1.1965779e-13  0              2.9942664    
   2800000   9045           200            200            0.0030712914   0.00092957161  0              0.0082843025   7.0992626e-18  0              6.8559597e-13  1.1965779e-13  0              2.9942664    
   2900000   9045           200            200            0.0030712914   0.00092957161  0              0.0082843025   5.4387045e-18  0              5.2523115e-13  1.1965779e-13  0              2.9942664    
   3000000   9045           200            200            0.0030712914   0.00092957161  0              0.0082843025   1.9756076e-18  0              1.9079004e-13  1.1965779e-13  0              2.9942664    
Loop time of 307.529 on 4 procs for 3000000 steps with 2501 atoms

Performance: 8428481.860 ns/day, 0.000 hours/ns, 9755.187 timesteps/s
100.0% CPU use with 4 MPI tasks x 1 OpenMP threads

MPI task timing breakdown:
Section |  min time  |  avg time  |  max time  |%varavg| %total
---------------------------------------------------------------
Pair    | 11.348     | 38.015     | 65.726     | 424.6 | 12.36
Neigh   | 5.6127     | 5.7108     | 5.8105     |   3.7 |  1.86
Comm    | 22.912     | 41.83      | 81.285     | 356.4 | 13.60
Output  | 0.27104    | 0.27137    | 0.27173    |   0.1 |  0.09
Modify  | 113        | 163.45     | 185.08     | 230.4 | 53.15
Other   |            | 58.25      |            |       | 18.94

Nlocal:         625.25 ave         876 max         375 min
Histogram: 2 0 0 0 0 0 0 0 0 2
Nghost:           1.75 ave           3 max           1 min
Histogram: 2 0 0 0 0 1 0 0 0 1
Neighs:         316.25 ave         633 max           0 min
Histogram: 2 0 0 0 0 0 0 0 0 2

Total # of neighbors = 1265
Ave neighs/atom = 0.50579768
Neighbor list builds = 166
Dangerous builds = 0

undump D1

############ Add spring between top chain to supp particle and then equilibrium  ###########

#fix sp1 support spring couple slider1 ${K0} ${lenspr} NULL NULL 0                                 # Add spring

#dump 		D2 all custom 100000 add_${num}*.dump id type diameter mass xu yu zu

#fix add1 all print 10 "${p0} ${distance} ${slider_z}" file add_distance_${num}.txt screen no      # out put step, distance(spring length), z-position of top chain

#run 1000000

#undump D2

#unfix add1

########## Pulling the supporting particle with constant velocity #############

#fix m1 support move linear 0.1 0 0 units box                                                      # apply constant velocity to supporting particles along x-direction V=0.1m/s

#fix move1 all print 100 "${p0} ${distance} ${slider_z}" file move_distance_${num}.txt screen no

#dump 		1 all custom 50000 move_${num}_*.dump id type diameter mass xu yu zu

#run 1000000

clear
  using 1 OpenMP thread(s) per MPI task

next num

jump SELF startloop

include granular.in
### Simulation of contact between two chain

##################### Simulation setup ####################

units micro                              # units
dimension	3                            # dimension
boundary	p p p                        # boundary condition p: periodic
atom_style	sphere                       # atom style
#processors * * 1

####################### Parameter ##################################

variable ind equal ${num}
variable ind equal 4

#variable lat0 equal 1                    #
variable lat1 equal 3+(300*0.01)+(v_ind*0.01)  # .491+(v_ind*0.001)       # Lattice distance of bottom chain
variable lat2 equal 3                    # Lattice distance of top chain
variable d1 equal 3                      # Diamter of particle at bottom chain
variable d2 equal 3                      # Diamter of particle at top chain
#variable d3 equal 1                      # Diamter of supporting particle

variable n2e1 equal 500*v_lat2             # Half length of top chain. 1500 is number of particles
variable n1e1 equal 1.5*v_n2e1*(v_lat1/v_lat2)             # Half length of bottom chain, which is 1.5 time larger than top chain
variable n1e2 equal -v_n1e1
variable n2e2 equal -v_n2e1
#variable lenspr equal -(v_n2e1+100)           # length of the spring connecting top chain and supporting particle
#variable lenspr1 equal -v_lenspr-0.1         # Position of supporting particle upper bound
#variable lenspr2 equal -v_lenspr+0.1         # Position of supporting particle lower bound

variable den equal 2.2 #grams/cm^3      # micrometer^3=10^-12 cm^3 Density of materials

variable V1 equal (1/6)*PI*(v_d1^3)     # Volume of particle 1
variable V2 equal (1/6)*PI*(v_d2^3)     # Volume of particle 2
#variable V3 equal (1/6)*PI*(v_d3^3)     # Volume of particle 3

variable mass1 equal v_den*v_V1  # Mass of particle 1 (picograms)
variable mass2 equal v_den*v_V2  # Mass of particle 2
#variable mass3 equal v_den*v_V3  # Mass of particle 3

# E GPa to picogram/(micrometer-microsecond^2)= 10^3 Pa= 10^-6 GPa
# Force unit(picogram-micrometer/microsecond^2)=10^-9 N= 1nN
# Spring stiffness (force/distance) 10^-3 N/m

variable K0 equal (1500/50)*(10^5)             # Spring stiffness conneting top chain and sup particle
variable E equal 100*(10^6)                    # Young's Modulus using for Hertz/material model
variable PR equal 0.3                          # Poisson's ratio using for Hertz/material model
variable Fn equal -1000                        # Force apply to each particles in top chain
variable dt equal 0.00001                      # Time step units microsecond
variable lgv equal 0.5                         #damping for langevin thermostat for slider


################### Creating the model #################################
lattice sc ${lat1}                                                               # Bottom chain type1
lattice sc 6.04                                                               
Lattice spacing in x,y,z = 6.04 6.04 6.04

region box block ${n1e2} ${n1e1} -100 100 -100 100 units box
region box block -4530 ${n1e1} -100 100 -100 100 units box
region box block -4530 4530 -100 100 -100 100 units box
region substrate block ${n1e2} ${n1e1} -0.5 0.5 0 0.5 units box
region substrate block -4530 ${n1e1} -0.5 0.5 0 0.5 units box
region substrate block -4530 4530 -0.5 0.5 0 0.5 units box

create_box 2 box
Created orthogonal box = (-4530 -100 -100) to (4530 100 100)
  4 by 1 by 1 MPI processor grid
create_atoms 1 region substrate
Created 1500 atoms
  using lattice units in orthogonal box = (-4530 -100 -100) to (4530 100 100)
  create_atoms CPU = 0.001 seconds

lattice sc ${lat2}                                                             # Top chain type2
lattice sc 3                                                             
Lattice spacing in x,y,z = 3 3 3

region slider1 block ${n2e2} ${n2e1} -0.1 0.1 5.9 6.1 units box
region slider1 block -1500 ${n2e1} -0.1 0.1 5.9 6.1 units box
region slider1 block -1500 1500 -0.1 0.1 5.9 6.1 units box

create_atoms 2 region slider1
Created 1001 atoms
  using lattice units in orthogonal box = (-4530 -100 -100) to (4530 100 100)
  create_atoms CPU = 0.001 seconds

#lattice sc ${lat0}                                                             # Supporting particle type3

#region support block ${lenspr1} ${lenspr2} -0.1 0.1 7.9 8.1 units box

#create_atoms 3 region support

set type 1 diameter ${d1}                    # Set mass and diameter for each particles type
set type 1 diameter 3                    
Setting atom values ...
  1500 settings made for diameter
set type 1 mass ${mass1}
set type 1 mass 31.101767270539
Setting atom values ...
  1500 settings made for mass
set type 2 diameter ${d2}
set type 2 diameter 3
Setting atom values ...
  1001 settings made for diameter
set type 2 mass ${mass2}
set type 2 mass 31.101767270539
Setting atom values ...
  1001 settings made for mass
#set type 3 diameter ${d3}
#set type 3 mass ${mass3}

group substrate region substrate           # Define gorup
1500 atoms in group substrate
group slider1 region slider1
1001 atoms in group slider1
#group support region support
#group substrate_slider union substrate slider1

########################## Potential ###################################
pair_style granular
pair_coeff 1 1 hertz/material 0.00000001 0.001 ${PR} tangential mindlin NULL 0.1 0.01 damping viscoelastic              ########### set E between each particle in same type is small to neglect their interaction
pair_coeff 1 1 hertz/material 0.00000001 0.001 0.3 tangential mindlin NULL 0.1 0.01 damping viscoelastic              
pair_coeff 2 2 hertz/material 0.00000001 0.001 ${PR} tangential mindlin NULL 0.1 0.01 damping viscoelastic
pair_coeff 2 2 hertz/material 0.00000001 0.001 0.3 tangential mindlin NULL 0.1 0.01 damping viscoelastic
#pair_coeff 3 3 hertz/material ${E} 0.001 ${PR} tangential mindlin NULL 0.1 0.01 damping viscoelastic
pair_coeff 1 2 hertz/material ${E} 0.001 ${PR} tangential mindlin NULL 0.1 0.01 damping viscoelastic
pair_coeff 1 2 hertz/material 100000000 0.001 ${PR} tangential mindlin NULL 0.1 0.01 damping viscoelastic
pair_coeff 1 2 hertz/material 100000000 0.001 0.3 tangential mindlin NULL 0.1 0.01 damping viscoelastic
#pair_coeff 1 3 hertz/material 0.00000001 0.001 ${PR} tangential mindlin NULL 0.1 0.01 damping viscoelastic
#pair_coeff 2 3 hertz/material 0.00000001 0.001 ${PR} tangential mindlin NULL 0.1 0.01 damping viscoelastic
comm_modify     vel yes
neigh_modify    delay 0 every 1 check yes

### Compute properties ###

compute 1 slider1 com                      # Compute the center of mass of top chain
#compute 2 support com                      # Compute the center of mass of supporting particle

variable p0 equal "step"

variable slider_z equal "c_1[3]"          # output the position of top chain in z-direction

#variable distance equal "c_2[1]-c_1[1]"   # Distance between COM of top chain and supporting particle

thermo 100000
thermo_style custom step lx ly lz press pxx pyy pzz ke pe temp c_1[1] c_1[2] c_1[3] #c_2[1] c_2[2] c_2[3] v_distance

############### Fix ##################


############## Equilibrium the system with apply force ########################

fix force_slider1 slider1 setforce NULL 0 NULL                                # Fix top chain not to move in y-direction

fix f_sub substrate freeze                                                    # Freeze the bottom chain

fix rigid_top slider1 rigid/nve group 1 slider1 langevin 0 0 ${lgv} 6987532   # NVE+langevin
fix rigid_top slider1 rigid/nve group 1 slider1 langevin 0 0 0.5 6987532   
  1 rigid bodies with 1001 atoms

fix add slider1 addforce 0 0 ${Fn} every 1                                    # Add force to top layer
fix add slider1 addforce 0 0 -1000 every 1                                    

timestep ${dt}
timestep 1e-05

# fix  nve_1 slider1 nve

dump 		D1 all custom 100000 Equi_${num}_*.dump id type diameter mass xu yu zu fx fy fz
dump 		D1 all custom 100000 Equi_4_*.dump id type diameter mass xu yu zu fx fy fz

run 3000000
Generated 0 of 1 mixed pair_coeff terms from geometric mixing rule
Neighbor list info ...
  update every 1 steps, delay 0 steps, check yes
  max neighbors/atom: 2000, page size: 100000
  master list distance cutoff = 3.1
  ghost atom cutoff = 3.1
  binsize = 1.55, bins = 5846 130 130
  1 neighbor lists, perpetual/occasional/extra = 1 0 0
  (1) pair granular, perpetual
      attributes: half, newton on, size, history
      pair build: half/size/bin/newton
      stencil: half/bin/3d
      bin: standard
Per MPI rank memory allocation (min/avg/max) = 114.8 | 114.8 | 114.9 Mbytes
   Step           Lx             Ly             Lz           Press           Pxx            Pyy            Pzz           KinEng         PotEng          Temp          c_1[1]         c_1[2]         c_1[3]    
         0   9060           200            200            0              0              0              0              0              0              0              1.1965779e-13  0              6            
    100000   9060           200            200            0.0022304131  -1.1145048e-36  0              0.0066912394   579673.15      0              5.5980684e+10  1.1965779e-13  0              3.3307835    
    200000   9060           200            200            0.00076182277 -1.7831957e-35  0              0.0022854683   133347.62      0              1.2877759e+10  1.1965779e-13  0              3.0816601    
    300000   9060           200            200            5.5306263e-06 -3.5663798e-35  0              1.6591879e-05  15.8134        0              1527145        1.1965779e-13  0              3.0445341    
[...]
   3000000   10470          200            200            0.0017154711  -0.0020096384   0              0.0071560518   4.3095016e-18  0              4.1618082e-13  1.1965779e-13  0              2.9939606    
Loop time of 300.707 on 4 procs for 3000000 steps with 2501 atoms

Performance: 8619692.185 ns/day, 0.000 hours/ns, 9976.496 timesteps/s
100.0% CPU use with 4 MPI tasks x 1 OpenMP threads

MPI task timing breakdown:
Section |  min time  |  avg time  |  max time  |%varavg| %total
---------------------------------------------------------------
Pair    | 11.291     | 35.768     | 60.803     | 408.2 | 11.89
Neigh   | 6.6293     | 6.7501     | 6.8727     |   4.3 |  2.24
Comm    | 23.372     | 43.284     | 80.909     | 337.3 | 14.39
Output  | 0.26983    | 0.27014    | 0.27046    |   0.1 |  0.09
Modify  | 109.5      | 157.91     | 178.31     | 224.5 | 52.51
Other   |            | 56.73      |            |       | 18.86

Nlocal:         625.25 ave         876 max         375 min
Histogram: 2 0 0 0 0 0 0 0 0 2
Nghost:           1.75 ave           3 max           1 min
Histogram: 2 0 0 0 0 1 0 0 0 1
Neighs:         306.25 ave         613 max           0 min
Histogram: 2 0 0 0 0 0 0 0 0 2

Total # of neighbors = 1225
Ave neighs/atom = 0.48980408
Neighbor list builds = 166
Dangerous builds = 0

undump D1

############ Add spring between top chain to supp particle and then equilibrium  ###########

#fix sp1 support spring couple slider1 ${K0} ${lenspr} NULL NULL 0                                 # Add spring

#dump 		D2 all custom 100000 add_${num}*.dump id type diameter mass xu yu zu

#fix add1 all print 10 "${p0} ${distance} ${slider_z}" file add_distance_${num}.txt screen no      # out put step, distance(spring length), z-position of top chain

#run 1000000

#undump D2

#unfix add1

########## Pulling the supporting particle with constant velocity #############

#fix m1 support move linear 0.1 0 0 units box                                                      # apply constant velocity to supporting particles along x-direction V=0.1m/s

#fix move1 all print 100 "${p0} ${distance} ${slider_z}" file move_distance_${num}.txt screen no

#dump 		1 all custom 50000 move_${num}_*.dump id type diameter mass xu yu zu

#run 1000000

clear
  using 1 OpenMP thread(s) per MPI task

next num

jump SELF startloop

include granular.in
### Simulation of contact between two chain

##################### Simulation setup ####################

units micro                              # units
dimension	3                            # dimension
boundary	p p p                        # boundary condition p: periodic
atom_style	sphere                       # atom style
#processors * * 1

####################### Parameter ##################################

variable ind equal ${num}
variable ind equal 99

#variable lat0 equal 1                    #
variable lat1 equal 3+(300*0.01)+(v_ind*0.01)  # .491+(v_ind*0.001)       # Lattice distance of bottom chain
variable lat2 equal 3                    # Lattice distance of top chain
variable d1 equal 3                      # Diamter of particle at bottom chain
variable d2 equal 3                      # Diamter of particle at top chain
#variable d3 equal 1                      # Diamter of supporting particle

variable n2e1 equal 500*v_lat2             # Half length of top chain. 1500 is number of particles
variable n1e1 equal 1.5*v_n2e1*(v_lat1/v_lat2)             # Half length of bottom chain, which is 1.5 time larger than top chain
variable n1e2 equal -v_n1e1
variable n2e2 equal -v_n2e1
#variable lenspr equal -(v_n2e1+100)           # length of the spring connecting top chain and supporting particle
#variable lenspr1 equal -v_lenspr-0.1         # Position of supporting particle upper bound
#variable lenspr2 equal -v_lenspr+0.1         # Position of supporting particle lower bound

variable den equal 2.2 #grams/cm^3      # micrometer^3=10^-12 cm^3 Density of materials

variable V1 equal (1/6)*PI*(v_d1^3)     # Volume of particle 1
variable V2 equal (1/6)*PI*(v_d2^3)     # Volume of particle 2
#variable V3 equal (1/6)*PI*(v_d3^3)     # Volume of particle 3

variable mass1 equal v_den*v_V1  # Mass of particle 1 (picograms)
variable mass2 equal v_den*v_V2  # Mass of particle 2
#variable mass3 equal v_den*v_V3  # Mass of particle 3

# E GPa to picogram/(micrometer-microsecond^2)= 10^3 Pa= 10^-6 GPa
# Force unit(picogram-micrometer/microsecond^2)=10^-9 N= 1nN
# Spring stiffness (force/distance) 10^-3 N/m

variable K0 equal (1500/50)*(10^5)             # Spring stiffness conneting top chain and sup particle
variable E equal 100*(10^6)                    # Young's Modulus using for Hertz/material model
variable PR equal 0.3                          # Poisson's ratio using for Hertz/material model
variable Fn equal -1000                        # Force apply to each particles in top chain
variable dt equal 0.00001                      # Time step units microsecond
variable lgv equal 0.5                         #damping for langevin thermostat for slider


################### Creating the model #################################
lattice sc ${lat1}                                                               # Bottom chain type1
lattice sc 6.99                                                               
Lattice spacing in x,y,z = 6.99 6.99 6.99

region box block ${n1e2} ${n1e1} -100 100 -100 100 units box
region box block -5242.5 ${n1e1} -100 100 -100 100 units box
region box block -5242.5 5242.5 -100 100 -100 100 units box
region substrate block ${n1e2} ${n1e1} -0.5 0.5 0 0.5 units box
region substrate block -5242.5 ${n1e1} -0.5 0.5 0 0.5 units box
region substrate block -5242.5 5242.5 -0.5 0.5 0 0.5 units box

create_box 2 box
Created orthogonal box = (-5242.5 -100 -100) to (5242.5 100 100)
  4 by 1 by 1 MPI processor grid
create_atoms 1 region substrate
Created 1500 atoms
  using lattice units in orthogonal box = (-5242.5 -100 -100) to (5242.5 100 100)
  create_atoms CPU = 0.000 seconds

lattice sc ${lat2}                                                             # Top chain type2
lattice sc 3                                                             
Lattice spacing in x,y,z = 3 3 3

region slider1 block ${n2e2} ${n2e1} -0.1 0.1 5.9 6.1 units box
region slider1 block -1500 ${n2e1} -0.1 0.1 5.9 6.1 units box
region slider1 block -1500 1500 -0.1 0.1 5.9 6.1 units box

create_atoms 2 region slider1
Created 1001 atoms
  using lattice units in orthogonal box = (-5242.5 -100 -100) to (5242.5 100 100)
  create_atoms CPU = 0.001 seconds

#lattice sc ${lat0}                                                             # Supporting particle type3

#region support block ${lenspr1} ${lenspr2} -0.1 0.1 7.9 8.1 units box

#create_atoms 3 region support

set type 1 diameter ${d1}                    # Set mass and diameter for each particles type
set type 1 diameter 3                    
Setting atom values ...
  1500 settings made for diameter
set type 1 mass ${mass1}
set type 1 mass 31.101767270539
Setting atom values ...
  1500 settings made for mass
set type 2 diameter ${d2}
set type 2 diameter 3
Setting atom values ...
  1001 settings made for diameter
set type 2 mass ${mass2}
set type 2 mass 31.101767270539
Setting atom values ...
  1001 settings made for mass
#set type 3 diameter ${d3}
#set type 3 mass ${mass3}

group substrate region substrate           # Define gorup
1500 atoms in group substrate
group slider1 region slider1
1001 atoms in group slider1
#group support region support
#group substrate_slider union substrate slider1

########################## Potential ###################################
pair_style granular
pair_coeff 1 1 hertz/material 0.00000001 0.001 ${PR} tangential mindlin NULL 0.1 0.01 damping viscoelastic              ########### set E between each particle in same type is small to neglect their interaction
pair_coeff 1 1 hertz/material 0.00000001 0.001 0.3 tangential mindlin NULL 0.1 0.01 damping viscoelastic              
pair_coeff 2 2 hertz/material 0.00000001 0.001 ${PR} tangential mindlin NULL 0.1 0.01 damping viscoelastic
pair_coeff 2 2 hertz/material 0.00000001 0.001 0.3 tangential mindlin NULL 0.1 0.01 damping viscoelastic
#pair_coeff 3 3 hertz/material ${E} 0.001 ${PR} tangential mindlin NULL 0.1 0.01 damping viscoelastic
pair_coeff 1 2 hertz/material ${E} 0.001 ${PR} tangential mindlin NULL 0.1 0.01 damping viscoelastic
pair_coeff 1 2 hertz/material 100000000 0.001 ${PR} tangential mindlin NULL 0.1 0.01 damping viscoelastic
pair_coeff 1 2 hertz/material 100000000 0.001 0.3 tangential mindlin NULL 0.1 0.01 damping viscoelastic
#pair_coeff 1 3 hertz/material 0.00000001 0.001 ${PR} tangential mindlin NULL 0.1 0.01 damping viscoelastic
#pair_coeff 2 3 hertz/material 0.00000001 0.001 ${PR} tangential mindlin NULL 0.1 0.01 damping viscoelastic
comm_modify     vel yes
neigh_modify    delay 0 every 1 check yes

### Compute properties ###

compute 1 slider1 com                      # Compute the center of mass of top chain
#compute 2 support com                      # Compute the center of mass of supporting particle

variable p0 equal "step"

variable slider_z equal "c_1[3]"          # output the position of top chain in z-direction

#variable distance equal "c_2[1]-c_1[1]"   # Distance between COM of top chain and supporting particle

thermo 100000
thermo_style custom step lx ly lz press pxx pyy pzz ke pe temp c_1[1] c_1[2] c_1[3] #c_2[1] c_2[2] c_2[3] v_distance

############### Fix ##################


############## Equilibrium the system with apply force ########################

fix force_slider1 slider1 setforce NULL 0 NULL                                # Fix top chain not to move in y-direction

fix f_sub substrate freeze                                                    # Freeze the bottom chain

fix rigid_top slider1 rigid/nve group 1 slider1 langevin 0 0 ${lgv} 6987532   # NVE+langevin
fix rigid_top slider1 rigid/nve group 1 slider1 langevin 0 0 0.5 6987532   
  1 rigid bodies with 1001 atoms

fix add slider1 addforce 0 0 ${Fn} every 1                                    # Add force to top layer
fix add slider1 addforce 0 0 -1000 every 1                                    

timestep ${dt}
timestep 1e-05

# fix  nve_1 slider1 nve

dump 		D1 all custom 100000 Equi_${num}_*.dump id type diameter mass xu yu zu fx fy fz
dump 		D1 all custom 100000 Equi_99_*.dump id type diameter mass xu yu zu fx fy fz

run 3000000
Generated 0 of 1 mixed pair_coeff terms from geometric mixing rule
Neighbor list info ...
  update every 1 steps, delay 0 steps, check yes
  max neighbors/atom: 2000, page size: 100000
  master list distance cutoff = 3.1
  ghost atom cutoff = 3.1
  binsize = 1.55, bins = 6765 130 130
  1 neighbor lists, perpetual/occasional/extra = 1 0 0
  (1) pair granular, perpetual
      attributes: half, newton on, size, history
      pair build: half/size/bin/newton
      stencil: half/bin/3d
      bin: standard
Per MPI rank memory allocation (min/avg/max) = 130.8 | 130.8 | 130.9 Mbytes
   Step           Lx             Ly             Lz           Press           Pxx            Pyy            Pzz           KinEng         PotEng          Temp          c_1[1]         c_1[2]         c_1[3]    
         0   10485          200            200            0              0              0              0              0              0              0              1.1965779e-13  0              6            
    100000   10485          200            200            0.0019213371  -9.6303402e-37  0              0.0057640114   576944.51      0              5.5717171e+10  1.1965779e-13  0              3.3333183    
    200000   10485          200            200            0.00064388335 -1.5408379e-35  0              0.00193165     128770.92      0              1.2435774e+10  1.1965779e-13  0              3.0858805    
    300000   10485          200            200           -1.5104302e-05 -1.2326806e-34  0             -4.5312905e-05  160.8486       0              15533607       1.1965779e-13  0              3.0436665    
    400000   10485          200            200           -2.1773852e-05 -9.2450433e-35  0             -6.5321555e-05  349.38026      0              33740644       1.1965779e-13  0              3.0052443    
    500000   10485          200            200            0.00060832018 -0.0011149987   0              0.0029399593   790.67747      0              76357970       1.1965779e-13  0              2.9962625    
    600000   10485          200            200            0.0023946593  -0.00054056955  0              0.0077245474   184.06626      0              17775802       1.1965779e-13  0              2.9940192    
    700000   10485          200            200            0.0018286872  -0.00082901512  0              0.0063150767   5.2817523      0              510073.83      1.1965779e-13  0              2.9945798    
    800000   10485          200            200            0.002257041   -0.00063454731  0              0.0074056703   1.5420238      0              148917.62      1.1965779e-13  0              2.9941247    
    900000   10485          200            200            0.0021732597  -0.0006797044   0              0.0071994836   0.39050462     0              37712.141      1.1965779e-13  0              2.9942108    
   1000000   10485          200            200            0.0021391072  -0.00068272125  0              0.0071000428   0.001027062    0              99.186294      1.1965779e-13  0              2.9942506    
   1100000   10485          200            200            0.0021563089  -0.00068017191  0              0.0071490987   0.0082844024   0              800.04828      1.1965779e-13  0              2.9942303    
   1200000   10485          200            200            0.0021573776  -0.00068003964  0              0.0071521724   0.00022196082  0              21.435387      1.1965779e-13  0              2.9942292    
   1300000   10485          200            200            0.0021548334  -0.000680398    0              0.0071448983   8.3408281e-05  0              8.0549748      1.1965779e-13  0              2.9942322    
   1400000   10485          200            200            0.0021552269  -0.0006803399   0              0.0071460205   1.5509085e-05  0              1.4977565      1.1965779e-13  0              2.9942317    
   1500000   10485          200            200            0.0021554871  -0.00068030363  0              0.0071467648   1.6047398e-07  0              0.015497428    1.1965779e-13  0              2.9942314    
   1600000   10485          200            200            0.002155379   -0.0006803191   0              0.0071464562   3.7932594e-07  0              0.036632584    1.1965779e-13  0              2.9942315    
   1700000   10485          200            200            0.0021553668  -0.00068032073  0              0.007146421    5.7769455e-09  0              0.00055789604  1.1965779e-13  0              2.9942315    
   1800000   10485          200            200            0.0021553839  -0.0006803183   0              0.0071464701   4.4946011e-09  0              0.0004340564   1.1965779e-13  0              2.9942315    
   1900000   10485          200            200            0.002155382   -0.00068031859  0              0.0071464645   5.9588661e-10  0              5.7546464e-05  1.1965779e-13  0              2.9942315    
   2000000   10485          200            200            0.0021553801  -0.00068031886  0              0.007146459    1.5135647e-11  0              1.4616924e-06  1.1965779e-13  0              2.9942315    
   2100000   10485          200            200            0.0021553807  -0.00068031876  0              0.0071464609   1.6931523e-11  0              1.6351253e-06  1.1965779e-13  0              2.9942315    
   2200000   10485          200            200            0.0021553808  -0.00068031874  0              0.0071464613   1.1834271e-13  0              1.1428692e-08  1.1965779e-13  0              2.9942315    
   2300000   10485          200            200            0.0021553807  -0.00068031876  0              0.0071464609   2.3282546e-13  0              2.2484616e-08  1.1965779e-13  0              2.9942315    
   2400000   10485          200            200            0.0021553807  -0.00068031876  0              0.0071464609   2.1928657e-14  0              2.1177127e-09  1.1965779e-13  0              2.9942315    
   2500000   10485          200            200            0.0021553807  -0.00068031876  0              0.007146461    1.2270143e-15  0              1.1849626e-10  1.1965779e-13  0              2.9942315    
   2600000   10485          200            200            0.0021553807  -0.00068031876  0              0.007146461    7.2661904e-16  0              7.0171666e-11  1.1965779e-13  0              2.9942315    
   2700000   10485          200            200            0.0021553807  -0.00068031876  0              0.007146461    6.5062245e-20  0              6.2832459e-15  1.1965779e-13  0              2.9942315    
   2800000   10485          200            200            0.0021553807  -0.00068031876  0              0.007146461    1.3676026e-17  0              1.3207327e-12  1.1965779e-13  0              2.9942315    
   2900000   10485          200            200            0.0021553807  -0.00068031876  0              0.007146461    8.0624933e-19  0              7.7861789e-14  1.1965779e-13  0              2.9942315    
   3000000   10485          200            200            0.0021553807  -0.00068031876  0              0.007146461    1.8735026e-19  0              1.8092947e-14  1.1965779e-13  0              2.9942315    
Loop time of 297.846 on 4 procs for 3000000 steps with 2501 atoms

Performance: 8702477.894 ns/day, 0.000 hours/ns, 10072.312 timesteps/s
99.9% CPU use with 4 MPI tasks x 1 OpenMP threads

MPI task timing breakdown:
Section |  min time  |  avg time  |  max time  |%varavg| %total
---------------------------------------------------------------
Pair    | 11.026     | 35.754     | 60.958     | 409.5 | 12.00
Neigh   | 6.6478     | 6.7628     | 6.8791     |   4.0 |  2.27
Comm    | 23.591     | 41.874     | 78.867     | 334.9 | 14.06
Output  | 0.27151    | 0.27184    | 0.27219    |   0.1 |  0.09
Modify  | 109        | 156.84     | 177        | 223.4 | 52.66
Other   |            | 56.34      |            |       | 18.92

Nlocal:         625.25 ave         876 max         375 min
Histogram: 2 0 0 0 0 0 0 0 0 2
Nghost:           1.75 ave           3 max           1 min
Histogram: 2 0 0 0 0 1 0 0 0 1
Neighs:         305.25 ave         611 max           0 min
Histogram: 2 0 0 0 0 0 0 0 0 2

Total # of neighbors = 1221
Ave neighs/atom = 0.48820472
Neighbor list builds = 166
Dangerous builds = 0

undump D1

############ Add spring between top chain to supp particle and then equilibrium  ###########

#fix sp1 support spring couple slider1 ${K0} ${lenspr} NULL NULL 0                                 # Add spring

#dump 		D2 all custom 100000 add_${num}*.dump id type diameter mass xu yu zu

#fix add1 all print 10 "${p0} ${distance} ${slider_z}" file add_distance_${num}.txt screen no      # out put step, distance(spring length), z-position of top chain

#run 1000000

#undump D2

#unfix add1

########## Pulling the supporting particle with constant velocity #############

#fix m1 support move linear 0.1 0 0 units box                                                      # apply constant velocity to supporting particles along x-direction V=0.1m/s

#fix move1 all print 100 "${p0} ${distance} ${slider_z}" file move_distance_${num}.txt screen no

#dump 		1 all custom 50000 move_${num}_*.dump id type diameter mass xu yu zu

#run 1000000

clear
  using 1 OpenMP thread(s) per MPI task

next num

jump SELF startloop
Total wall time: 8:19:38
