LAMMPS (23 Jun 2022 - Update 1)
  using 1 OpenMP thread(s) per MPI task
variable num index 0 1 2 3 4 5 6 7 8 9 10 11 12 13 14 15 16 17 18 19 20 21 22 23 24 25 26 27 28 29 30 31 32 33 34 35 36 37 38 39 40 41 42 43 44 45 46 47 48 49 50

label startloop

include granular.in
### Simulation of contact between two chain

##################### Simulation setup ####################

units micro                              # units
dimension	3                            # dimension
boundary	p p p                        # boundary condition p: periodic
atom_style	sphere                       # atom style
#processors * * 1

####################### Parameter ##################################

variable ind equal ${num}
variable ind equal 0

#variable lat0 equal 1                    #
variable lat1 equal 3*(2^(1/2))       # Lattice distance of bottom chain
variable lat2 equal 3                   # Lattice distance of top chain
variable d1 equal 3+(51*0.01)+(v_ind*0.01)                      # Diamter of particle at bottom chain
variable d2 equal 3                      # Diamter of particle at top chain
#variable d3 equal 1                      # Diamter of supporting particle

variable n2e1 equal 10*v_lat2              # Half length of top chain. 1500 is number of particles
variable n1e1 equal 1.5*v_n2e1*(v_lat1/v_lat2)               # Half length of bottom chain, which is 1.5 time larger than top chain
variable n1e2 equal -v_n1e1
variable n2e2 equal -v_n2e1
#variable lenspr equal -(v_n2e1+100)           # length of the spring connecting top chain and supporting particle
#variable lenspr1 equal -v_lenspr-0.1         # Position of supporting particle upper bound
#variable lenspr2 equal -v_lenspr+0.1         # Position of supporting particle lower bound

variable den equal 2.2 #grams/cm^3      # micrometer^3=10^-12 cm^3 Density of materials
#variable den2 equal 1.5

variable V1 equal (1/6)*PI*(v_d1^3)     # Volume of particle 1
variable V2 equal (1/6)*PI*(v_d2^3)     # Volume of particle 2
#variable V3 equal (1/6)*PI*(v_d3^3)     # Volume of particle 3

variable mass1 equal v_den*v_V1  # Mass of particle 1 (picograms)
variable mass2 equal v_den*v_V2  # Mass of particle 2
#variable mass3 equal v_den*v_V3  # Mass of particle 3

# E GPa to picogram/(micrometer-microsecond^2)= 10^3 Pa= 10^-6 GPa
# Force unit(picogram-micrometer/microsecond^2)=10^-9 N= 1nN
# Spring stiffness (force/distance) 10^-3 N/m

variable K0 equal (1500/50)*(10^5)             # Spring stiffness conneting top chain and sup particle
variable E equal 100*(10^6)                    # Young's Modulus using for Hertz/material model
variable PR equal 0.3                          # Poisson's ratio using for Hertz/material model
variable Fn equal -1000 #-(v_ind*100)                       # Force apply to each particles in top chain
variable dt equal 0.00001                      # Time step units microsecond
variable lgv equal 0.5                         #damping for langevin thermostat for slider


################### Creating the model #################################
lattice sc ${lat1}                                                               # Bottom chain type1
lattice sc 4.24264068711929                                                               
Lattice spacing in x,y,z = 4.2426407 4.2426407 4.2426407

region box block ${n1e2} ${n1e1} -100 100 -100 100 units box
region box block -63.6396103067894 ${n1e1} -100 100 -100 100 units box
region box block -63.6396103067894 63.6396103067894 -100 100 -100 100 units box
region substrate block ${n1e2} ${n1e1} -0.5 0.5 0 0.5 units box
region substrate block -63.6396103067894 ${n1e1} -0.5 0.5 0 0.5 units box
region substrate block -63.6396103067894 63.6396103067894 -0.5 0.5 0 0.5 units box

create_box 2 box
Created orthogonal box = (-63.63961 -100 -100) to (63.63961 100 100)
  1 by 2 by 2 MPI processor grid
create_atoms 1 region substrate
Created 30 atoms
  using lattice units in orthogonal box = (-63.63961 -100 -100) to (63.63961 100 100)
  create_atoms CPU = 0.001 seconds

lattice sc ${lat2}                                                             # Top chain type2
lattice sc 3                                                             
Lattice spacing in x,y,z = 3 3 3

region slider1 block ${n2e2} ${n2e1} -0.1 0.1 5.9 6.1 units box
region slider1 block -30 ${n2e1} -0.1 0.1 5.9 6.1 units box
region slider1 block -30 30 -0.1 0.1 5.9 6.1 units box

create_atoms 2 region slider1
Created 21 atoms
  using lattice units in orthogonal box = (-63.63961 -100 -100) to (63.63961 100 100)
  create_atoms CPU = 0.005 seconds

#lattice sc ${lat0}                                                             # Supporting particle type3

#region support block ${lenspr1} ${lenspr2} -0.1 0.1 7.9 8.1 units box

#create_atoms 3 region support

set type 1 diameter ${d1}                    # Set mass and diameter for each particles type
set type 1 diameter 3.51                    
Setting atom values ...
  30 settings made for diameter
set type 1 mass ${mass1}
set type 1 mass 49.8129947834697
Setting atom values ...
  30 settings made for mass
set type 2 diameter ${d2}
set type 2 diameter 3
Setting atom values ...
  21 settings made for diameter
set type 2 mass ${mass2}
set type 2 mass 31.101767270539
Setting atom values ...
  21 settings made for mass
#set type 3 diameter ${d3}
#set type 3 mass ${mass3}

group substrate region substrate           # Define gorup
30 atoms in group substrate
group slider1 region slider1
21 atoms in group slider1
#group support region support
group substrate_slider union substrate slider1
51 atoms in group substrate_slider

########################## Potential ###################################
pair_style granular
pair_coeff 1 1 hertz/material 0.00000001 0.001 ${PR} tangential mindlin NULL 0.1 0.01 damping viscoelastic              ########### set E between each particle in same type is small to neglect their interaction
pair_coeff 1 1 hertz/material 0.00000001 0.001 0.3 tangential mindlin NULL 0.1 0.01 damping viscoelastic              
pair_coeff 2 2 hertz/material 0.00000001 0.001 ${PR} tangential mindlin NULL 0.1 0.01 damping viscoelastic
pair_coeff 2 2 hertz/material 0.00000001 0.001 0.3 tangential mindlin NULL 0.1 0.01 damping viscoelastic
#pair_coeff 3 3 hertz/material ${E} 0.001 ${PR} tangential mindlin NULL 0.1 0.01 damping viscoelastic
pair_coeff 1 2 hertz/material ${E} 0.001 ${PR} tangential mindlin NULL 0.1 0.01 damping viscoelastic
pair_coeff 1 2 hertz/material 100000000 0.001 ${PR} tangential mindlin NULL 0.1 0.01 damping viscoelastic
pair_coeff 1 2 hertz/material 100000000 0.001 0.3 tangential mindlin NULL 0.1 0.01 damping viscoelastic
#pair_coeff 1 3 hertz/material 0.00000001 0.001 ${PR} tangential mindlin NULL 0.1 0.01 damping viscoelastic
#pair_coeff 2 3 hertz/material 0.00000001 0.001 ${PR} tangential mindlin NULL 0.1 0.01 damping viscoelastic
comm_modify     vel yes
neigh_modify    delay 0 every 1 check yes

### Compute properties ###

compute 1 slider1 com                      # Compute the center of mass of top chain
#compute 2 support com                      # Compute the center of mass of supporting particle

variable p0 equal "step"

variable slider_z equal "c_1[3]"          # output the position of top chain in z-direction

#variable distance equal "c_2[1]-c_1[1]"   # Distance between COM of top chain and supporting particle

thermo 100000
thermo_style custom step lx ly lz press pxx pyy pzz ke pe temp c_1[1] c_1[2] c_1[3] #c_2[1] c_2[2] c_2[3] v_distance

############### Fix ##################


############## Equilibrium the system with apply force ########################

fix force_slider1 slider1 setforce NULL 0 NULL                                # Fix top chain not to move in y-direction

fix f_sub substrate freeze                                                    # Freeze the bottom chain

fix rigid_top slider1 rigid/nve group 1 slider1 langevin 0 0 ${lgv} 6987532   # NVE+langevin
fix rigid_top slider1 rigid/nve group 1 slider1 langevin 0 0 0.5 6987532   
  1 rigid bodies with 21 atoms

fix add slider1 addforce 0 0 ${Fn} every 1                                    # Add force to top layer
fix add slider1 addforce 0 0 -1000 every 1                                    

timestep ${dt}
timestep 1e-05

# fix  nve_1 slider1 nve

dump 		D1 all custom 100000 Equi_${num}_*.dump id type diameter mass xu yu zu
dump 		D1 all custom 100000 Equi_0_*.dump id type diameter mass xu yu zu

run 3000000
Generated 0 of 1 mixed pair_coeff terms from geometric mixing rule
Neighbor list info ...
  update every 1 steps, delay 0 steps, check yes
  max neighbors/atom: 2000, page size: 100000
  master list distance cutoff = 3.61
  ghost atom cutoff = 3.61
  binsize = 1.805, bins = 71 111 111
  1 neighbor lists, perpetual/occasional/extra = 1 0 0
  (1) pair granular, perpetual
      attributes: half, newton on, size, history
      pair build: half/size/bin/newton
      stencil: half/bin/3d
      bin: standard
Per MPI rank memory allocation (min/avg/max) = 13.73 | 17.2 | 18.35 Mbytes
   Step           Lx             Ly             Lz           Press           Pxx            Pyy            Pzz           KinEng         PotEng          Temp          c_1[1]         c_1[2]         c_1[3]    
         0   127.27922      200            200            0              0              0              0              0              0              0              2.6109412e-16  0              6            
    100000   127.27922      200            200            0.0038566635  -2.4210273e-39  0              0.011569991    14829.486      0              7.1606279e+10  2.6109412e-16  0              3.3224693    
    200000   127.27922      200            200           -0.00045936127 -5.8098373e-38  0             -0.0013780838   2717.0378      0              1.3119603e+10  2.6109412e-16  0              3.3038763    
    300000   127.27922      200            200            0.012170772    0.0019450558   0              0.03456726     864.57347      0              4.1747158e+09  2.6109412e-16  0              3.2467144    
    400000   127.27922      200            200            0.00011570134 -2.140637e-36   0              0.00034710402  50.161352      0              2.4221122e+08  2.6109412e-16  0              3.2584439    
    500000   127.27922      200            200            0.0087826889   0.00011555484  0              0.026232512    1.396969       0              6745463.3      2.6109412e-16  0              3.2477661    
    600000   127.27922      200            200            0.0059229226  -1.5695708e-36  0              0.017768768    0.23922313     0              1155122.9      2.6109412e-16  0              3.2493641    
    700000   127.27922      200            200            0.0046028307   5.5953012e-37  0              0.013808492    0.44316066     0              2139864.2      2.6109412e-16  0              3.250234     
    800000   127.27922      200            200            0.0043197152  -1.182677e-36   0              0.012959146    0.028082935    0              135602.44      2.6109412e-16  0              3.2504366    
    900000   127.27922      200            200            0.0044023392   8.9013688e-37  0              0.013207018    0.0013285817   0              6415.2455      2.6109412e-16  0              3.2503808    
   1000000   127.27922      200            200            0.0044681847   1.9853773e-39  0              0.013404554    0.0011744496   0              5670.997       2.6109412e-16  0              3.2503347    
   1100000   127.27922      200            200            0.0044777693  -7.840887e-38   0              0.013433308    3.3957932e-05  0              163.9707       2.6109412e-16  0              3.2503278    
   1200000   127.27922      200            200            0.0044718463   5.2114128e-39  0              0.013415539    7.885543e-06   0              38.076465      2.6109412e-16  0              3.2503318    
   1300000   127.27922      200            200            0.0044686917   3.7034098e-39  0              0.013406075    2.7898141e-06  0              13.471014      2.6109412e-16  0              3.250334     
   1400000   127.27922      200            200            0.0044685024  -1.5883224e-38  0              0.013405507    2.0909212e-08  0              0.1009631      2.6109412e-16  0              3.2503341    
   1500000   127.27922      200            200            0.0044688698   7.585863e-40   0              0.013406609    3.2621704e-08  0              0.15751853     2.6109412e-16  0              3.2503339    
   1600000   127.27922      200            200            0.0044690108   4.8399879e-39  0              0.013407033    5.8207183e-09  0              0.028106165    2.6109412e-16  0              3.2503338    
   1700000   127.27922      200            200            0.0044690054  -3.6550263e-39  0              0.013407016    2.3068182e-13  0              1.1138799e-06  2.6109412e-16  0              3.2503338    
   1800000   127.27922      200            200            0.0044689846   6.5551446e-40  0              0.013406954    1.0973025e-10  0              0.0005298481   2.6109412e-16  0              3.2503338    
   1900000   127.27922      200            200            0.0044689788   8.0945784e-40  0              0.013406936    1.0400122e-11  0              5.0218468e-05  2.6109412e-16  0              3.2503338    
   2000000   127.27922      200            200            0.0044689798  -1.3702891e-39  0              0.013406939    1.63775e-13    0              7.9081086e-07  2.6109412e-16  0              3.2503338    
   2100000   127.27922      200            200            0.0044689809   7.4429614e-39  0              0.013406943    3.1757816e-13  0              1.5334713e-06  2.6109412e-16  0              3.2503338    
   2200000   127.27922      200            200            0.0044689811  -7.242938e-39   0              0.013406943    1.4928671e-14  0              7.2085211e-08  2.6109412e-16  0              3.2503338    
   2300000   127.27922      200            200            0.004468981   -2.4477641e-39  0              0.013406943    1.4357246e-15  0              6.9326005e-09  2.6109412e-16  0              3.2503338    
   2400000   127.27922      200            200            0.004468981    6.5170772e-40  0              0.013406943    8.0852354e-16  0              3.9040708e-09  2.6109412e-16  0              3.2503338    
   2500000   127.27922      200            200            0.004468981    1.4583696e-39  0              0.013406943    1.5879673e-17  0              7.6677259e-11  2.6109412e-16  0              3.2503338    
   2600000   127.27922      200            200            0.004468981    6.0335754e-39  0              0.013406943    7.0601408e-18  0              3.4090893e-11  2.6109412e-16  0              3.2503338    
   2700000   127.27922      200            200            0.004468981   -1.3963448e-40  0              0.013406943    1.4029799e-18  0              6.7744878e-12  2.6109412e-16  0              3.2503338    
   2800000   127.27922      200            200            0.004468981   -1.3145317e-39  0              0.013406943    1.715589e-20   0              8.2839655e-14  2.6109412e-16  0              3.2503338    
   2900000   127.27922      200            200            0.004468981    3.7300157e-39  0              0.013406943    7.0745854e-22  0              3.4160641e-15  2.6109412e-16  0              3.2503338    
   3000000   127.27922      200            200            0.004468981    4.1106322e-39  0              0.013406943    1.0996698e-20  0              5.3099118e-14  2.6109412e-16  0              3.2503338    
Loop time of 73.5396 on 4 procs for 3000000 steps with 51 atoms

Performance: 35246325.724 ns/day, 0.000 hours/ns, 40794.358 timesteps/s
99.9% CPU use with 4 MPI tasks x 1 OpenMP threads

MPI task timing breakdown:
Section |  min time  |  avg time  |  max time  |%varavg| %total
---------------------------------------------------------------
Pair    | 0.33844    | 1.4368     | 4.6776     | 156.1 |  1.95
Neigh   | 0.060112   | 0.062315   | 0.065739   |   0.9 |  0.08
Comm    | 31.452     | 39.246     | 45.938     |  95.1 | 53.37
Output  | 0.075379   | 0.075655   | 0.075879   |   0.1 |  0.10
Modify  | 16.349     | 23.431     | 32.258     | 146.6 | 31.86
Other   |            | 9.288      |            |       | 12.63

Nlocal:          12.75 ave          51 max           0 min
Histogram: 3 0 0 0 0 0 0 0 0 1
Nghost:          39.25 ave          52 max           1 min
Histogram: 1 0 0 0 0 0 0 0 0 3
Neighs:           7.25 ave          29 max           0 min
Histogram: 3 0 0 0 0 0 0 0 0 1

Total # of neighbors = 29
Ave neighs/atom = 0.56862745
Neighbor list builds = 159
Dangerous builds = 0

undump D1

############ Add spring between top chain to supp particle and then equilibrium  ###########

#fix sp1 support spring couple slider1 ${K0} ${lenspr} NULL NULL 0                                 # Add spring

#dump 		D2 all custom 100000 add_${num}*.dump id type diameter mass xu yu zu

#fix add1 all print 10 "${p0} ${distance} ${slider_z}" file add_distance_${num}.txt screen no      # out put step, distance(spring length), z-position of top chain

#run 1000000

#undump D2

#unfix add1

########## Pulling the supporting particle with constant velocity #############

#fix m1 support move linear 0.1 0 0 units box                                                      # apply constant velocity to supporting particles along x-direction V=0.1m/s

#fix move1 all print 100 "${p0} ${distance} ${slider_z}" file move_distance_${num}.txt screen no

#dump 		1 all custom 50000 move_${num}_*.dump id type diameter mass xu yu zu

#run 1000000

clear
  using 1 OpenMP thread(s) per MPI task

next num

jump SELF startloop

include granular.in
### Simulation of contact between two chain

##################### Simulation setup ####################

units micro                              # units
dimension	3                            # dimension
boundary	p p p                        # boundary condition p: periodic
atom_style	sphere                       # atom style
#processors * * 1

####################### Parameter ##################################

variable ind equal ${num}
variable ind equal 1

#variable lat0 equal 1                    #
variable lat1 equal 3*(2^(1/2))       # Lattice distance of bottom chain
variable lat2 equal 3                   # Lattice distance of top chain
variable d1 equal 3+(51*0.01)+(v_ind*0.01)                      # Diamter of particle at bottom chain
variable d2 equal 3                      # Diamter of particle at top chain
#variable d3 equal 1                      # Diamter of supporting particle

variable n2e1 equal 10*v_lat2              # Half length of top chain. 1500 is number of particles
variable n1e1 equal 1.5*v_n2e1*(v_lat1/v_lat2)               # Half length of bottom chain, which is 1.5 time larger than top chain
variable n1e2 equal -v_n1e1
variable n2e2 equal -v_n2e1
#variable lenspr equal -(v_n2e1+100)           # length of the spring connecting top chain and supporting particle
#variable lenspr1 equal -v_lenspr-0.1         # Position of supporting particle upper bound
#variable lenspr2 equal -v_lenspr+0.1         # Position of supporting particle lower bound

variable den equal 2.2 #grams/cm^3      # micrometer^3=10^-12 cm^3 Density of materials
#variable den2 equal 1.5

variable V1 equal (1/6)*PI*(v_d1^3)     # Volume of particle 1
variable V2 equal (1/6)*PI*(v_d2^3)     # Volume of particle 2
#variable V3 equal (1/6)*PI*(v_d3^3)     # Volume of particle 3

variable mass1 equal v_den*v_V1  # Mass of particle 1 (picograms)
variable mass2 equal v_den*v_V2  # Mass of particle 2
#variable mass3 equal v_den*v_V3  # Mass of particle 3

# E GPa to picogram/(micrometer-microsecond^2)= 10^3 Pa= 10^-6 GPa
# Force unit(picogram-micrometer/microsecond^2)=10^-9 N= 1nN
# Spring stiffness (force/distance) 10^-3 N/m

variable K0 equal (1500/50)*(10^5)             # Spring stiffness conneting top chain and sup particle
variable E equal 100*(10^6)                    # Young's Modulus using for Hertz/material model
variable PR equal 0.3                          # Poisson's ratio using for Hertz/material model
variable Fn equal -1000 #-(v_ind*100)                       # Force apply to each particles in top chain
variable dt equal 0.00001                      # Time step units microsecond
variable lgv equal 0.5                         #damping for langevin thermostat for slider


################### Creating the model #################################
lattice sc ${lat1}                                                               # Bottom chain type1
lattice sc 4.24264068711929                                                               
Lattice spacing in x,y,z = 4.2426407 4.2426407 4.2426407

region box block ${n1e2} ${n1e1} -100 100 -100 100 units box
region box block -63.6396103067894 ${n1e1} -100 100 -100 100 units box
region box block -63.6396103067894 63.6396103067894 -100 100 -100 100 units box
region substrate block ${n1e2} ${n1e1} -0.5 0.5 0 0.5 units box
region substrate block -63.6396103067894 ${n1e1} -0.5 0.5 0 0.5 units box
region substrate block -63.6396103067894 63.6396103067894 -0.5 0.5 0 0.5 units box

create_box 2 box
Created orthogonal box = (-63.63961 -100 -100) to (63.63961 100 100)
  1 by 2 by 2 MPI processor grid
create_atoms 1 region substrate
Created 30 atoms
  using lattice units in orthogonal box = (-63.63961 -100 -100) to (63.63961 100 100)
  create_atoms CPU = 0.001 seconds

lattice sc ${lat2}                                                             # Top chain type2
lattice sc 3                                                             
Lattice spacing in x,y,z = 3 3 3

region slider1 block ${n2e2} ${n2e1} -0.1 0.1 5.9 6.1 units box
region slider1 block -30 ${n2e1} -0.1 0.1 5.9 6.1 units box
region slider1 block -30 30 -0.1 0.1 5.9 6.1 units box

create_atoms 2 region slider1
Created 21 atoms
  using lattice units in orthogonal box = (-63.63961 -100 -100) to (63.63961 100 100)
  create_atoms CPU = 0.003 seconds

#lattice sc ${lat0}                                                             # Supporting particle type3

#region support block ${lenspr1} ${lenspr2} -0.1 0.1 7.9 8.1 units box

#create_atoms 3 region support

set type 1 diameter ${d1}                    # Set mass and diameter for each particles type
set type 1 diameter 3.52                    
Setting atom values ...
  30 settings made for diameter
set type 1 mass ${mass1}
set type 1 mass 50.2399609964769
Setting atom values ...
  30 settings made for mass
set type 2 diameter ${d2}
set type 2 diameter 3
Setting atom values ...
  21 settings made for diameter
set type 2 mass ${mass2}
set type 2 mass 31.101767270539
Setting atom values ...
  21 settings made for mass
#set type 3 diameter ${d3}
#set type 3 mass ${mass3}

group substrate region substrate           # Define gorup
30 atoms in group substrate
group slider1 region slider1
21 atoms in group slider1
#group support region support
group substrate_slider union substrate slider1
51 atoms in group substrate_slider

########################## Potential ###################################
pair_style granular
pair_coeff 1 1 hertz/material 0.00000001 0.001 ${PR} tangential mindlin NULL 0.1 0.01 damping viscoelastic              ########### set E between each particle in same type is small to neglect their interaction
pair_coeff 1 1 hertz/material 0.00000001 0.001 0.3 tangential mindlin NULL 0.1 0.01 damping viscoelastic              
pair_coeff 2 2 hertz/material 0.00000001 0.001 ${PR} tangential mindlin NULL 0.1 0.01 damping viscoelastic
pair_coeff 2 2 hertz/material 0.00000001 0.001 0.3 tangential mindlin NULL 0.1 0.01 damping viscoelastic
#pair_coeff 3 3 hertz/material ${E} 0.001 ${PR} tangential mindlin NULL 0.1 0.01 damping viscoelastic
pair_coeff 1 2 hertz/material ${E} 0.001 ${PR} tangential mindlin NULL 0.1 0.01 damping viscoelastic
pair_coeff 1 2 hertz/material 100000000 0.001 ${PR} tangential mindlin NULL 0.1 0.01 damping viscoelastic
pair_coeff 1 2 hertz/material 100000000 0.001 0.3 tangential mindlin NULL 0.1 0.01 damping viscoelastic
#pair_coeff 1 3 hertz/material 0.00000001 0.001 ${PR} tangential mindlin NULL 0.1 0.01 damping viscoelastic
#pair_coeff 2 3 hertz/material 0.00000001 0.001 ${PR} tangential mindlin NULL 0.1 0.01 damping viscoelastic
comm_modify     vel yes
neigh_modify    delay 0 every 1 check yes

### Compute properties ###

compute 1 slider1 com                      # Compute the center of mass of top chain
#compute 2 support com                      # Compute the center of mass of supporting particle

variable p0 equal "step"

variable slider_z equal "c_1[3]"          # output the position of top chain in z-direction

#variable distance equal "c_2[1]-c_1[1]"   # Distance between COM of top chain and supporting particle

thermo 100000
thermo_style custom step lx ly lz press pxx pyy pzz ke pe temp c_1[1] c_1[2] c_1[3] #c_2[1] c_2[2] c_2[3] v_distance

############### Fix ##################


############## Equilibrium the system with apply force ########################

fix force_slider1 slider1 setforce NULL 0 NULL                                # Fix top chain not to move in y-direction

fix f_sub substrate freeze                                                    # Freeze the bottom chain

fix rigid_top slider1 rigid/nve group 1 slider1 langevin 0 0 ${lgv} 6987532   # NVE+langevin
fix rigid_top slider1 rigid/nve group 1 slider1 langevin 0 0 0.5 6987532   
  1 rigid bodies with 21 atoms

fix add slider1 addforce 0 0 ${Fn} every 1                                    # Add force to top layer
fix add slider1 addforce 0 0 -1000 every 1                                    

timestep ${dt}
timestep 1e-05

# fix  nve_1 slider1 nve

dump 		D1 all custom 100000 Equi_${num}_*.dump id type diameter mass xu yu zu
dump 		D1 all custom 100000 Equi_1_*.dump id type diameter mass xu yu zu

run 3000000
Generated 0 of 1 mixed pair_coeff terms from geometric mixing rule
Neighbor list info ...
  update every 1 steps, delay 0 steps, check yes
  max neighbors/atom: 2000, page size: 100000
  master list distance cutoff = 3.62
  ghost atom cutoff = 3.62
  binsize = 1.81, bins = 71 111 111
  1 neighbor lists, perpetual/occasional/extra = 1 0 0
  (1) pair granular, perpetual
      attributes: half, newton on, size, history
      pair build: half/size/bin/newton
      stencil: half/bin/3d
      bin: standard
Per MPI rank memory allocation (min/avg/max) = 13.73 | 17.2 | 18.35 Mbytes
   Step           Lx             Ly             Lz           Press           Pxx            Pyy            Pzz           KinEng         PotEng          Temp          c_1[1]         c_1[2]         c_1[3]    
         0   127.27922      200            200            0              0              0              0              0              0              0              2.6109412e-16  0              6            
    100000   127.27922      200            200            0.0038665085   6.0526391e-40  0              0.011599525    14880.952      0              7.1854792e+10  2.6109412e-16  0              3.322098     
    200000   127.27922      200            200           -0.00045973331 -1.9264852e-38  0             -0.0013791999   2636.9879      0              1.2733071e+10  2.6109412e-16  0              3.3120478    
    300000   127.27922      200            200            0.0064096906   2.6346121e-38  0              0.019229072    904.80359      0              4.3689727e+09  2.6109412e-16  0              3.2538618    
    400000   127.27922      200            200            0.00013004622 -4.3126675e-36  0              0.00039013865  62.381789      0              3.0121934e+08  2.6109412e-16  0              3.2628503    
    500000   127.27922      200            200            0.0089753048   0.00017351969  0              0.026752395    0.027193414    0              131307.26      2.6109412e-16  0              3.252701     
    600000   127.27922      200            200            0.0058097625  -1.549248e-36   0              0.017429287    0.73087619     0              3529139.6      2.6109412e-16  0              3.2544407    
    700000   127.27922      200            200            0.0044886669   3.6890545e-37  0              0.013466001    0.47275465     0              2282763        2.6109412e-16  0              3.2553196    
    800000   127.27922      200            200            0.0042996113  -5.5277372e-37  0              0.012898834    0.01340574     0              64731.523      2.6109412e-16  0              3.255458     
    900000   127.27922      200            200            0.0044193558  -1.1880931e-37  0              0.013258067    0.0033577675   0              16213.458      2.6109412e-16  0              3.2553758    
   1000000   127.27922      200            200            0.004482828   -9.3343324e-39  0              0.013448484    0.0010995563   0              5309.3638      2.6109412e-16  0              3.2553314    
   1100000   127.27922      200            200            0.0044856025   8.9718201e-39  0              0.013456808    4.2895654e-06  0              20.712776      2.6109412e-16  0              3.2553291    
   1200000   127.27922      200            200            0.0044778281   5.121859e-39   0              0.013433484    1.4955169e-05  0              72.21316       2.6109412e-16  0              3.2553344    
   1300000   127.27922      200            200            0.0044751295  -1.3273992e-38  0              0.013425389    2.0657239e-06  0              9.9746414      2.6109412e-16  0              3.2553363    
   1400000   127.27922      200            200            0.0044753738  -5.1481408e-39  0              0.013426121    8.6922192e-09  0              0.041971616    2.6109412e-16  0              3.2553362    
   1500000   127.27922      200            200            0.0044758121  -3.6347149e-39  0              0.013427436    4.946041e-08   0              0.23882662     2.6109412e-16  0              3.2553359    
   1600000   127.27922      200            200            0.0044759101  -6.1204809e-39  0              0.01342773     2.9083611e-09  0              0.014043435    2.6109412e-16  0              3.2553358    
   1700000   127.27922      200            200            0.0044758802   6.6616993e-39  0              0.013427641    1.9485383e-10  0              0.00094087941  2.6109412e-16  0              3.2553358    
   1800000   127.27922      200            200            0.0044758579   4.3975227e-39  0              0.013427574    1.3167014e-10  0              0.00063578797  2.6109412e-16  0              3.2553359    
   1900000   127.27922      200            200            0.0044758553   4.031438e-39   0              0.013427566    2.3852804e-12  0              1.1517665e-05  2.6109412e-16  0              3.2553359    
   2000000   127.27922      200            200            0.0044758576   2.549195e-39   0              0.013427573    1.1894475e-12  0              5.7434161e-06  2.6109412e-16  0              3.2553359    
   2100000   127.27922      200            200            0.0044758586  -6.4358279e-40  0              0.013427576    2.8657523e-13  0              1.3837692e-06  2.6109412e-16  0              3.2553358    
   2200000   127.27922      200            200            0.0044758586  -1.0986781e-38  0              0.013427576    1.5930014e-16  0              7.6920338e-10  2.6109412e-16  0              3.2553358    
   2300000   127.27922      200            200            0.0044758585   5.7905754e-40  0              0.013427575    4.7117861e-15  0              2.2751529e-08  2.6109412e-16  0              3.2553358    
   2400000   127.27922      200            200            0.0044758584   3.7987202e-39  0              0.013427575    4.9323724e-16  0              2.3816661e-09  2.6109412e-16  0              3.2553358    
   2500000   127.27922      200            200            0.0044758584  -2.5296227e-39  0              0.013427575    6.8386848e-18  0              3.3021561e-11  2.6109412e-16  0              3.2553358    
   2600000   127.27922      200            200            0.0044758584  -1.4493706e-39  0              0.013427575    1.4464546e-17  0              6.9844114e-11  2.6109412e-16  0              3.2553358    
   2700000   127.27922      200            200            0.0044758584  -7.4769276e-39  0              0.013427575    1.8552807e-19  0              8.9584865e-13  2.6109412e-16  0              3.2553358    
   2800000   127.27922      200            200            0.0044758584   1.1876426e-39  0              0.013427575    1.7970621e-19  0              8.6773699e-13  2.6109412e-16  0              3.2553358    
   2900000   127.27922      200            200            0.0044758584   5.1872166e-39  0              0.013427575    1.6066928e-21  0              7.7581445e-15  2.6109412e-16  0              3.2553358    
   3000000   127.27922      200            200            0.0044758584  -1.5188062e-39  0              0.013427575    1.9228149e-21  0              9.284585e-15   2.6109412e-16  0              3.2553358    
Loop time of 72.9533 on 4 procs for 3000000 steps with 51 atoms

Performance: 35529600.016 ns/day, 0.000 hours/ns, 41122.222 timesteps/s
99.9% CPU use with 4 MPI tasks x 1 OpenMP threads

MPI task timing breakdown:
Section |  min time  |  avg time  |  max time  |%varavg| %total
---------------------------------------------------------------
Pair    | 0.34328    | 1.4403     | 4.6687     | 155.3 |  1.97
Neigh   | 0.057295   | 0.059695   | 0.063191   |   1.0 |  0.08
Comm    | 30.883     | 38.84      | 45.637     |  96.5 | 53.24
Output  | 0.076609   | 0.076813   | 0.077003   |   0.1 |  0.11
Modify  | 16.056     | 23.207     | 32.127     | 147.7 | 31.81
Other   |            | 9.33       |            |       | 12.79

Nlocal:          12.75 ave          51 max           0 min
Histogram: 3 0 0 0 0 0 0 0 0 1
Nghost:          39.25 ave          52 max           1 min
Histogram: 1 0 0 0 0 0 0 0 0 3
Neighs:           7.25 ave          29 max           0 min
Histogram: 3 0 0 0 0 0 0 0 0 1

Total # of neighbors = 29
Ave neighs/atom = 0.56862745
Neighbor list builds = 161
Dangerous builds = 0

undump D1

############ Add spring between top chain to supp particle and then equilibrium  ###########

#fix sp1 support spring couple slider1 ${K0} ${lenspr} NULL NULL 0                                 # Add spring

#dump 		D2 all custom 100000 add_${num}*.dump id type diameter mass xu yu zu

#fix add1 all print 10 "${p0} ${distance} ${slider_z}" file add_distance_${num}.txt screen no      # out put step, distance(spring length), z-position of top chain

#run 1000000

#undump D2

#unfix add1

########## Pulling the supporting particle with constant velocity #############

#fix m1 support move linear 0.1 0 0 units box                                                      # apply constant velocity to supporting particles along x-direction V=0.1m/s

#fix move1 all print 100 "${p0} ${distance} ${slider_z}" file move_distance_${num}.txt screen no

#dump 		1 all custom 50000 move_${num}_*.dump id type diameter mass xu yu zu

#run 1000000

clear
  using 1 OpenMP thread(s) per MPI task

next num

jump SELF startloop

include granular.in
### Simulation of contact between two chain

##################### Simulation setup ####################

units micro                              # units
dimension	3                            # dimension
boundary	p p p                        # boundary condition p: periodic
atom_style	sphere                       # atom style
#processors * * 1

####################### Parameter ##################################

variable ind equal ${num}
variable ind equal 2

#variable lat0 equal 1                    #
variable lat1 equal 3*(2^(1/2))       # Lattice distance of bottom chain
variable lat2 equal 3                   # Lattice distance of top chain
variable d1 equal 3+(51*0.01)+(v_ind*0.01)                      # Diamter of particle at bottom chain
variable d2 equal 3                      # Diamter of particle at top chain
#variable d3 equal 1                      # Diamter of supporting particle

variable n2e1 equal 10*v_lat2              # Half length of top chain. 1500 is number of particles
variable n1e1 equal 1.5*v_n2e1*(v_lat1/v_lat2)               # Half length of bottom chain, which is 1.5 time larger than top chain
variable n1e2 equal -v_n1e1
variable n2e2 equal -v_n2e1
#variable lenspr equal -(v_n2e1+100)           # length of the spring connecting top chain and supporting particle
#variable lenspr1 equal -v_lenspr-0.1         # Position of supporting particle upper bound
#variable lenspr2 equal -v_lenspr+0.1         # Position of supporting particle lower bound

variable den equal 2.2 #grams/cm^3      # micrometer^3=10^-12 cm^3 Density of materials
#variable den2 equal 1.5

variable V1 equal (1/6)*PI*(v_d1^3)     # Volume of particle 1
variable V2 equal (1/6)*PI*(v_d2^3)     # Volume of particle 2
#variable V3 equal (1/6)*PI*(v_d3^3)     # Volume of particle 3

variable mass1 equal v_den*v_V1  # Mass of particle 1 (picograms)
variable mass2 equal v_den*v_V2  # Mass of particle 2
#variable mass3 equal v_den*v_V3  # Mass of particle 3

# E GPa to picogram/(micrometer-microsecond^2)= 10^3 Pa= 10^-6 GPa
# Force unit(picogram-micrometer/microsecond^2)=10^-9 N= 1nN
# Spring stiffness (force/distance) 10^-3 N/m

variable K0 equal (1500/50)*(10^5)             # Spring stiffness conneting top chain and sup particle
variable E equal 100*(10^6)                    # Young's Modulus using for Hertz/material model
variable PR equal 0.3                          # Poisson's ratio using for Hertz/material model
variable Fn equal -1000 #-(v_ind*100)                       # Force apply to each particles in top chain
variable dt equal 0.00001                      # Time step units microsecond
variable lgv equal 0.5                         #damping for langevin thermostat for slider


################### Creating the model #################################
lattice sc ${lat1}                                                               # Bottom chain type1
lattice sc 4.24264068711929                                                               
Lattice spacing in x,y,z = 4.2426407 4.2426407 4.2426407

region box block ${n1e2} ${n1e1} -100 100 -100 100 units box
region box block -63.6396103067894 ${n1e1} -100 100 -100 100 units box
region box block -63.6396103067894 63.6396103067894 -100 100 -100 100 units box
region substrate block ${n1e2} ${n1e1} -0.5 0.5 0 0.5 units box
region substrate block -63.6396103067894 ${n1e1} -0.5 0.5 0 0.5 units box
region substrate block -63.6396103067894 63.6396103067894 -0.5 0.5 0 0.5 units box

create_box 2 box
Created orthogonal box = (-63.63961 -100 -100) to (63.63961 100 100)
  1 by 2 by 2 MPI processor grid
create_atoms 1 region substrate
Created 30 atoms
  using lattice units in orthogonal box = (-63.63961 -100 -100) to (63.63961 100 100)
  create_atoms CPU = 0.000 seconds

lattice sc ${lat2}                                                             # Top chain type2
lattice sc 3                                                             
Lattice spacing in x,y,z = 3 3 3

region slider1 block ${n2e2} ${n2e1} -0.1 0.1 5.9 6.1 units box
region slider1 block -30 ${n2e1} -0.1 0.1 5.9 6.1 units box
region slider1 block -30 30 -0.1 0.1 5.9 6.1 units box

create_atoms 2 region slider1
Created 21 atoms
  using lattice units in orthogonal box = (-63.63961 -100 -100) to (63.63961 100 100)
  create_atoms CPU = 0.003 seconds

#lattice sc ${lat0}                                                             # Supporting particle type3

#region support block ${lenspr1} ${lenspr2} -0.1 0.1 7.9 8.1 units box

#create_atoms 3 region support

set type 1 diameter ${d1}                    # Set mass and diameter for each particles type
set type 1 diameter 3.53                    
Setting atom values ...
  30 settings made for diameter
set type 1 mass ${mass1}
set type 1 mass 50.6693600588351
Setting atom values ...
  30 settings made for mass
set type 2 diameter ${d2}
set type 2 diameter 3
Setting atom values ...
  21 settings made for diameter
set type 2 mass ${mass2}
set type 2 mass 31.101767270539
Setting atom values ...
  21 settings made for mass
#set type 3 diameter ${d3}
#set type 3 mass ${mass3}

group substrate region substrate           # Define gorup
30 atoms in group substrate
group slider1 region slider1
21 atoms in group slider1
#group support region support
group substrate_slider union substrate slider1
51 atoms in group substrate_slider

########################## Potential ###################################
pair_style granular
pair_coeff 1 1 hertz/material 0.00000001 0.001 ${PR} tangential mindlin NULL 0.1 0.01 damping viscoelastic              ########### set E between each particle in same type is small to neglect their interaction
pair_coeff 1 1 hertz/material 0.00000001 0.001 0.3 tangential mindlin NULL 0.1 0.01 damping viscoelastic              
pair_coeff 2 2 hertz/material 0.00000001 0.001 ${PR} tangential mindlin NULL 0.1 0.01 damping viscoelastic
pair_coeff 2 2 hertz/material 0.00000001 0.001 0.3 tangential mindlin NULL 0.1 0.01 damping viscoelastic
#pair_coeff 3 3 hertz/material ${E} 0.001 ${PR} tangential mindlin NULL 0.1 0.01 damping viscoelastic
pair_coeff 1 2 hertz/material ${E} 0.001 ${PR} tangential mindlin NULL 0.1 0.01 damping viscoelastic
pair_coeff 1 2 hertz/material 100000000 0.001 ${PR} tangential mindlin NULL 0.1 0.01 damping viscoelastic
pair_coeff 1 2 hertz/material 100000000 0.001 0.3 tangential mindlin NULL 0.1 0.01 damping viscoelastic
#pair_coeff 1 3 hertz/material 0.00000001 0.001 ${PR} tangential mindlin NULL 0.1 0.01 damping viscoelastic
#pair_coeff 2 3 hertz/material 0.00000001 0.001 ${PR} tangential mindlin NULL 0.1 0.01 damping viscoelastic
comm_modify     vel yes
neigh_modify    delay 0 every 1 check yes

### Compute properties ###

compute 1 slider1 com                      # Compute the center of mass of top chain
#compute 2 support com                      # Compute the center of mass of supporting particle

variable p0 equal "step"

variable slider_z equal "c_1[3]"          # output the position of top chain in z-direction

#variable distance equal "c_2[1]-c_1[1]"   # Distance between COM of top chain and supporting particle

thermo 100000
thermo_style custom step lx ly lz press pxx pyy pzz ke pe temp c_1[1] c_1[2] c_1[3] #c_2[1] c_2[2] c_2[3] v_distance

############### Fix ##################


############## Equilibrium the system with apply force ########################

fix force_slider1 slider1 setforce NULL 0 NULL                                # Fix top chain not to move in y-direction

fix f_sub substrate freeze                                                    # Freeze the bottom chain

fix rigid_top slider1 rigid/nve group 1 slider1 langevin 0 0 ${lgv} 6987532   # NVE+langevin
fix rigid_top slider1 rigid/nve group 1 slider1 langevin 0 0 0.5 6987532   
  1 rigid bodies with 21 atoms

fix add slider1 addforce 0 0 ${Fn} every 1                                    # Add force to top layer
fix add slider1 addforce 0 0 -1000 every 1                                    

timestep ${dt}
timestep 1e-05

# fix  nve_1 slider1 nve

dump 		D1 all custom 100000 Equi_${num}_*.dump id type diameter mass xu yu zu
dump 		D1 all custom 100000 Equi_2_*.dump id type diameter mass xu yu zu

run 3000000
Generated 0 of 1 mixed pair_coeff terms from geometric mixing rule
Neighbor list info ...
  update every 1 steps, delay 0 steps, check yes
  max neighbors/atom: 2000, page size: 100000
  master list distance cutoff = 3.63
  ghost atom cutoff = 3.63
  binsize = 1.815, bins = 71 111 111
  1 neighbor lists, perpetual/occasional/extra = 1 0 0
  (1) pair granular, perpetual
      attributes: half, newton on, size, history
      pair build: half/size/bin/newton
      stencil: half/bin/3d
      bin: standard
Per MPI rank memory allocation (min/avg/max) = 13.73 | 17.2 | 18.36 Mbytes
   Step           Lx             Ly             Lz           Press           Pxx            Pyy            Pzz           KinEng         PotEng          Temp          c_1[1]         c_1[2]         c_1[3]    
         0   127.27922      200            200            0              0              0              0              0              0              0              2.6109412e-16  0              6            
    100000   127.27922      200            200            0.003876353   -1.8157329e-39  0              0.011629059    14932.486      0              7.2103631e+10  2.6109412e-16  0              3.3217143    
    200000   127.27922      200            200           -0.00045987996 -7.7441856e-38  0             -0.0013796399   2558.2094      0              1.2352677e+10  2.6109412e-16  0              3.320175     
    300000   127.27922      200            200            0.0031704945  -1.4840595e-35  0              0.0095114834   906.10215      0              4.375243e+09   2.6109412e-16  0              3.2610351    
    400000   127.27922      200            200            0.00014457152  2.1952926e-36  0              0.00043371455  75.908398      0              3.6653449e+08  2.6109412e-16  0              3.267191     
    500000   127.27922      200            200            0.0088953519   0.00017674215  0              0.026509314    0.74445311     0              3594697.6      2.6109412e-16  0              3.2577376    
    600000   127.27922      200            200            0.0056371362   1.2787871e-35  0              0.016911409    1.3956965      0              6739319.1      2.6109412e-16  0              3.259556     
    700000   127.27922      200            200            0.0043747625  -1.8526097e-38  0              0.013124287    0.45472738     0              2195715.8      2.6109412e-16  0              3.2604059    
    800000   127.27922      200            200            0.0042902007   1.3051089e-36  0              0.012870602    0.003262686    0              15754.343      2.6109412e-16  0              3.2604718    
    900000   127.27922      200            200            0.0044404812   2.9028894e-38  0              0.013321444    0.0056534805   0              27298.634      2.6109412e-16  0              3.2603681    
   1000000   127.27922      200            200            0.0044968846   8.4706536e-38  0              0.013490654    0.00085476235  0              4127.3415      2.6109412e-16  0              3.2603284    
   1100000   127.27922      200            200            0.0044924775  -5.9423881e-38  0              0.013477433    3.5170157e-06  0              16.98241       2.6109412e-16  0              3.2603311    
   1200000   127.27922      200            200            0.0044835887   1.0085541e-39  0              0.013450766    2.0143858e-05  0              97.267482      2.6109412e-16  0              3.2603372    
   1300000   127.27922      200            200            0.0044816604   7.6686433e-39  0              0.013444981    1.0448099e-06  0              5.0450129      2.6109412e-16  0              3.2603386    
   1400000   127.27922      200            200            0.0044823147  -3.8120725e-39  0              0.013446944    1.0032973e-07  0              0.48445637     2.6109412e-16  0              3.2603382    
   1500000   127.27922      200            200            0.0044827617   3.069472e-39   0              0.013448285    5.215551e-08   0              0.25184029     2.6109412e-16  0              3.2603379    
   1600000   127.27922      200            200            0.0044828002   2.3545311e-39  0              0.013448401    4.8665981e-10  0              0.0023499061   2.6109412e-16  0              3.2603378    
   1700000   127.27922      200            200            0.0044827507  -3.0928524e-39  0              0.013448252    6.0679978e-10  0              0.002930019    2.6109412e-16  0              3.2603379    
   1800000   127.27922      200            200            0.0044827314   6.0378055e-40  0              0.013448194    9.9764323e-11  0              0.00048172621  2.6109412e-16  0              3.2603379    
   1900000   127.27922      200            200            0.0044827326   1.9554272e-39  0              0.013448198    2.4399662e-13  0              1.1781724e-06  2.6109412e-16  0              3.2603379    
   2000000   127.27922      200            200            0.0044827356  -2.3437451e-40  0              0.013448207    2.2261385e-12  0              1.0749226e-05  2.6109412e-16  0              3.2603379    
   2100000   127.27922      200            200            0.0044827362  -5.0957591e-40  0              0.013448209    1.2763386e-13  0              6.1629824e-07  2.6109412e-16  0              3.2603379    
   2200000   127.27922      200            200            0.004482736   -2.4955678e-39  0              0.013448208    1.0069914e-14  0              4.8624013e-08  2.6109412e-16  0              3.2603379    
   2300000   127.27922      200            200            0.0044827359   5.919292e-39   0              0.013448208    5.913446e-15   0              2.8553915e-08  2.6109412e-16  0              3.2603379    
   2400000   127.27922      200            200            0.0044827359   6.5845746e-39  0              0.013448208    6.8108338e-17  0              3.2887079e-10  2.6109412e-16  0              3.2603379    
   2500000   127.27922      200            200            0.0044827359   1.3241947e-39  0              0.013448208    6.7211006e-17  0              3.2453789e-10  2.6109412e-16  0              3.2603379    
   2600000   127.27922      200            200            0.0044827359   5.883588e-39   0              0.013448208    1.1145223e-17  0              5.3816295e-11  2.6109412e-16  0              3.2603379    
   2700000   127.27922      200            200            0.0044827359   9.0356575e-40  0              0.013448208    2.1852927e-19  0              1.0551996e-12  2.6109412e-16  0              3.2603379    
   2800000   127.27922      200            200            0.0044827359   2.1307185e-39  0              0.013448208    2.6659075e-19  0              1.2872713e-12  2.6109412e-16  0              3.2603379    
   2900000   127.27922      200            200            0.0044827359   1.1018432e-39  0              0.013448208    9.845489e-20   0              4.7540343e-13  2.6109412e-16  0              3.2603379    
   3000000   127.27922      200            200            0.0044827359   6.3017796e-39  0              0.013448208    9.0231734e-20  0              4.3569675e-13  2.6109412e-16  0              3.2603379    
Loop time of 72.6085 on 4 procs for 3000000 steps with 51 atoms

Performance: 35698305.036 ns/day, 0.000 hours/ns, 41317.483 timesteps/s
99.9% CPU use with 4 MPI tasks x 1 OpenMP threads

MPI task timing breakdown:
Section |  min time  |  avg time  |  max time  |%varavg| %total
---------------------------------------------------------------
Pair    | 0.33004    | 1.3515     | 4.3511     | 149.0 |  1.86
Neigh   | 0.058889   | 0.061386   | 0.065072   |   1.1 |  0.08
Comm    | 31.039     | 38.932     | 45.572     |  96.3 | 53.62
Output  | 0.075788   | 0.076034   | 0.076288   |   0.1 |  0.10
Modify  | 15.862     | 22.936     | 31.714     | 146.6 | 31.59
Other   |            | 9.251      |            |       | 12.74

Nlocal:          12.75 ave          51 max           0 min
Histogram: 3 0 0 0 0 0 0 0 0 1
Nghost:          39.25 ave          52 max           1 min
Histogram: 1 0 0 0 0 0 0 0 0 3
Neighs:           6.75 ave          27 max           0 min
Histogram: 3 0 0 0 0 0 0 0 0 1

Total # of neighbors = 27
Ave neighs/atom = 0.52941176
Neighbor list builds = 160
Dangerous builds = 0

undump D1

############ Add spring between top chain to supp particle and then equilibrium  ###########

#fix sp1 support spring couple slider1 ${K0} ${lenspr} NULL NULL 0                                 # Add spring

#dump 		D2 all custom 100000 add_${num}*.dump id type diameter mass xu yu zu

#fix add1 all print 10 "${p0} ${distance} ${slider_z}" file add_distance_${num}.txt screen no      # out put step, distance(spring length), z-position of top chain

#run 1000000

#undump D2

#unfix add1

########## Pulling the supporting particle with constant velocity #############

#fix m1 support move linear 0.1 0 0 units box                                                      # apply constant velocity to supporting particles along x-direction V=0.1m/s

#fix move1 all print 100 "${p0} ${distance} ${slider_z}" file move_distance_${num}.txt screen no

#dump 		1 all custom 50000 move_${num}_*.dump id type diameter mass xu yu zu

#run 1000000

clear
  using 1 OpenMP thread(s) per MPI task

next num

jump SELF startloop

include granular.in
### Simulation of contact between two chain

##################### Simulation setup ####################

units micro                              # units
dimension	3                            # dimension
boundary	p p p                        # boundary condition p: periodic
atom_style	sphere                       # atom style
#processors * * 1

####################### Parameter ##################################

variable ind equal ${num}
variable ind equal 3

#variable lat0 equal 1                    #
variable lat1 equal 3*(2^(1/2))       # Lattice distance of bottom chain
variable lat2 equal 3                   # Lattice distance of top chain
variable d1 equal 3+(51*0.01)+(v_ind*0.01)                      # Diamter of particle at bottom chain
variable d2 equal 3                      # Diamter of particle at top chain
#variable d3 equal 1                      # Diamter of supporting particle

variable n2e1 equal 10*v_lat2              # Half length of top chain. 1500 is number of particles
variable n1e1 equal 1.5*v_n2e1*(v_lat1/v_lat2)               # Half length of bottom chain, which is 1.5 time larger than top chain
variable n1e2 equal -v_n1e1
variable n2e2 equal -v_n2e1
#variable lenspr equal -(v_n2e1+100)           # length of the spring connecting top chain and supporting particle
#variable lenspr1 equal -v_lenspr-0.1         # Position of supporting particle upper bound
#variable lenspr2 equal -v_lenspr+0.1         # Position of supporting particle lower bound

variable den equal 2.2 #grams/cm^3      # micrometer^3=10^-12 cm^3 Density of materials
#variable den2 equal 1.5

variable V1 equal (1/6)*PI*(v_d1^3)     # Volume of particle 1
variable V2 equal (1/6)*PI*(v_d2^3)     # Volume of particle 2
#variable V3 equal (1/6)*PI*(v_d3^3)     # Volume of particle 3

variable mass1 equal v_den*v_V1  # Mass of particle 1 (picograms)
variable mass2 equal v_den*v_V2  # Mass of particle 2
#variable mass3 equal v_den*v_V3  # Mass of particle 3

# E GPa to picogram/(micrometer-microsecond^2)= 10^3 Pa= 10^-6 GPa
# Force unit(picogram-micrometer/microsecond^2)=10^-9 N= 1nN
# Spring stiffness (force/distance) 10^-3 N/m

variable K0 equal (1500/50)*(10^5)             # Spring stiffness conneting top chain and sup particle
variable E equal 100*(10^6)                    # Young's Modulus using for Hertz/material model
variable PR equal 0.3                          # Poisson's ratio using for Hertz/material model
variable Fn equal -1000 #-(v_ind*100)                       # Force apply to each particles in top chain
variable dt equal 0.00001                      # Time step units microsecond
variable lgv equal 0.5                         #damping for langevin thermostat for slider


################### Creating the model #################################
lattice sc ${lat1}                                                               # Bottom chain type1
lattice sc 4.24264068711929                                                               
Lattice spacing in x,y,z = 4.2426407 4.2426407 4.2426407

region box block ${n1e2} ${n1e1} -100 100 -100 100 units box
region box block -63.6396103067894 ${n1e1} -100 100 -100 100 units box
region box block -63.6396103067894 63.6396103067894 -100 100 -100 100 units box
region substrate block ${n1e2} ${n1e1} -0.5 0.5 0 0.5 units box
region substrate block -63.6396103067894 ${n1e1} -0.5 0.5 0 0.5 units box
region substrate block -63.6396103067894 63.6396103067894 -0.5 0.5 0 0.5 units box

create_box 2 box
Created orthogonal box = (-63.63961 -100 -100) to (63.63961 100 100)
  1 by 2 by 2 MPI processor grid
create_atoms 1 region substrate
Created 30 atoms
  using lattice units in orthogonal box = (-63.63961 -100 -100) to (63.63961 100 100)
  create_atoms CPU = 0.000 seconds

lattice sc ${lat2}                                                             # Top chain type2
lattice sc 3                                                             
Lattice spacing in x,y,z = 3 3 3

region slider1 block ${n2e2} ${n2e1} -0.1 0.1 5.9 6.1 units box
region slider1 block -30 ${n2e1} -0.1 0.1 5.9 6.1 units box
region slider1 block -30 30 -0.1 0.1 5.9 6.1 units box

create_atoms 2 region slider1
Created 21 atoms
  using lattice units in orthogonal box = (-63.63961 -100 -100) to (63.63961 100 100)
  create_atoms CPU = 0.004 seconds

#lattice sc ${lat0}                                                             # Supporting particle type3

#region support block ${lenspr1} ${lenspr2} -0.1 0.1 7.9 8.1 units box

#create_atoms 3 region support

set type 1 diameter ${d1}                    # Set mass and diameter for each particles type
set type 1 diameter 3.54                    
Setting atom values ...
  30 settings made for diameter
set type 1 mass ${mass1}
set type 1 mass 51.1011988820483
Setting atom values ...
  30 settings made for mass
set type 2 diameter ${d2}
set type 2 diameter 3
Setting atom values ...
  21 settings made for diameter
set type 2 mass ${mass2}
set type 2 mass 31.101767270539
Setting atom values ...
  21 settings made for mass
#set type 3 diameter ${d3}
#set type 3 mass ${mass3}

group substrate region substrate           # Define gorup
30 atoms in group substrate
group slider1 region slider1
21 atoms in group slider1
#group support region support
group substrate_slider union substrate slider1
51 atoms in group substrate_slider

########################## Potential ###################################
pair_style granular
pair_coeff 1 1 hertz/material 0.00000001 0.001 ${PR} tangential mindlin NULL 0.1 0.01 damping viscoelastic              ########### set E between each particle in same type is small to neglect their interaction
pair_coeff 1 1 hertz/material 0.00000001 0.001 0.3 tangential mindlin NULL 0.1 0.01 damping viscoelastic              
pair_coeff 2 2 hertz/material 0.00000001 0.001 ${PR} tangential mindlin NULL 0.1 0.01 damping viscoelastic
pair_coeff 2 2 hertz/material 0.00000001 0.001 0.3 tangential mindlin NULL 0.1 0.01 damping viscoelastic
#pair_coeff 3 3 hertz/material ${E} 0.001 ${PR} tangential mindlin NULL 0.1 0.01 damping viscoelastic
pair_coeff 1 2 hertz/material ${E} 0.001 ${PR} tangential mindlin NULL 0.1 0.01 damping viscoelastic
pair_coeff 1 2 hertz/material 100000000 0.001 ${PR} tangential mindlin NULL 0.1 0.01 damping viscoelastic
pair_coeff 1 2 hertz/material 100000000 0.001 0.3 tangential mindlin NULL 0.1 0.01 damping viscoelastic
#pair_coeff 1 3 hertz/material 0.00000001 0.001 ${PR} tangential mindlin NULL 0.1 0.01 damping viscoelastic
#pair_coeff 2 3 hertz/material 0.00000001 0.001 ${PR} tangential mindlin NULL 0.1 0.01 damping viscoelastic
comm_modify     vel yes
neigh_modify    delay 0 every 1 check yes

### Compute properties ###

compute 1 slider1 com                      # Compute the center of mass of top chain
#compute 2 support com                      # Compute the center of mass of supporting particle

variable p0 equal "step"

variable slider_z equal "c_1[3]"          # output the position of top chain in z-direction

#variable distance equal "c_2[1]-c_1[1]"   # Distance between COM of top chain and supporting particle

thermo 100000
thermo_style custom step lx ly lz press pxx pyy pzz ke pe temp c_1[1] c_1[2] c_1[3] #c_2[1] c_2[2] c_2[3] v_distance

############### Fix ##################


############## Equilibrium the system with apply force ########################

fix force_slider1 slider1 setforce NULL 0 NULL                                # Fix top chain not to move in y-direction

fix f_sub substrate freeze                                                    # Freeze the bottom chain

fix rigid_top slider1 rigid/nve group 1 slider1 langevin 0 0 ${lgv} 6987532   # NVE+langevin
fix rigid_top slider1 rigid/nve group 1 slider1 langevin 0 0 0.5 6987532   
  1 rigid bodies with 21 atoms

fix add slider1 addforce 0 0 ${Fn} every 1                                    # Add force to top layer
fix add slider1 addforce 0 0 -1000 every 1                                    

timestep ${dt}
timestep 1e-05

# fix  nve_1 slider1 nve

dump 		D1 all custom 100000 Equi_${num}_*.dump id type diameter mass xu yu zu
dump 		D1 all custom 100000 Equi_3_*.dump id type diameter mass xu yu zu

run 3000000
Generated 0 of 1 mixed pair_coeff terms from geometric mixing rule
Neighbor list info ...
  update every 1 steps, delay 0 steps, check yes
  max neighbors/atom: 2000, page size: 100000
  master list distance cutoff = 3.64
  ghost atom cutoff = 3.64
  binsize = 1.82, bins = 70 110 110
  1 neighbor lists, perpetual/occasional/extra = 1 0 0
  (1) pair granular, perpetual
      attributes: half, newton on, size, history
      pair build: half/size/bin/newton
      stencil: half/bin/3d
      bin: standard
Per MPI rank memory allocation (min/avg/max) = 13.72 | 17.18 | 18.34 Mbytes
   Step           Lx             Ly             Lz           Press           Pxx            Pyy            Pzz           KinEng         PotEng          Temp          c_1[1]         c_1[2]         c_1[3]    
         0   127.27922      200            200            0              0              0              0              0              0              0              2.6109412e-16  0              6            
    100000   127.27922      200            200            0.0038861971   1.740524e-43   0              0.011658591    14984.087      0              7.2352795e+10  2.6109412e-16  0              3.3213183    
    200000   127.27922      200            200           -0.00045980221 -1.9342516e-37  0             -0.0013794066   2480.6975      0              1.1978401e+10  2.6109412e-16  0              3.3282577    
    300000   127.27922      200            200            0.00074003156 -3.6911239e-36  0              0.0022200947   878.49514      0              4.2419386e+09  2.6109412e-16  0              3.2681946    
    400000   127.27922      200            200            0.00015927658 -5.8957836e-37  0              0.00047782974  90.73541       0              4.3812882e+08  2.6109412e-16  0              3.2714657    
    500000   127.27922      200            200            0.0085458765   9.0143267e-05  0              0.025547486    3.3950959      0              16393703       2.6109412e-16  0              3.2628742    
    600000   127.27922      200            200            0.0054146417   3.5404515e-36  0              0.016243925    2.114916       0              10212173       2.6109412e-16  0              3.2647049    
    700000   127.27922      200            200            0.0042672137  -2.4955536e-37  0              0.012801641    0.39314765     0              1898369.3      2.6109412e-16  0              3.2654884    
    800000   127.27922      200            200            0.0042924385   1.464302e-36   0              0.012877315    2.3450611e-05  0              113.23461      2.6109412e-16  0              3.2654775    
    900000   127.27922      200            200            0.0044646954   2.1715074e-37  0              0.013394086    0.0075591526   0              36500.443      2.6109412e-16  0              3.2653581    
   1000000   127.27922      200            200            0.0045097435   8.290692e-38   0              0.013529231    0.00052184867  0              2519.8205      2.6109412e-16  0              3.2653262    
   1100000   127.27922      200            200            0.0044983959   1.157186e-37   0              0.013495188    3.163464e-05   0              152.75235      2.6109412e-16  0              3.2653338    
   1200000   127.27922      200            200            0.0044892538   2.0288789e-39  0              0.013467761    2.1197554e-05  0              102.3554       2.6109412e-16  0              3.2653401    
   1300000   127.27922      200            200            0.0044883283  -1.3417639e-38  0              0.013464985    2.2926584e-07  0              1.1070427      2.6109412e-16  0              3.2653408    
   1400000   127.27922      200            200            0.0044893159  -3.2197595e-39  0              0.013467948    2.4413975e-07  0              1.1788635      2.6109412e-16  0              3.2653401    
   1500000   127.27922      200            200            0.0044897071   5.527408e-39   0              0.013469121    3.9145328e-08  0              0.18901878     2.6109412e-16  0              3.2653398    
   1600000   127.27922      200            200            0.0044896788  -3.5857559e-39  0              0.013469036    1.8462009e-10  0              0.00089146435  2.6109412e-16  0              3.2653398    
   1700000   127.27922      200            200            0.0044896182  -5.0365661e-40  0              0.013468855    9.2615919e-10  0              0.0044720913   2.6109412e-16  0              3.2653399    
   1800000   127.27922      200            200            0.0044896058   8.1867571e-40  0              0.013468817    4.0402238e-11  0              0.00019508795  2.6109412e-16  0              3.2653399    
   1900000   127.27922      200            200            0.0044896106   2.8262084e-39  0              0.013468832    5.7922852e-12  0              2.7968872e-05  2.6109412e-16  0              3.2653399    
   2000000   127.27922      200            200            0.0044896136   5.5349825e-39  0              0.013468841    2.2747154e-12  0              1.0983786e-05  2.6109412e-16  0              3.2653399    
   2100000   127.27922      200            200            0.0044896137   4.7837862e-40  0              0.013468841    6.4814809e-15  0              3.1296752e-08  2.6109412e-16  0              3.2653399    
   2200000   127.27922      200            200            0.0044896134  -6.8906227e-39  0              0.01346884     3.3280017e-14  0              1.6069729e-07  2.6109412e-16  0              3.2653399    
   2300000   127.27922      200            200            0.0044896133   2.1978579e-39  0              0.01346884     3.5919812e-15  0              1.7344392e-08  2.6109412e-16  0              3.2653399    
   2400000   127.27922      200            200            0.0044896133  -3.1166793e-39  0              0.01346884     7.5084648e-17  0              3.6255689e-10  2.6109412e-16  0              3.2653399    
   2500000   127.27922      200            200            0.0044896133   9.8583224e-39  0              0.01346884     1.0866413e-16  0              5.2470018e-10  2.6109412e-16  0              3.2653399    
   2600000   127.27922      200            200            0.0044896133  -2.4470262e-39  0              0.01346884     2.6153611e-18  0              1.2628643e-11  2.6109412e-16  0              3.2653399    
   2700000   127.27922      200            200            0.0044896133  -1.2865034e-39  0              0.01346884     1.3287083e-18  0              6.415857e-12   2.6109412e-16  0              3.2653399    
   2800000   127.27922      200            200            0.0044896133  -8.4393773e-39  0              0.01346884     7.9777208e-20  0              3.8521558e-13  2.6109412e-16  0              3.2653399    
   2900000   127.27922      200            200            0.0044896133   2.3315566e-38  0              0.01346884     1.5048876e-19  0              7.2665637e-13  2.6109412e-16  0              3.2653399    
   3000000   127.27922      200            200            0.0044896133  -1.1325582e-38  0              0.01346884     7.9530586e-20  0              3.8402474e-13  2.6109412e-16  0              3.2653399    
Loop time of 72.0136 on 4 procs for 3000000 steps with 51 atoms

Performance: 35993218.721 ns/day, 0.000 hours/ns, 41658.818 timesteps/s
99.9% CPU use with 4 MPI tasks x 1 OpenMP threads

MPI task timing breakdown:
Section |  min time  |  avg time  |  max time  |%varavg| %total
---------------------------------------------------------------
Pair    | 0.3375     | 1.3402     | 4.3114     | 148.2 |  1.86
Neigh   | 0.050895   | 0.053069   | 0.056321   |   1.0 |  0.07
Comm    | 30.741     | 38.503     | 45.065     |  95.3 | 53.47
Output  | 0.14252    | 0.14274    | 0.14296    |   0.0 |  0.20
Modify  | 15.738     | 22.765     | 31.422     | 145.5 | 31.61
Other   |            | 9.21       |            |       | 12.79

Nlocal:          12.75 ave          51 max           0 min
Histogram: 3 0 0 0 0 0 0 0 0 1
Nghost:          39.25 ave          52 max           1 min
Histogram: 1 0 0 0 0 0 0 0 0 3
Neighs:           6.75 ave          27 max           0 min
Histogram: 3 0 0 0 0 0 0 0 0 1

Total # of neighbors = 27
Ave neighs/atom = 0.52941176
Neighbor list builds = 152
Dangerous builds = 0

undump D1

############ Add spring between top chain to supp particle and then equilibrium  ###########

#fix sp1 support spring couple slider1 ${K0} ${lenspr} NULL NULL 0                                 # Add spring

#dump 		D2 all custom 100000 add_${num}*.dump id type diameter mass xu yu zu

#fix add1 all print 10 "${p0} ${distance} ${slider_z}" file add_distance_${num}.txt screen no      # out put step, distance(spring length), z-position of top chain

#run 1000000

#undump D2

#unfix add1

########## Pulling the supporting particle with constant velocity #############

#fix m1 support move linear 0.1 0 0 units box                                                      # apply constant velocity to supporting particles along x-direction V=0.1m/s

#fix move1 all print 100 "${p0} ${distance} ${slider_z}" file move_distance_${num}.txt screen no

#dump 		1 all custom 50000 move_${num}_*.dump id type diameter mass xu yu zu

#run 1000000

clear
  using 1 OpenMP thread(s) per MPI task

next num

jump SELF startloop

include granular.in
### Simulation of contact between two chain

##################### Simulation setup ####################

units micro                              # units
dimension	3                            # dimension
boundary	p p p                        # boundary condition p: periodic
atom_style	sphere                       # atom style
#processors * * 1

####################### Parameter ##################################

variable ind equal ${num}
variable ind equal 4

#variable lat0 equal 1                    #
variable lat1 equal 3*(2^(1/2))       # Lattice distance of bottom chain
variable lat2 equal 3                   # Lattice distance of top chain
variable d1 equal 3+(51*0.01)+(v_ind*0.01)                      # Diamter of particle at bottom chain
variable d2 equal 3                      # Diamter of particle at top chain
#variable d3 equal 1                      # Diamter of supporting particle

variable n2e1 equal 10*v_lat2              # Half length of top chain. 1500 is number of particles
variable n1e1 equal 1.5*v_n2e1*(v_lat1/v_lat2)               # Half length of bottom chain, which is 1.5 time larger than top chain
variable n1e2 equal -v_n1e1
variable n2e2 equal -v_n2e1
#variable lenspr equal -(v_n2e1+100)           # length of the spring connecting top chain and supporting particle
#variable lenspr1 equal -v_lenspr-0.1         # Position of supporting particle upper bound
#variable lenspr2 equal -v_lenspr+0.1         # Position of supporting particle lower bound

variable den equal 2.2 #grams/cm^3      # micrometer^3=10^-12 cm^3 Density of materials
#variable den2 equal 1.5

variable V1 equal (1/6)*PI*(v_d1^3)     # Volume of particle 1
variable V2 equal (1/6)*PI*(v_d2^3)     # Volume of particle 2
#variable V3 equal (1/6)*PI*(v_d3^3)     # Volume of particle 3

variable mass1 equal v_den*v_V1  # Mass of particle 1 (picograms)
variable mass2 equal v_den*v_V2  # Mass of particle 2
#variable mass3 equal v_den*v_V3  # Mass of particle 3

# E GPa to picogram/(micrometer-microsecond^2)= 10^3 Pa= 10^-6 GPa
# Force unit(picogram-micrometer/microsecond^2)=10^-9 N= 1nN
# Spring stiffness (force/distance) 10^-3 N/m

variable K0 equal (1500/50)*(10^5)             # Spring stiffness conneting top chain and sup particle
variable E equal 100*(10^6)                    # Young's Modulus using for Hertz/material model
variable PR equal 0.3                          # Poisson's ratio using for Hertz/material model
variable Fn equal -1000 #-(v_ind*100)                       # Force apply to each particles in top chain
variable dt equal 0.00001                      # Time step units microsecond
variable lgv equal 0.5                         #damping for langevin thermostat for slider


################### Creating the model #################################
lattice sc ${lat1}                                                               # Bottom chain type1
lattice sc 4.24264068711929                                                               
Lattice spacing in x,y,z = 4.2426407 4.2426407 4.2426407

region box block ${n1e2} ${n1e1} -100 100 -100 100 units box
region box block -63.6396103067894 ${n1e1} -100 100 -100 100 units box
region box block -63.6396103067894 63.6396103067894 -100 100 -100 100 units box
region substrate block ${n1e2} ${n1e1} -0.5 0.5 0 0.5 units box
region substrate block -63.6396103067894 ${n1e1} -0.5 0.5 0 0.5 units box
region substrate block -63.6396103067894 63.6396103067894 -0.5 0.5 0 0.5 units box

create_box 2 box
Created orthogonal box = (-63.63961 -100 -100) to (63.63961 100 100)
  1 by 2 by 2 MPI processor grid
create_atoms 1 region substrate
Created 30 atoms
  using lattice units in orthogonal box = (-63.63961 -100 -100) to (63.63961 100 100)
  create_atoms CPU = 0.001 seconds

lattice sc ${lat2}                                                             # Top chain type2
lattice sc 3                                                             
Lattice spacing in x,y,z = 3 3 3

region slider1 block ${n2e2} ${n2e1} -0.1 0.1 5.9 6.1 units box
region slider1 block -30 ${n2e1} -0.1 0.1 5.9 6.1 units box
region slider1 block -30 30 -0.1 0.1 5.9 6.1 units box

create_atoms 2 region slider1
Created 21 atoms
  using lattice units in orthogonal box = (-63.63961 -100 -100) to (63.63961 100 100)
  create_atoms CPU = 0.003 seconds

#lattice sc ${lat0}                                                             # Supporting particle type3

#region support block ${lenspr1} ${lenspr2} -0.1 0.1 7.9 8.1 units box

#create_atoms 3 region support

set type 1 diameter ${d1}                    # Set mass and diameter for each particles type
set type 1 diameter 3.55                    
Setting atom values ...
  30 settings made for diameter
set type 1 mass ${mass1}
set type 1 mass 51.5354843776197
Setting atom values ...
  30 settings made for mass
set type 2 diameter ${d2}
set type 2 diameter 3
Setting atom values ...
  21 settings made for diameter
set type 2 mass ${mass2}
set type 2 mass 31.101767270539
Setting atom values ...
  21 settings made for mass
#set type 3 diameter ${d3}
#set type 3 mass ${mass3}

group substrate region substrate           # Define gorup
30 atoms in group substrate
group slider1 region slider1
21 atoms in group slider1
#group support region support
group substrate_slider union substrate slider1
51 atoms in group substrate_slider

########################## Potential ###################################
pair_style granular
pair_coeff 1 1 hertz/material 0.00000001 0.001 ${PR} tangential mindlin NULL 0.1 0.01 damping viscoelastic              ########### set E between each particle in same type is small to neglect their interaction
pair_coeff 1 1 hertz/material 0.00000001 0.001 0.3 tangential mindlin NULL 0.1 0.01 damping viscoelastic              
pair_coeff 2 2 hertz/material 0.00000001 0.001 ${PR} tangential mindlin NULL 0.1 0.01 damping viscoelastic
pair_coeff 2 2 hertz/material 0.00000001 0.001 0.3 tangential mindlin NULL 0.1 0.01 damping viscoelastic
#pair_coeff 3 3 hertz/material ${E} 0.001 ${PR} tangential mindlin NULL 0.1 0.01 damping viscoelastic
pair_coeff 1 2 hertz/material ${E} 0.001 ${PR} tangential mindlin NULL 0.1 0.01 damping viscoelastic
pair_coeff 1 2 hertz/material 100000000 0.001 ${PR} tangential mindlin NULL 0.1 0.01 damping viscoelastic
pair_coeff 1 2 hertz/material 100000000 0.001 0.3 tangential mindlin NULL 0.1 0.01 damping viscoelastic
#pair_coeff 1 3 hertz/material 0.00000001 0.001 ${PR} tangential mindlin NULL 0.1 0.01 damping viscoelastic
#pair_coeff 2 3 hertz/material 0.00000001 0.001 ${PR} tangential mindlin NULL 0.1 0.01 damping viscoelastic
comm_modify     vel yes
neigh_modify    delay 0 every 1 check yes

### Compute properties ###

compute 1 slider1 com                      # Compute the center of mass of top chain
#compute 2 support com                      # Compute the center of mass of supporting particle

variable p0 equal "step"

variable slider_z equal "c_1[3]"          # output the position of top chain in z-direction

#variable distance equal "c_2[1]-c_1[1]"   # Distance between COM of top chain and supporting particle

thermo 100000
thermo_style custom step lx ly lz press pxx pyy pzz ke pe temp c_1[1] c_1[2] c_1[3] #c_2[1] c_2[2] c_2[3] v_distance

############### Fix ##################


############## Equilibrium the system with apply force ########################

fix force_slider1 slider1 setforce NULL 0 NULL                                # Fix top chain not to move in y-direction

fix f_sub substrate freeze                                                    # Freeze the bottom chain

fix rigid_top slider1 rigid/nve group 1 slider1 langevin 0 0 ${lgv} 6987532   # NVE+langevin
fix rigid_top slider1 rigid/nve group 1 slider1 langevin 0 0 0.5 6987532   
  1 rigid bodies with 21 atoms

fix add slider1 addforce 0 0 ${Fn} every 1                                    # Add force to top layer
fix add slider1 addforce 0 0 -1000 every 1                                    

timestep ${dt}
timestep 1e-05

# fix  nve_1 slider1 nve

dump 		D1 all custom 100000 Equi_${num}_*.dump id type diameter mass xu yu zu
dump 		D1 all custom 100000 Equi_4_*.dump id type diameter mass xu yu zu

run 3000000
Generated 0 of 1 mixed pair_coeff terms from geometric mixing rule
Neighbor list info ...
  update every 1 steps, delay 0 steps, check yes
  max neighbors/atom: 2000, page size: 100000
  master list distance cutoff = 3.65
  ghost atom cutoff = 3.65
  binsize = 1.825, bins = 70 110 110
  1 neighbor lists, perpetual/occasional/extra = 1 0 0
  (1) pair granular, perpetual
      attributes: half, newton on, size, history
      pair build: half/size/bin/newton
      stencil: half/bin/3d
      bin: standard
Per MPI rank memory allocation (min/avg/max) = 13.72 | 17.18 | 18.34 Mbytes
   Step           Lx             Ly             Lz           Press           Pxx            Pyy            Pzz           KinEng         PotEng          Temp          c_1[1]         c_1[2]         c_1[3]    
         0   127.27922      200            200            0              0              0              0              0              0              0              2.6109412e-16  0              6            
    100000   127.27922      200            200            0.0038960407   3.6319552e-39  0              0.011688122    15035.757      0              7.2602289e+10  2.6109412e-16  0              3.3209098    
[...]
   3000000   127.27922      200            200            0.0048059619   6.849818e-39   0              0.014417886    1.8327674e-20  0              8.8497778e-14  2.6109412e-16  0              3.4954233    
Loop time of 69.1758 on 4 procs for 3000000 steps with 51 atoms

Performance: 37469770.645 ns/day, 0.000 hours/ns, 43367.790 timesteps/s
99.9% CPU use with 4 MPI tasks x 1 OpenMP threads

MPI task timing breakdown:
Section |  min time  |  avg time  |  max time  |%varavg| %total
---------------------------------------------------------------
Pair    | 0.27392    | 1.1637     | 3.7545     | 138.7 |  1.68
Neigh   | 0.039474   | 0.041009   | 0.043589   |   0.8 |  0.06
Comm    | 29.925     | 37.519     | 43.718     |  94.3 | 54.24
Output  | 0.077554   | 0.077747   | 0.077919   |   0.1 |  0.11
Modify  | 14.78      | 21.62      | 29.942     | 145.1 | 31.25
Other   |            | 8.754      |            |       | 12.66

Nlocal:          12.75 ave          51 max           0 min
Histogram: 3 0 0 0 0 0 0 0 0 1
Nghost:          39.25 ave          52 max           1 min
Histogram: 1 0 0 0 0 0 0 0 0 3
Neighs:           7.25 ave          29 max           0 min
Histogram: 3 0 0 0 0 0 0 0 0 1

Total # of neighbors = 29
Ave neighs/atom = 0.56862745
Neighbor list builds = 146
Dangerous builds = 0

undump D1

############ Add spring between top chain to supp particle and then equilibrium  ###########

#fix sp1 support spring couple slider1 ${K0} ${lenspr} NULL NULL 0                                 # Add spring

#dump 		D2 all custom 100000 add_${num}*.dump id type diameter mass xu yu zu

#fix add1 all print 10 "${p0} ${distance} ${slider_z}" file add_distance_${num}.txt screen no      # out put step, distance(spring length), z-position of top chain

#run 1000000

#undump D2

#unfix add1

########## Pulling the supporting particle with constant velocity #############

#fix m1 support move linear 0.1 0 0 units box                                                      # apply constant velocity to supporting particles along x-direction V=0.1m/s

#fix move1 all print 100 "${p0} ${distance} ${slider_z}" file move_distance_${num}.txt screen no

#dump 		1 all custom 50000 move_${num}_*.dump id type diameter mass xu yu zu

#run 1000000

clear
  using 1 OpenMP thread(s) per MPI task

next num

jump SELF startloop

include granular.in
### Simulation of contact between two chain

##################### Simulation setup ####################

units micro                              # units
dimension	3                            # dimension
boundary	p p p                        # boundary condition p: periodic
atom_style	sphere                       # atom style
#processors * * 1

####################### Parameter ##################################

variable ind equal ${num}
variable ind equal 50

#variable lat0 equal 1                    #
variable lat1 equal 3*(2^(1/2))       # Lattice distance of bottom chain
variable lat2 equal 3                   # Lattice distance of top chain
variable d1 equal 3+(51*0.01)+(v_ind*0.01)                      # Diamter of particle at bottom chain
variable d2 equal 3                      # Diamter of particle at top chain
#variable d3 equal 1                      # Diamter of supporting particle

variable n2e1 equal 10*v_lat2              # Half length of top chain. 1500 is number of particles
variable n1e1 equal 1.5*v_n2e1*(v_lat1/v_lat2)               # Half length of bottom chain, which is 1.5 time larger than top chain
variable n1e2 equal -v_n1e1
variable n2e2 equal -v_n2e1
#variable lenspr equal -(v_n2e1+100)           # length of the spring connecting top chain and supporting particle
#variable lenspr1 equal -v_lenspr-0.1         # Position of supporting particle upper bound
#variable lenspr2 equal -v_lenspr+0.1         # Position of supporting particle lower bound

variable den equal 2.2 #grams/cm^3      # micrometer^3=10^-12 cm^3 Density of materials
#variable den2 equal 1.5

variable V1 equal (1/6)*PI*(v_d1^3)     # Volume of particle 1
variable V2 equal (1/6)*PI*(v_d2^3)     # Volume of particle 2
#variable V3 equal (1/6)*PI*(v_d3^3)     # Volume of particle 3

variable mass1 equal v_den*v_V1  # Mass of particle 1 (picograms)
variable mass2 equal v_den*v_V2  # Mass of particle 2
#variable mass3 equal v_den*v_V3  # Mass of particle 3

# E GPa to picogram/(micrometer-microsecond^2)= 10^3 Pa= 10^-6 GPa
# Force unit(picogram-micrometer/microsecond^2)=10^-9 N= 1nN
# Spring stiffness (force/distance) 10^-3 N/m

variable K0 equal (1500/50)*(10^5)             # Spring stiffness conneting top chain and sup particle
variable E equal 100*(10^6)                    # Young's Modulus using for Hertz/material model
variable PR equal 0.3                          # Poisson's ratio using for Hertz/material model
variable Fn equal -1000 #-(v_ind*100)                       # Force apply to each particles in top chain
variable dt equal 0.00001                      # Time step units microsecond
variable lgv equal 0.5                         #damping for langevin thermostat for slider


################### Creating the model #################################
lattice sc ${lat1}                                                               # Bottom chain type1
lattice sc 4.24264068711929                                                               
Lattice spacing in x,y,z = 4.2426407 4.2426407 4.2426407

region box block ${n1e2} ${n1e1} -100 100 -100 100 units box
region box block -63.6396103067894 ${n1e1} -100 100 -100 100 units box
region box block -63.6396103067894 63.6396103067894 -100 100 -100 100 units box
region substrate block ${n1e2} ${n1e1} -0.5 0.5 0 0.5 units box
region substrate block -63.6396103067894 ${n1e1} -0.5 0.5 0 0.5 units box
region substrate block -63.6396103067894 63.6396103067894 -0.5 0.5 0 0.5 units box

create_box 2 box
Created orthogonal box = (-63.63961 -100 -100) to (63.63961 100 100)
  1 by 2 by 2 MPI processor grid
create_atoms 1 region substrate
Created 30 atoms
  using lattice units in orthogonal box = (-63.63961 -100 -100) to (63.63961 100 100)
  create_atoms CPU = 0.001 seconds

lattice sc ${lat2}                                                             # Top chain type2
lattice sc 3                                                             
Lattice spacing in x,y,z = 3 3 3

region slider1 block ${n2e2} ${n2e1} -0.1 0.1 5.9 6.1 units box
region slider1 block -30 ${n2e1} -0.1 0.1 5.9 6.1 units box
region slider1 block -30 30 -0.1 0.1 5.9 6.1 units box

create_atoms 2 region slider1
Created 21 atoms
  using lattice units in orthogonal box = (-63.63961 -100 -100) to (63.63961 100 100)
  create_atoms CPU = 0.002 seconds

#lattice sc ${lat0}                                                             # Supporting particle type3

#region support block ${lenspr1} ${lenspr2} -0.1 0.1 7.9 8.1 units box

#create_atoms 3 region support

set type 1 diameter ${d1}                    # Set mass and diameter for each particles type
set type 1 diameter 4.01                    
Setting atom values ...
  30 settings made for diameter
set type 1 mass ${mass1}
set type 1 mass 74.2770113639572
Setting atom values ...
  30 settings made for mass
set type 2 diameter ${d2}
set type 2 diameter 3
Setting atom values ...
  21 settings made for diameter
set type 2 mass ${mass2}
set type 2 mass 31.101767270539
Setting atom values ...
  21 settings made for mass
#set type 3 diameter ${d3}
#set type 3 mass ${mass3}

group substrate region substrate           # Define gorup
30 atoms in group substrate
group slider1 region slider1
21 atoms in group slider1
#group support region support
group substrate_slider union substrate slider1
51 atoms in group substrate_slider

########################## Potential ###################################
pair_style granular
pair_coeff 1 1 hertz/material 0.00000001 0.001 ${PR} tangential mindlin NULL 0.1 0.01 damping viscoelastic              ########### set E between each particle in same type is small to neglect their interaction
pair_coeff 1 1 hertz/material 0.00000001 0.001 0.3 tangential mindlin NULL 0.1 0.01 damping viscoelastic              
pair_coeff 2 2 hertz/material 0.00000001 0.001 ${PR} tangential mindlin NULL 0.1 0.01 damping viscoelastic
pair_coeff 2 2 hertz/material 0.00000001 0.001 0.3 tangential mindlin NULL 0.1 0.01 damping viscoelastic
#pair_coeff 3 3 hertz/material ${E} 0.001 ${PR} tangential mindlin NULL 0.1 0.01 damping viscoelastic
pair_coeff 1 2 hertz/material ${E} 0.001 ${PR} tangential mindlin NULL 0.1 0.01 damping viscoelastic
pair_coeff 1 2 hertz/material 100000000 0.001 ${PR} tangential mindlin NULL 0.1 0.01 damping viscoelastic
pair_coeff 1 2 hertz/material 100000000 0.001 0.3 tangential mindlin NULL 0.1 0.01 damping viscoelastic
#pair_coeff 1 3 hertz/material 0.00000001 0.001 ${PR} tangential mindlin NULL 0.1 0.01 damping viscoelastic
#pair_coeff 2 3 hertz/material 0.00000001 0.001 ${PR} tangential mindlin NULL 0.1 0.01 damping viscoelastic
comm_modify     vel yes
neigh_modify    delay 0 every 1 check yes

### Compute properties ###

compute 1 slider1 com                      # Compute the center of mass of top chain
#compute 2 support com                      # Compute the center of mass of supporting particle

variable p0 equal "step"

variable slider_z equal "c_1[3]"          # output the position of top chain in z-direction

#variable distance equal "c_2[1]-c_1[1]"   # Distance between COM of top chain and supporting particle

thermo 100000
thermo_style custom step lx ly lz press pxx pyy pzz ke pe temp c_1[1] c_1[2] c_1[3] #c_2[1] c_2[2] c_2[3] v_distance

############### Fix ##################


############## Equilibrium the system with apply force ########################

fix force_slider1 slider1 setforce NULL 0 NULL                                # Fix top chain not to move in y-direction

fix f_sub substrate freeze                                                    # Freeze the bottom chain

fix rigid_top slider1 rigid/nve group 1 slider1 langevin 0 0 ${lgv} 6987532   # NVE+langevin
fix rigid_top slider1 rigid/nve group 1 slider1 langevin 0 0 0.5 6987532   
  1 rigid bodies with 21 atoms

fix add slider1 addforce 0 0 ${Fn} every 1                                    # Add force to top layer
fix add slider1 addforce 0 0 -1000 every 1                                    

timestep ${dt}
timestep 1e-05

# fix  nve_1 slider1 nve

dump 		D1 all custom 100000 Equi_${num}_*.dump id type diameter mass xu yu zu
dump 		D1 all custom 100000 Equi_50_*.dump id type diameter mass xu yu zu

run 3000000
Generated 0 of 1 mixed pair_coeff terms from geometric mixing rule
Neighbor list info ...
  update every 1 steps, delay 0 steps, check yes
  max neighbors/atom: 2000, page size: 100000
  master list distance cutoff = 4.11
  ghost atom cutoff = 4.11
  binsize = 2.055, bins = 62 98 98
  1 neighbor lists, perpetual/occasional/extra = 1 0 0
  (1) pair granular, perpetual
      attributes: half, newton on, size, history
      pair build: half/size/bin/newton
      stencil: half/bin/3d
      bin: standard
Per MPI rank memory allocation (min/avg/max) = 13.42 | 16.89 | 18.05 Mbytes
   Step           Lx             Ly             Lz           Press           Pxx            Pyy            Pzz           KinEng         PotEng          Temp          c_1[1]         c_1[2]         c_1[3]    
         0   127.27922      200            200            0              0              0              0              0              0              0              2.6109412e-16  0              6            
    100000   127.27922      200            200           -0.00033751219  9.8355098e-40  0             -0.0010125366   11299.226      0              5.4559919e+10  2.6109412e-16  0              3.6117403    
    200000   127.27922      200            200           -0.00022092595  8.0547146e-42  0             -0.00066277784  204.749        0              9.8865964e+08  2.6109412e-16  0              3.6566798    
    300000   127.27922      200            200            0.0001526319   7.8837724e-38  0              0.0004578957   73.063717      0              3.5279854e+08  2.6109412e-16  0              3.5388241    
    400000   127.27922      200            200            0.00013799503 -3.0779736e-36  0              0.00041398508  61.394943      0              2.9645421e+08  2.6109412e-16  0              3.5069823    
    500000   127.27922      200            200            0.0013655364   1.4880395e-36  0              0.0040966092   1.6638409      0              8034092.4      2.6109412e-16  0              3.5030051    
    600000   127.27922      200            200            0.0043865812  -3.3137194e-36  0              0.013159744    2.7676952      0              13364210       2.6109412e-16  0              3.5007177    
    700000   127.27922      200            200            0.0053504375   3.3279239e-36  0              0.016051312    0.019342144    0              93396.292      2.6109412e-16  0              3.5000886    
    800000   127.27922      200            200            0.0046714363   2.5358359e-38  0              0.014014309    0.02842187     0              137239.04      2.6109412e-16  0              3.5005133    
    900000   127.27922      200            200            0.0047963598  -6.8920473e-39  0              0.014389079    0.0071351706   0              34453.185      2.6109412e-16  0              3.5004363    
   1000000   127.27922      200            200            0.0048384226  -1.1475414e-37  0              0.014515268    0.00010926551  0              527.60406      2.6109412e-16  0              3.5004086    
   1100000   127.27922      200            200            0.0048049569   2.3317917e-38  0              0.014414871    5.3396657e-05  0              257.83335      2.6109412e-16  0              3.5004299    
   1200000   127.27922      200            200            0.0048124914  -3.1063194e-39  0              0.014437474    1.8492503e-05  0              89.293681      2.6109412e-16  0              3.5004252    
   1300000   127.27922      200            200            0.0048140425  -1.5281484e-39  0              0.014442128    5.0332186e-07  0              2.4303611      2.6109412e-16  0              3.5004242    
   1400000   127.27922      200            200            0.0048124103  -5.2095648e-39  0              0.014437231    9.1043354e-08  0              0.43961577     2.6109412e-16  0              3.5004252    
   1500000   127.27922      200            200            0.0048128451   6.6708131e-40  0              0.014438535    4.6301928e-08  0              0.22357544     2.6109412e-16  0              3.500425     
   1600000   127.27922      200            200            0.0048128942   3.204398e-40   0              0.014438683    1.9497316e-09  0              0.0094145559   2.6109412e-16  0              3.5004249    
   1700000   127.27922      200            200            0.004812816    6.5301139e-40  0              0.014438448    1.3639794e-10  0              0.00065861683  2.6109412e-16  0              3.500425     
   1800000   127.27922      200            200            0.0048128403   3.7183388e-39  0              0.014438521    1.1210739e-10  0              0.00054132647  2.6109412e-16  0              3.500425     
   1900000   127.27922      200            200            0.0048128413  -1.037655e-39   0              0.014438524    6.7679365e-12  0              3.2679943e-05  2.6109412e-16  0              3.500425     
   2000000   127.27922      200            200            0.0048128376   3.0401039e-40  0              0.014438513    1.6433744e-13  0              7.9352668e-07  2.6109412e-16  0              3.500425     
   2100000   127.27922      200            200            0.0048128389  -7.3079391e-40  0              0.014438517    2.6228394e-13  0              1.2664753e-06  2.6109412e-16  0              3.500425     
   2200000   127.27922      200            200            0.0048128389  -2.9264317e-39  0              0.014438517    2.173756e-14   0              1.049629e-07   2.6109412e-16  0              3.500425     
   2300000   127.27922      200            200            0.0048128387  -7.4907245e-39  0              0.014438516    1.2197352e-16  0              5.8896648e-10  2.6109412e-16  0              3.500425     
   2400000   127.27922      200            200            0.0048128388   1.0572333e-40  0              0.014438516    5.938824e-16   0              2.8676456e-09  2.6109412e-16  0              3.500425     
   2500000   127.27922      200            200            0.0048128388   8.3665739e-39  0              0.014438516    6.3292649e-17  0              3.0561755e-10  2.6109412e-16  0              3.500425     
   2600000   127.27922      200            200            0.0048128388  -2.5705965e-40  0              0.014438516    8.1937476e-21  0              3.9564675e-14  2.6109412e-16  0              3.500425     
   2700000   127.27922      200            200            0.0048128388   5.107103e-39   0              0.014438516    6.0663587e-19  0              2.9292275e-12  2.6109412e-16  0              3.500425     
   2800000   127.27922      200            200            0.0048128388  -9.5770389e-40  0              0.014438516    1.7538243e-19  0              8.4685897e-13  2.6109412e-16  0              3.500425     
   2900000   127.27922      200            200            0.0048128388  -2.8916862e-40  0              0.014438516    4.1303963e-20  0              1.9944206e-13  2.6109412e-16  0              3.500425     
   3000000   127.27922      200            200            0.0048128388   1.0749031e-38  0              0.014438516    1.41093e-20    0              6.8128762e-14  2.6109412e-16  0              3.500425     
Loop time of 69.087 on 4 procs for 3000000 steps with 51 atoms

Performance: 37517908.298 ns/day, 0.000 hours/ns, 43423.505 timesteps/s
99.9% CPU use with 4 MPI tasks x 1 OpenMP threads

MPI task timing breakdown:
Section |  min time  |  avg time  |  max time  |%varavg| %total
---------------------------------------------------------------
Pair    | 0.27965    | 1.1764     | 3.7795     | 138.6 |  1.70
Neigh   | 0.040761   | 0.042596   | 0.045311   |   0.9 |  0.06
Comm    | 30.044     | 37.507     | 43.656     |  93.1 | 54.29
Output  | 0.074514   | 0.074746   | 0.074957   |   0.1 |  0.11
Modify  | 14.755     | 21.554     | 29.862     | 144.9 | 31.20
Other   |            | 8.732      |            |       | 12.64

Nlocal:          12.75 ave          51 max           0 min
Histogram: 3 0 0 0 0 0 0 0 0 1
Nghost:          39.25 ave          52 max           1 min
Histogram: 1 0 0 0 0 0 0 0 0 3
Neighs:           7.25 ave          29 max           0 min
Histogram: 3 0 0 0 0 0 0 0 0 1

Total # of neighbors = 29
Ave neighs/atom = 0.56862745
Neighbor list builds = 148
Dangerous builds = 0

undump D1

############ Add spring between top chain to supp particle and then equilibrium  ###########

#fix sp1 support spring couple slider1 ${K0} ${lenspr} NULL NULL 0                                 # Add spring

#dump 		D2 all custom 100000 add_${num}*.dump id type diameter mass xu yu zu

#fix add1 all print 10 "${p0} ${distance} ${slider_z}" file add_distance_${num}.txt screen no      # out put step, distance(spring length), z-position of top chain

#run 1000000

#undump D2

#unfix add1

########## Pulling the supporting particle with constant velocity #############

#fix m1 support move linear 0.1 0 0 units box                                                      # apply constant velocity to supporting particles along x-direction V=0.1m/s

#fix move1 all print 100 "${p0} ${distance} ${slider_z}" file move_distance_${num}.txt screen no

#dump 		1 all custom 50000 move_${num}_*.dump id type diameter mass xu yu zu

#run 1000000

clear
  using 1 OpenMP thread(s) per MPI task

next num

jump SELF startloop
Total wall time: 0:58:58
