LAMMPS (23 Jun 2022 - Update 1)
  using 1 OpenMP thread(s) per MPI task
variable num index 0 1 2 3 4 5 6 7 8 9 10 11 12 13 14 15 16 17 18 19 20 21 22 23 24 25 26 27 28 29 30 31 32 33 34 35  #36 37 38 39 40 41 42 43 44 45

label startloop

include granular.in
### Simulation of contact between two chain

##################### Simulation setup ####################

units micro                              # units
dimension	3                            # dimension
boundary	p p p                        # boundary condition p: periodic
atom_style	sphere                       # atom style
#processors * * 1

####################### Parameter ##################################

variable ind equal ${num}
variable ind equal 0

variable lat1 equal 3 #*(2^(1/2))
variable lat2 equal 3
variable d1 equal 3                      # Diamter of particle at bottom chain
variable d2 equal 3                      # Diamter of particle at upper chain

variable n2e1 equal 500*v_lat2              # Half length of top chain. 1500 is number of particles
variable n1e1 equal v_n2e1*(v_lat1/v_lat2)              # Half length of bottom chain, which is 1.5 time larger than top chain
variable n1e2 equal -v_n1e1
variable n2e2 equal -v_n2e1
#variable x_shift equal -0.25*v_d1

variable den equal 2.2 #grams/cm^3      # micrometer^3=10^-12 cm^3 Density of materials

variable V1 equal (1/6)*PI*(v_d1^3)     # Volume of particle 1
variable V2 equal (1/6)*PI*(v_d2^3)     # Volume of particle 2

variable mass1 equal v_den*v_V1  # Mass of particle 1 (picograms)
variable mass2 equal v_den*v_V2  # Mass of particle 2 (picograms)

# E GPa to picogram/(micrometer-microsecond^2)= 10^3 Pa= 10^-6 GPa
# Force unit(picogram-micrometer/microsecond^2)=10^-9 N= 1nN
# Spring stiffness (force/distance) 10^-3 N/m


variable E equal 100*(10^6)                    # Young's Modulus using for Hertz/material model
variable PR equal 0.1+(0.01*v_ind)                          # Poisson's ratio using for Hertz/material model
variable Fn equal -1000                        # Force apply to each particles in top chain
variable dt equal 0.00001                      # Time step units microsecond
variable lgv equal 0.5                         #damping for langevin thermostat for slider



################### Creating the model #################################
lattice sc ${lat1}                                                               # Bottom chain type1
lattice sc 3                                                               
Lattice spacing in x,y,z = 3 3 3

region box block ${n1e2} ${n1e1} -50 50 -50 50 units box
region box block -1500 ${n1e1} -50 50 -50 50 units box
region box block -1500 1500 -50 50 -50 50 units box
region substrate block ${n1e2} ${n1e1} -0.1 0.1 0 0.1 units box
region substrate block -1500 ${n1e1} -0.1 0.1 0 0.1 units box
region substrate block -1500 1500 -0.1 0.1 0 0.1 units box

create_box 2 box
Created orthogonal box = (-1500 -50 -50) to (1500 50 50)
  2 by 1 by 1 MPI processor grid
create_atoms 1 region substrate
Created 1000 atoms
  using lattice units in orthogonal box = (-1500 -50 -50) to (1500 50 50)
  create_atoms CPU = 0.001 seconds

lattice sc ${lat2}                                                             # Top chain type2
lattice sc 3                                                             
Lattice spacing in x,y,z = 3 3 3

region slider1 block ${n2e2} ${n2e1} -0.1 0.1 5.9 6.1 units box
region slider1 block -1500 ${n2e1} -0.1 0.1 5.9 6.1 units box
region slider1 block -1500 1500 -0.1 0.1 5.9 6.1 units box

create_atoms 2 region slider1
Created 1000 atoms
  using lattice units in orthogonal box = (-1500 -50 -50) to (1500 50 50)
  create_atoms CPU = 0.001 seconds


set type 1 diameter ${d1}                    # Set mass and diameter for each particles type
set type 1 diameter 3                    
Setting atom values ...
  1000 settings made for diameter
set type 1 mass ${mass1}
set type 1 mass 31.101767270539
Setting atom values ...
  1000 settings made for mass
set type 2 diameter ${d2}                    # Set mass and diameter for each particles type
set type 2 diameter 3                    
Setting atom values ...
  1000 settings made for diameter
set type 2 mass ${mass2}
set type 2 mass 31.101767270539
Setting atom values ...
  1000 settings made for mass


group substrate region substrate           # Define gorup
1000 atoms in group substrate
group slider1 region slider1
1000 atoms in group slider1
#displace_atoms slider1 move ${x_shift} 0.0 0.0
#group substrate_slider union substrate slider1

########################## Potential ###################################
pair_style granular
pair_coeff 1 1 hertz/material 0.00000001 0.001 ${PR} tangential mindlin NULL 0.1 0.01 damping viscoelastic
pair_coeff 1 1 hertz/material 0.00000001 0.001 0.1 tangential mindlin NULL 0.1 0.01 damping viscoelastic
pair_coeff 2 2 hertz/material 0.00000001 0.001 ${PR} tangential mindlin NULL 0.1 0.01 damping viscoelastic
pair_coeff 2 2 hertz/material 0.00000001 0.001 0.1 tangential mindlin NULL 0.1 0.01 damping viscoelastic
pair_coeff 1 2 hertz/material ${E} 0.001 ${PR} tangential mindlin NULL 0.1 0.01 damping viscoelastic
pair_coeff 1 2 hertz/material 100000000 0.001 ${PR} tangential mindlin NULL 0.1 0.01 damping viscoelastic
pair_coeff 1 2 hertz/material 100000000 0.001 0.1 tangential mindlin NULL 0.1 0.01 damping viscoelastic

comm_modify     vel yes
neigh_modify    delay 0 every 1 check yes

### Compute properties ###

compute 1 slider1 com                      # Compute the center of mass of top chain

variable p0 equal "step"

variable slider_z equal "c_1[3]"          # output the position of top chain in z-direction


thermo 100000
thermo_style custom step lx ly lz press pxx pyy pzz ke pe temp c_1[1] c_1[2] c_1[3]

############### Fix ##################


############## Equilibrium the system with apply force ########################

fix force_slider1 slider1 setforce NULL 0 NULL                                # Fix top chain not to move in y-direction

fix f_sub substrate freeze                                                    # Freeze the bottom chain

#fix nve_slider1 slider1 nve                   # Integrate motion for slider1 group
#fix lan_slider slider1 langevin 0 0 ${lgv} 6987532
fix rigid_top slider1 rigid/nve group 1 slider1 langevin 0 0 ${lgv} 6987532   # NVE+langevin
fix rigid_top slider1 rigid/nve group 1 slider1 langevin 0 0 0.5 6987532   
  1 rigid bodies with 1000 atoms

fix add slider1 addforce 0 0 ${Fn} every 1                                    # Add force to top layer
fix add slider1 addforce 0 0 -1000 every 1                                    

timestep ${dt}
timestep 1e-05

dump 		D1 all custom 100000 Equi_${num}_*.dump id type diameter mass xu yu zu fx fy fz
dump 		D1 all custom 100000 Equi_0_*.dump id type diameter mass xu yu zu fx fy fz
dump_modify D1 format 5 %.12g
dump_modify D1 format 7 %.12g

run 3000000
Generated 0 of 1 mixed pair_coeff terms from geometric mixing rule
Neighbor list info ...
  update every 1 steps, delay 0 steps, check yes
  max neighbors/atom: 2000, page size: 100000
  master list distance cutoff = 3.1
  ghost atom cutoff = 3.1
  binsize = 1.55, bins = 1936 65 65
  1 neighbor lists, perpetual/occasional/extra = 1 0 0
  (1) pair granular, perpetual
      attributes: half, newton on, size, history
      pair build: half/size/bin/newton
      stencil: half/bin/3d
      bin: standard
Per MPI rank memory allocation (min/avg/max) = 30.97 | 30.97 | 30.97 Mbytes
   Step           Lx             Ly             Lz           Press           Pxx            Pyy            Pzz           KinEng         PotEng          Temp          c_1[1]         c_1[2]         c_1[3]    
         0   3000           100            100            0              0              0              0              0              0              0             -1.5            0              6            
    100000   3000           100            100            0.027667831    1.862364e-21   0              0.083003492    603222.74      0              2.9127467e+13 -1.5            0              3.31347      
    200000   3000           100            100            0.010962587    2.6973679e-21  0              0.032887761    175143.05      0              8.4570313e+12 -1.5            0              3.0485291    
    300000   3000           100            100            0.0031278277   2.0148297e-21  0              0.009383483    23890.175      0              1.153571e+12  -1.5            0              3.0322114    
    400000   3000           100            100            0.036742781   -2.4034541e-18  0              0.11022834     13159.093      0              6.354055e+11  -1.5            0              2.9993192    
    500000   3000           100            100           -0.00058042712  8.9087716e-22  0             -0.0017412814   1343.2331      0              6.485992e+10  -1.5            0              3.0010469    
    600000   3000           100            100            0.046299425   -3.1382096e-18  0              0.13889827     447.3252       0              2.1599733e+10 -1.5            0              2.9991764    
    700000   3000           100            100            0.032765678   -2.2337352e-18  0              0.098297034    64.68903       0              3.1236017e+09 -1.5            0              2.9993443    
    800000   3000           100            100            0.026943286   -1.844199e-18   0              0.080829858    0.069332024    0              3347795.3     -1.5            0              2.999423     
    900000   3000           100            100            0.03175485    -2.1748041e-18  0              0.09526455     0.64367509     0              31080766      -1.5            0              2.9993559    
   1000000   3000           100            100            0.033462093   -2.2911306e-18  0              0.10038628     0.14666304     0              7081833.3     -1.5            0              2.9993331    
   1100000   3000           100            100            0.033596579   -2.3000271e-18  0              0.10078974     0.0052616973   0              254068.53     -1.5            0              2.9993314    
   1200000   3000           100            100            0.033434947   -2.2888864e-18  0              0.10030484     0.0002724971   0              13157.91      -1.5            0              2.9993336    
   1300000   3000           100            100            0.033341494   -2.2824871e-18  0              0.10002448     0.00030158547  0              14562.483     -1.5            0              2.9993348    
   1400000   3000           100            100            0.033318854   -2.2809478e-18  0              0.099956561    3.5998426e-05  0              1738.2351     -1.5            0              2.9993351    
   1500000   3000           100            100            0.033320545   -2.2810695e-18  0              0.099961634    2.8038815e-07  0              13.53894      -1.5            0              2.9993351    
   1600000   3000           100            100            0.033324338   -2.2813306e-18  0              0.099973015    2.9648325e-07  0              14.316115     -1.5            0              2.9993351    
   1700000   3000           100            100            0.033325902   -2.2814375e-18  0              0.099977707    1.0673086e-07  0              5.153651      -1.5            0              2.999335     
   1800000   3000           100            100            0.033326137   -2.2814533e-18  0              0.099978412    6.70845e-09    0              0.32392704    -1.5            0              2.999335     
   1900000   3000           100            100            0.033326041   -2.2814466e-18  0              0.099978124    2.150291e-11   0              0.0010382986  -1.5            0              2.999335     
   2000000   3000           100            100            0.033325965   -2.2814414e-18  0              0.099977894    1.696468e-10   0              0.0081916367  -1.5            0              2.999335     
   2100000   3000           100            100            0.033325942   -2.2814398e-18  0              0.099977825    3.0535807e-11  0              0.0014744649  -1.5            0              2.999335     
   2200000   3000           100            100            0.033325941   -2.2814397e-18  0              0.099977822    7.7426689e-13  0              3.7386577e-05 -1.5            0              2.999335     
   2300000   3000           100            100            0.033325943   -2.2814397e-18  0              0.09997783     9.9889443e-14  0              4.8233037e-06 -1.5            0              2.999335     
   2400000   3000           100            100            0.033325945   -2.2814398e-18  0              0.099977834    7.0220889e-14  0              3.3907154e-06 -1.5            0              2.999335     
   2500000   3000           100            100            0.033325945   -2.2814398e-18  0              0.099977835    6.9938875e-15  0              3.377098e-07  -1.5            0              2.999335     
   2600000   3000           100            100            0.033325945   -2.2814398e-18  0              0.099977835    3.3919893e-17  0              1.6378702e-09 -1.5            0              2.999335     
   2700000   3000           100            100            0.033325945   -2.2814398e-18  0              0.099977835    1.0293759e-16  0              4.9704878e-09 -1.5            0              2.999335     
   2800000   3000           100            100            0.033325945   -2.2814398e-18  0              0.099977835    2.6340297e-18  0              1.2718787e-10 -1.5            0              2.999335     
   2900000   3000           100            100            0.033325945   -2.2814398e-18  0              0.099977835    5.7070224e-18  0              2.7557169e-10 -1.5            0              2.999335     
   3000000   3000           100            100            0.033325945   -2.2814398e-18  0              0.099977835    9.8644164e-19  0              4.7631737e-11 -1.5            0              2.999335     
Loop time of 436.64 on 2 procs for 3000000 steps with 2000 atoms

Performance: 5936239.055 ns/day, 0.000 hours/ns, 6870.647 timesteps/s
100.0% CPU use with 2 MPI tasks x 1 OpenMP threads

MPI task timing breakdown:
Section |  min time  |  avg time  |  max time  |%varavg| %total
---------------------------------------------------------------
Pair    | 202.89     | 204.63     | 206.37     |  12.2 | 46.86
Neigh   | 0.99262    | 0.99284    | 0.99307    |   0.0 |  0.23
Comm    | 12.135     | 13.899     | 15.663     |  47.3 |  3.18
Output  | 0.28397    | 0.28404    | 0.2841     |   0.0 |  0.07
Modify  | 196.6      | 196.64     | 196.67     |   0.3 | 45.03
Other   |            | 20.2       |            |       |  4.63

Nlocal:           1000 ave        1000 max        1000 min
Histogram: 2 0 0 0 0 0 0 0 0 0
Nghost:              6 ave           6 max           6 min
Histogram: 2 0 0 0 0 0 0 0 0 0
Neighs:           1500 ave        1500 max        1500 min
Histogram: 2 0 0 0 0 0 0 0 0 0

Total # of neighbors = 3000
Ave neighs/atom = 1.5
Neighbor list builds = 174
Dangerous builds = 0

undump D1


clear
  using 1 OpenMP thread(s) per MPI task

next num

jump SELF startloop

include granular.in
### Simulation of contact between two chain

##################### Simulation setup ####################

units micro                              # units
dimension	3                            # dimension
boundary	p p p                        # boundary condition p: periodic
atom_style	sphere                       # atom style
#processors * * 1

####################### Parameter ##################################

variable ind equal ${num}
variable ind equal 1

variable lat1 equal 3 #*(2^(1/2))
variable lat2 equal 3
variable d1 equal 3                      # Diamter of particle at bottom chain
variable d2 equal 3                      # Diamter of particle at upper chain

variable n2e1 equal 500*v_lat2              # Half length of top chain. 1500 is number of particles
variable n1e1 equal v_n2e1*(v_lat1/v_lat2)              # Half length of bottom chain, which is 1.5 time larger than top chain
variable n1e2 equal -v_n1e1
variable n2e2 equal -v_n2e1
#variable x_shift equal -0.25*v_d1

variable den equal 2.2 #grams/cm^3      # micrometer^3=10^-12 cm^3 Density of materials

variable V1 equal (1/6)*PI*(v_d1^3)     # Volume of particle 1
variable V2 equal (1/6)*PI*(v_d2^3)     # Volume of particle 2

variable mass1 equal v_den*v_V1  # Mass of particle 1 (picograms)
variable mass2 equal v_den*v_V2  # Mass of particle 2 (picograms)

# E GPa to picogram/(micrometer-microsecond^2)= 10^3 Pa= 10^-6 GPa
# Force unit(picogram-micrometer/microsecond^2)=10^-9 N= 1nN
# Spring stiffness (force/distance) 10^-3 N/m


variable E equal 100*(10^6)                    # Young's Modulus using for Hertz/material model
variable PR equal 0.1+(0.01*v_ind)                          # Poisson's ratio using for Hertz/material model
variable Fn equal -1000                        # Force apply to each particles in top chain
variable dt equal 0.00001                      # Time step units microsecond
variable lgv equal 0.5                         #damping for langevin thermostat for slider



################### Creating the model #################################
lattice sc ${lat1}                                                               # Bottom chain type1
lattice sc 3                                                               
Lattice spacing in x,y,z = 3 3 3

region box block ${n1e2} ${n1e1} -50 50 -50 50 units box
region box block -1500 ${n1e1} -50 50 -50 50 units box
region box block -1500 1500 -50 50 -50 50 units box
region substrate block ${n1e2} ${n1e1} -0.1 0.1 0 0.1 units box
region substrate block -1500 ${n1e1} -0.1 0.1 0 0.1 units box
region substrate block -1500 1500 -0.1 0.1 0 0.1 units box

create_box 2 box
Created orthogonal box = (-1500 -50 -50) to (1500 50 50)
  2 by 1 by 1 MPI processor grid
create_atoms 1 region substrate
Created 1000 atoms
  using lattice units in orthogonal box = (-1500 -50 -50) to (1500 50 50)
  create_atoms CPU = 0.001 seconds

lattice sc ${lat2}                                                             # Top chain type2
lattice sc 3                                                             
Lattice spacing in x,y,z = 3 3 3

region slider1 block ${n2e2} ${n2e1} -0.1 0.1 5.9 6.1 units box
region slider1 block -1500 ${n2e1} -0.1 0.1 5.9 6.1 units box
region slider1 block -1500 1500 -0.1 0.1 5.9 6.1 units box

create_atoms 2 region slider1
Created 1000 atoms
  using lattice units in orthogonal box = (-1500 -50 -50) to (1500 50 50)
  create_atoms CPU = 0.001 seconds


set type 1 diameter ${d1}                    # Set mass and diameter for each particles type
set type 1 diameter 3                    
Setting atom values ...
  1000 settings made for diameter
set type 1 mass ${mass1}
set type 1 mass 31.101767270539
Setting atom values ...
  1000 settings made for mass
set type 2 diameter ${d2}                    # Set mass and diameter for each particles type
set type 2 diameter 3                    
Setting atom values ...
  1000 settings made for diameter
set type 2 mass ${mass2}
set type 2 mass 31.101767270539
Setting atom values ...
  1000 settings made for mass


group substrate region substrate           # Define gorup
1000 atoms in group substrate
group slider1 region slider1
1000 atoms in group slider1
#displace_atoms slider1 move ${x_shift} 0.0 0.0
#group substrate_slider union substrate slider1

########################## Potential ###################################
pair_style granular
pair_coeff 1 1 hertz/material 0.00000001 0.001 ${PR} tangential mindlin NULL 0.1 0.01 damping viscoelastic
pair_coeff 1 1 hertz/material 0.00000001 0.001 0.11 tangential mindlin NULL 0.1 0.01 damping viscoelastic
pair_coeff 2 2 hertz/material 0.00000001 0.001 ${PR} tangential mindlin NULL 0.1 0.01 damping viscoelastic
pair_coeff 2 2 hertz/material 0.00000001 0.001 0.11 tangential mindlin NULL 0.1 0.01 damping viscoelastic
pair_coeff 1 2 hertz/material ${E} 0.001 ${PR} tangential mindlin NULL 0.1 0.01 damping viscoelastic
pair_coeff 1 2 hertz/material 100000000 0.001 ${PR} tangential mindlin NULL 0.1 0.01 damping viscoelastic
pair_coeff 1 2 hertz/material 100000000 0.001 0.11 tangential mindlin NULL 0.1 0.01 damping viscoelastic

comm_modify     vel yes
neigh_modify    delay 0 every 1 check yes

### Compute properties ###

compute 1 slider1 com                      # Compute the center of mass of top chain

variable p0 equal "step"

variable slider_z equal "c_1[3]"          # output the position of top chain in z-direction


thermo 100000
thermo_style custom step lx ly lz press pxx pyy pzz ke pe temp c_1[1] c_1[2] c_1[3]

############### Fix ##################


############## Equilibrium the system with apply force ########################

fix force_slider1 slider1 setforce NULL 0 NULL                                # Fix top chain not to move in y-direction

fix f_sub substrate freeze                                                    # Freeze the bottom chain

#fix nve_slider1 slider1 nve                   # Integrate motion for slider1 group
#fix lan_slider slider1 langevin 0 0 ${lgv} 6987532
fix rigid_top slider1 rigid/nve group 1 slider1 langevin 0 0 ${lgv} 6987532   # NVE+langevin
fix rigid_top slider1 rigid/nve group 1 slider1 langevin 0 0 0.5 6987532   
  1 rigid bodies with 1000 atoms

fix add slider1 addforce 0 0 ${Fn} every 1                                    # Add force to top layer
fix add slider1 addforce 0 0 -1000 every 1                                    

timestep ${dt}
timestep 1e-05

dump 		D1 all custom 100000 Equi_${num}_*.dump id type diameter mass xu yu zu fx fy fz
dump 		D1 all custom 100000 Equi_1_*.dump id type diameter mass xu yu zu fx fy fz
dump_modify D1 format 5 %.12g
dump_modify D1 format 7 %.12g

run 3000000
Generated 0 of 1 mixed pair_coeff terms from geometric mixing rule
Neighbor list info ...
  update every 1 steps, delay 0 steps, check yes
  max neighbors/atom: 2000, page size: 100000
  master list distance cutoff = 3.1
  ghost atom cutoff = 3.1
  binsize = 1.55, bins = 1936 65 65
  1 neighbor lists, perpetual/occasional/extra = 1 0 0
  (1) pair granular, perpetual
      attributes: half, newton on, size, history
      pair build: half/size/bin/newton
      stencil: half/bin/3d
      bin: standard
Per MPI rank memory allocation (min/avg/max) = 30.97 | 30.97 | 30.97 Mbytes
   Step           Lx             Ly             Lz           Press           Pxx            Pyy            Pzz           KinEng         PotEng          Temp          c_1[1]         c_1[2]         c_1[3]    
         0   3000           100            100            0              0              0              0              0              0              0             -1.5            0              6            
    100000   3000           100            100            0.02766831     2.6102532e-21  0              0.083004929    603238.51      0              2.9128229e+13 -1.5            0              3.3134566    
    200000   3000           100            100            0.010963661    1.9390798e-21  0              0.032890983    175169.69      0              8.4583175e+12 -1.5            0              3.0485052    
    300000   3000           100            100            0.003129594    2.2944044e-21  0              0.0093887819   23913.459      0              1.1546954e+12 -1.5            0              3.0321919    
    400000   3000           100            100            0.03962748    -2.5559955e-18  0              0.11888244     13156.634      0              6.3528677e+11 -1.5            0              2.9992828    
    500000   3000           100            100           -0.00057396027  1.1437848e-21  0             -0.0017218808   1311.8146      0              6.3342834e+10 -1.5            0              3.0010797    
    600000   3000           100            100            0.050556815   -3.3702737e-18  0              0.15167044     425.24846      0              2.0533726e+10 -1.5            0              2.9991274    
    700000   3000           100            100            0.037240295   -2.489218e-18   0              0.11172089     61.937122      0              2.9907219e+09 -1.5            0              2.9992867    
    800000   3000           100            100            0.027734706   -1.8598161e-18  0              0.083204117    2.083007       0              1.0058095e+08 -1.5            0              2.9994128    
    900000   3000           100            100            0.031016296   -2.0814804e-18  0              0.093048889    0.059893331    0              2892034.6     -1.5            0              2.999367     
   1000000   3000           100            100            0.032795932   -2.2009545e-18  0              0.098387797    0.095007527    0              4587573.5     -1.5            0              2.999343     
   1100000   3000           100            100            0.033332662   -2.236833e-18   0              0.099997987    0.019926888    0              962198.1      -1.5            0              2.9993359    
   1200000   3000           100            100            0.033399887   -2.2412181e-18  0              0.10019966     0.001540068    0              74364.37      -1.5            0              2.999335     
   1300000   3000           100            100            0.033367005   -2.2389812e-18  0              0.10010101     1.293035e-05   0              624.3603      -1.5            0              2.9993354    
   1400000   3000           100            100            0.033339475   -2.2371272e-18  0              0.10001843     9.9288111e-06  0              479.42675     -1.5            0              2.9993358    
   1500000   3000           100            100            0.0333282     -2.2363711e-18  0              0.099984599    5.1299681e-06  0              247.7078      -1.5            0              2.9993359    
   1600000   3000           100            100            0.033325441   -2.236188e-18   0              0.099976322    7.5524665e-07  0              36.468158     -1.5            0              2.999336     
   1700000   3000           100            100            0.033325366   -2.2361837e-18  0              0.099976098    3.7521403e-08  0              1.8117743     -1.5            0              2.999336     
   1800000   3000           100            100            0.033325689   -2.2362056e-18  0              0.099977066    2.5274976e-11  0              0.0012204381  -1.5            0              2.999336     
   1900000   3000           100            100            0.033325882   -2.2362186e-18  0              0.099977646    8.1169294e-10  0              0.039193747   -1.5            0              2.999336     
   2000000   3000           100            100            0.033325949   -2.236223e-18   0              0.099977847    2.4059702e-10  0              0.011617569   -1.5            0              2.999336     
   2100000   3000           100            100            0.033325961   -2.2362239e-18  0              0.099977884    2.5371514e-11  0              0.0012250996  -1.5            0              2.999336     
   2200000   3000           100            100            0.03332596    -2.2362237e-18  0              0.099977879    6.5064632e-13  0              3.1417382e-05 -1.5            0              2.999336     
   2300000   3000           100            100            0.033325957   -2.2362234e-18  0              0.099977871    4.408311e-14   0              2.1286156e-06 -1.5            0              2.999336     
   2400000   3000           100            100            0.033325956   -2.2362233e-18  0              0.099977867    5.0678427e-14  0              2.4470799e-06 -1.5            0              2.999336     
   2500000   3000           100            100            0.033325955   -2.2362233e-18  0              0.099977866    1.0032832e-14  0              4.8444955e-07 -1.5            0              2.999336     
   2600000   3000           100            100            0.033325955   -2.2362233e-18  0              0.099977866    7.7149597e-16  0              3.7252779e-08 -1.5            0              2.999336     
   2700000   3000           100            100            0.033325955   -2.2362233e-18  0              0.099977866    4.052032e-18   0              1.9565812e-10 -1.5            0              2.999336     
   2800000   3000           100            100            0.033325955   -2.2362233e-18  0              0.099977866    1.2999402e-17  0              6.2769461e-10 -1.5            0              2.999336     
   2900000   3000           100            100            0.033325955   -2.2362233e-18  0              0.099977866    6.3183578e-19  0              3.0509089e-11 -1.5            0              2.999336     
   3000000   3000           100            100            0.033325955   -2.2362233e-18  0              0.099977866    1.1379239e-19  0              5.4946271e-12 -1.5            0              2.999336     
Loop time of 437.181 on 2 procs for 3000000 steps with 2000 atoms

Performance: 5928896.009 ns/day, 0.000 hours/ns, 6862.148 timesteps/s
100.0% CPU use with 2 MPI tasks x 1 OpenMP threads

MPI task timing breakdown:
Section |  min time  |  avg time  |  max time  |%varavg| %total
---------------------------------------------------------------
Pair    | 205.07     | 206.55     | 208.04     |  10.4 | 47.25
Neigh   | 0.97849    | 0.97859    | 0.97869    |   0.0 |  0.22
Comm    | 12.173     | 13.681     | 15.19      |  40.8 |  3.13
Output  | 0.28023    | 0.28028    | 0.28034    |   0.0 |  0.06
Modify  | 195.12     | 195.48     | 195.83     |   2.5 | 44.71
Other   |            | 20.21      |            |       |  4.62

Nlocal:           1000 ave        1000 max        1000 min
Histogram: 2 0 0 0 0 0 0 0 0 0
Nghost:              6 ave           6 max           6 min
Histogram: 2 0 0 0 0 0 0 0 0 0
Neighs:           1500 ave        1500 max        1500 min
Histogram: 2 0 0 0 0 0 0 0 0 0

Total # of neighbors = 3000
Ave neighs/atom = 1.5
Neighbor list builds = 172
Dangerous builds = 0

undump D1


clear
  using 1 OpenMP thread(s) per MPI task

next num

jump SELF startloop

include granular.in
### Simulation of contact between two chain

##################### Simulation setup ####################

units micro                              # units
dimension	3                            # dimension
boundary	p p p                        # boundary condition p: periodic
atom_style	sphere                       # atom style
#processors * * 1

####################### Parameter ##################################

variable ind equal ${num}
variable ind equal 2

variable lat1 equal 3 #*(2^(1/2))
variable lat2 equal 3
variable d1 equal 3                      # Diamter of particle at bottom chain
variable d2 equal 3                      # Diamter of particle at upper chain

variable n2e1 equal 500*v_lat2              # Half length of top chain. 1500 is number of particles
variable n1e1 equal v_n2e1*(v_lat1/v_lat2)              # Half length of bottom chain, which is 1.5 time larger than top chain
variable n1e2 equal -v_n1e1
variable n2e2 equal -v_n2e1
#variable x_shift equal -0.25*v_d1

variable den equal 2.2 #grams/cm^3      # micrometer^3=10^-12 cm^3 Density of materials

variable V1 equal (1/6)*PI*(v_d1^3)     # Volume of particle 1
variable V2 equal (1/6)*PI*(v_d2^3)     # Volume of particle 2

variable mass1 equal v_den*v_V1  # Mass of particle 1 (picograms)
variable mass2 equal v_den*v_V2  # Mass of particle 2 (picograms)

# E GPa to picogram/(micrometer-microsecond^2)= 10^3 Pa= 10^-6 GPa
# Force unit(picogram-micrometer/microsecond^2)=10^-9 N= 1nN
# Spring stiffness (force/distance) 10^-3 N/m


variable E equal 100*(10^6)                    # Young's Modulus using for Hertz/material model
variable PR equal 0.1+(0.01*v_ind)                          # Poisson's ratio using for Hertz/material model
variable Fn equal -1000                        # Force apply to each particles in top chain
variable dt equal 0.00001                      # Time step units microsecond
variable lgv equal 0.5                         #damping for langevin thermostat for slider



################### Creating the model #################################
lattice sc ${lat1}                                                               # Bottom chain type1
lattice sc 3                                                               
Lattice spacing in x,y,z = 3 3 3

region box block ${n1e2} ${n1e1} -50 50 -50 50 units box
region box block -1500 ${n1e1} -50 50 -50 50 units box
region box block -1500 1500 -50 50 -50 50 units box
region substrate block ${n1e2} ${n1e1} -0.1 0.1 0 0.1 units box
region substrate block -1500 ${n1e1} -0.1 0.1 0 0.1 units box
region substrate block -1500 1500 -0.1 0.1 0 0.1 units box

create_box 2 box
Created orthogonal box = (-1500 -50 -50) to (1500 50 50)
  2 by 1 by 1 MPI processor grid
create_atoms 1 region substrate
Created 1000 atoms
  using lattice units in orthogonal box = (-1500 -50 -50) to (1500 50 50)
  create_atoms CPU = 0.001 seconds

lattice sc ${lat2}                                                             # Top chain type2
lattice sc 3                                                             
Lattice spacing in x,y,z = 3 3 3

region slider1 block ${n2e2} ${n2e1} -0.1 0.1 5.9 6.1 units box
region slider1 block -1500 ${n2e1} -0.1 0.1 5.9 6.1 units box
region slider1 block -1500 1500 -0.1 0.1 5.9 6.1 units box

create_atoms 2 region slider1
Created 1000 atoms
  using lattice units in orthogonal box = (-1500 -50 -50) to (1500 50 50)
  create_atoms CPU = 0.001 seconds


set type 1 diameter ${d1}                    # Set mass and diameter for each particles type
set type 1 diameter 3                    
Setting atom values ...
  1000 settings made for diameter
set type 1 mass ${mass1}
set type 1 mass 31.101767270539
Setting atom values ...
  1000 settings made for mass
set type 2 diameter ${d2}                    # Set mass and diameter for each particles type
set type 2 diameter 3                    
Setting atom values ...
  1000 settings made for diameter
set type 2 mass ${mass2}
set type 2 mass 31.101767270539
Setting atom values ...
  1000 settings made for mass


group substrate region substrate           # Define gorup
1000 atoms in group substrate
group slider1 region slider1
1000 atoms in group slider1
#displace_atoms slider1 move ${x_shift} 0.0 0.0
#group substrate_slider union substrate slider1

########################## Potential ###################################
pair_style granular
pair_coeff 1 1 hertz/material 0.00000001 0.001 ${PR} tangential mindlin NULL 0.1 0.01 damping viscoelastic
pair_coeff 1 1 hertz/material 0.00000001 0.001 0.12 tangential mindlin NULL 0.1 0.01 damping viscoelastic
pair_coeff 2 2 hertz/material 0.00000001 0.001 ${PR} tangential mindlin NULL 0.1 0.01 damping viscoelastic
pair_coeff 2 2 hertz/material 0.00000001 0.001 0.12 tangential mindlin NULL 0.1 0.01 damping viscoelastic
pair_coeff 1 2 hertz/material ${E} 0.001 ${PR} tangential mindlin NULL 0.1 0.01 damping viscoelastic
pair_coeff 1 2 hertz/material 100000000 0.001 ${PR} tangential mindlin NULL 0.1 0.01 damping viscoelastic
pair_coeff 1 2 hertz/material 100000000 0.001 0.12 tangential mindlin NULL 0.1 0.01 damping viscoelastic

comm_modify     vel yes
neigh_modify    delay 0 every 1 check yes

### Compute properties ###

compute 1 slider1 com                      # Compute the center of mass of top chain

variable p0 equal "step"

variable slider_z equal "c_1[3]"          # output the position of top chain in z-direction


thermo 100000
thermo_style custom step lx ly lz press pxx pyy pzz ke pe temp c_1[1] c_1[2] c_1[3]

############### Fix ##################


############## Equilibrium the system with apply force ########################

fix force_slider1 slider1 setforce NULL 0 NULL                                # Fix top chain not to move in y-direction

fix f_sub substrate freeze                                                    # Freeze the bottom chain

#fix nve_slider1 slider1 nve                   # Integrate motion for slider1 group
#fix lan_slider slider1 langevin 0 0 ${lgv} 6987532
fix rigid_top slider1 rigid/nve group 1 slider1 langevin 0 0 ${lgv} 6987532   # NVE+langevin
fix rigid_top slider1 rigid/nve group 1 slider1 langevin 0 0 0.5 6987532   
  1 rigid bodies with 1000 atoms

fix add slider1 addforce 0 0 ${Fn} every 1                                    # Add force to top layer
fix add slider1 addforce 0 0 -1000 every 1                                    

timestep ${dt}
timestep 1e-05

dump 		D1 all custom 100000 Equi_${num}_*.dump id type diameter mass xu yu zu fx fy fz
dump 		D1 all custom 100000 Equi_2_*.dump id type diameter mass xu yu zu fx fy fz
dump_modify D1 format 5 %.12g
dump_modify D1 format 7 %.12g

run 3000000
Generated 0 of 1 mixed pair_coeff terms from geometric mixing rule
Neighbor list info ...
  update every 1 steps, delay 0 steps, check yes
  max neighbors/atom: 2000, page size: 100000
  master list distance cutoff = 3.1
  ghost atom cutoff = 3.1
  binsize = 1.55, bins = 1936 65 65
  1 neighbor lists, perpetual/occasional/extra = 1 0 0
  (1) pair granular, perpetual
      attributes: half, newton on, size, history
      pair build: half/size/bin/newton
      stencil: half/bin/3d
      bin: standard
Per MPI rank memory allocation (min/avg/max) = 30.97 | 30.97 | 30.97 Mbytes
   Step           Lx             Ly             Lz           Press           Pxx            Pyy            Pzz           KinEng         PotEng          Temp          c_1[1]         c_1[2]         c_1[3]    
         0   3000           100            100            0              0              0              0              0              0              0             -1.5            0              6            
    100000   3000           100            100            0.027668833    1.7260041e-21  0              0.0830065      603255.69      0              2.9129058e+13 -1.5            0              3.3134424    
    200000   3000           100            100            0.010964838    2.6712663e-21  0              0.032894513    175198.89      0              8.4597272e+12 -1.5            0              3.0484788    
    300000   3000           100            100            0.0031315519   1.4821339e-21  0              0.0093946557   23939.281      0              1.1559422e+12 -1.5            0              3.0321702    
    400000   3000           100            100            0.042918196   -2.6817755e-18  0              0.12875459     13150.045      0              6.3496863e+11 -1.5            0              2.9992425    
    500000   3000           100            100           -0.00056682623  9.6017781e-22  0             -0.0017004787   1277.6328      0              6.1692317e+10 -1.5            0              3.0011154    
    600000   3000           100            100            0.055238987   -3.6010551e-18  0              0.16571696     394.57447      0              1.9052589e+10 -1.5            0              2.9990752    
    700000   3000           100            100            0.042076726   -2.7562347e-18  0              0.12623018     50.605551      0              2.4435609e+09 -1.5            0              2.999227     
    800000   3000           100            100            0.029748453   -1.9527089e-18  0              0.089245358    5.9634078      0              2.8795162e+08 -1.5            0              2.9993859    
    900000   3000           100            100            0.03119008    -2.0492566e-18  0              0.09357024     0.21453888     0              10359315      -1.5            0              2.9993658    
   1000000   3000           100            100            0.032458281   -2.1331847e-18  0              0.097374844    9.1761879e-05  0              4430.8527     -1.5            0              2.9993486    
   1100000   3000           100            100            0.033046532   -2.1718544e-18  0              0.099139595    0.0044490923   0              214830.75     -1.5            0              2.9993407    
   1200000   3000           100            100            0.033259383   -2.1858326e-18  0              0.09977815     0.0017678744   0              85364.329     -1.5            0              2.9993379    
   1300000   3000           100            100            0.033319695   -2.1897656e-18  0              0.099959086    0.0003421306   0              16520.262     -1.5            0              2.9993371    
   1400000   3000           100            100            0.033330703   -2.1904786e-18  0              0.09999211     4.1697596e-05  0              2013.4277     -1.5            0              2.9993369    
   1500000   3000           100            100            0.033329875   -2.1904189e-18  0              0.099989626    3.0598589e-06  0              147.74963     -1.5            0              2.999337     
   1600000   3000           100            100            0.03332788    -2.1902866e-18  0              0.099983641    7.9753059e-08  0              3.8509898     -1.5            0              2.999337     
   1700000   3000           100            100            0.033326693   -2.1902083e-18  0              0.09998008     2.2982886e-09  0              0.11097613    -1.5            0              2.999337     
   1800000   3000           100            100            0.033326186   -2.1901749e-18  0              0.099978557    4.6972498e-09  0              0.22681338    -1.5            0              2.999337     
   1900000   3000           100            100            0.033326013   -2.1901636e-18  0              0.099978039    1.4596248e-09  0              0.070480057   -1.5            0              2.999337     
   2000000   3000           100            100            0.033325968   -2.1901607e-18  0              0.099977903    2.4847051e-10  0              0.011997752   -1.5            0              2.999337     
   2100000   3000           100            100            0.033325961   -2.1901603e-18  0              0.099977884    2.6925626e-11  0              0.0013001421  -1.5            0              2.999337     
   2200000   3000           100            100            0.033325963   -2.1901603e-18  0              0.099977889    1.6527821e-12  0              7.9806933e-05 -1.5            0              2.999337     
   2300000   3000           100            100            0.033325965   -2.1901603e-18  0              0.099977895    2.2176639e-14  0              1.0708305e-06 -1.5            0              2.999337     
   2400000   3000           100            100            0.033325966   -2.1901604e-18  0              0.099977899    5.3619775e-15  0              2.589107e-07  -1.5            0              2.999337     
   2500000   3000           100            100            0.033325967   -2.1901605e-18  0              0.0999779      4.658791e-15   0              2.2495635e-07 -1.5            0              2.999337     
   2600000   3000           100            100            0.033325967   -2.1901605e-18  0              0.0999779      1.1256548e-15  0              5.4353841e-08 -1.5            0              2.999337     
   2700000   3000           100            100            0.033325967   -2.1901605e-18  0              0.0999779      1.7809078e-16  0              8.5993663e-09 -1.5            0              2.999337     
   2800000   3000           100            100            0.033325967   -2.1901605e-18  0              0.0999779      2.038969e-17   0              9.8454516e-10 -1.5            0              2.999337     
   2900000   3000           100            100            0.033325967   -2.1901605e-18  0              0.0999779      7.9426294e-18  0              3.8352115e-10 -1.5            0              2.999337     
   3000000   3000           100            100            0.033325967   -2.1901605e-18  0              0.0999779      6.5183425e-18  0              3.1474743e-10 -1.5            0              2.999337     
Loop time of 425.348 on 2 procs for 3000000 steps with 2000 atoms

Performance: 6093831.942 ns/day, 0.000 hours/ns, 7053.046 timesteps/s
100.0% CPU use with 2 MPI tasks x 1 OpenMP threads

MPI task timing breakdown:
Section |  min time  |  avg time  |  max time  |%varavg| %total
---------------------------------------------------------------
Pair    | 196.39     | 196.6      | 196.82     |   1.5 | 46.22
Neigh   | 0.9953     | 0.99539    | 0.99548    |   0.0 |  0.23
Comm    | 12.343     | 12.547     | 12.751     |   5.8 |  2.95
Output  | 0.27735    | 0.2774     | 0.27744    |   0.0 |  0.07
Modify  | 194.78     | 194.78     | 194.79     |   0.0 | 45.79
Other   |            | 20.14      |            |       |  4.74

Nlocal:           1000 ave        1000 max        1000 min
Histogram: 2 0 0 0 0 0 0 0 0 0
Nghost:              6 ave           6 max           6 min
Histogram: 2 0 0 0 0 0 0 0 0 0
Neighs:           1500 ave        1500 max        1500 min
Histogram: 2 0 0 0 0 0 0 0 0 0

Total # of neighbors = 3000
Ave neighs/atom = 1.5
Neighbor list builds = 174
Dangerous builds = 0

undump D1


clear
  using 1 OpenMP thread(s) per MPI task

next num

jump SELF startloop

include granular.in
### Simulation of contact between two chain

##################### Simulation setup ####################

units micro                              # units
dimension	3                            # dimension
boundary	p p p                        # boundary condition p: periodic
atom_style	sphere                       # atom style
#processors * * 1

####################### Parameter ##################################

variable ind equal ${num}
variable ind equal 3

variable lat1 equal 3 #*(2^(1/2))
variable lat2 equal 3
variable d1 equal 3                      # Diamter of particle at bottom chain
variable d2 equal 3                      # Diamter of particle at upper chain

variable n2e1 equal 500*v_lat2              # Half length of top chain. 1500 is number of particles
variable n1e1 equal v_n2e1*(v_lat1/v_lat2)              # Half length of bottom chain, which is 1.5 time larger than top chain
variable n1e2 equal -v_n1e1
variable n2e2 equal -v_n2e1
#variable x_shift equal -0.25*v_d1

variable den equal 2.2 #grams/cm^3      # micrometer^3=10^-12 cm^3 Density of materials

variable V1 equal (1/6)*PI*(v_d1^3)     # Volume of particle 1
variable V2 equal (1/6)*PI*(v_d2^3)     # Volume of particle 2

variable mass1 equal v_den*v_V1  # Mass of particle 1 (picograms)
variable mass2 equal v_den*v_V2  # Mass of particle 2 (picograms)

# E GPa to picogram/(micrometer-microsecond^2)= 10^3 Pa= 10^-6 GPa
# Force unit(picogram-micrometer/microsecond^2)=10^-9 N= 1nN
# Spring stiffness (force/distance) 10^-3 N/m


variable E equal 100*(10^6)                    # Young's Modulus using for Hertz/material model
variable PR equal 0.1+(0.01*v_ind)                          # Poisson's ratio using for Hertz/material model
variable Fn equal -1000                        # Force apply to each particles in top chain
variable dt equal 0.00001                      # Time step units microsecond
variable lgv equal 0.5                         #damping for langevin thermostat for slider



################### Creating the model #################################
lattice sc ${lat1}                                                               # Bottom chain type1
lattice sc 3                                                               
Lattice spacing in x,y,z = 3 3 3

region box block ${n1e2} ${n1e1} -50 50 -50 50 units box
region box block -1500 ${n1e1} -50 50 -50 50 units box
region box block -1500 1500 -50 50 -50 50 units box
region substrate block ${n1e2} ${n1e1} -0.1 0.1 0 0.1 units box
region substrate block -1500 ${n1e1} -0.1 0.1 0 0.1 units box
region substrate block -1500 1500 -0.1 0.1 0 0.1 units box

create_box 2 box
Created orthogonal box = (-1500 -50 -50) to (1500 50 50)
  2 by 1 by 1 MPI processor grid
create_atoms 1 region substrate
Created 1000 atoms
  using lattice units in orthogonal box = (-1500 -50 -50) to (1500 50 50)
  create_atoms CPU = 0.001 seconds

lattice sc ${lat2}                                                             # Top chain type2
lattice sc 3                                                             
Lattice spacing in x,y,z = 3 3 3

region slider1 block ${n2e2} ${n2e1} -0.1 0.1 5.9 6.1 units box
region slider1 block -1500 ${n2e1} -0.1 0.1 5.9 6.1 units box
region slider1 block -1500 1500 -0.1 0.1 5.9 6.1 units box

create_atoms 2 region slider1
Created 1000 atoms
  using lattice units in orthogonal box = (-1500 -50 -50) to (1500 50 50)
  create_atoms CPU = 0.001 seconds


set type 1 diameter ${d1}                    # Set mass and diameter for each particles type
set type 1 diameter 3                    
Setting atom values ...
  1000 settings made for diameter
set type 1 mass ${mass1}
set type 1 mass 31.101767270539
Setting atom values ...
  1000 settings made for mass
set type 2 diameter ${d2}                    # Set mass and diameter for each particles type
set type 2 diameter 3                    
Setting atom values ...
  1000 settings made for diameter
set type 2 mass ${mass2}
set type 2 mass 31.101767270539
Setting atom values ...
  1000 settings made for mass


group substrate region substrate           # Define gorup
1000 atoms in group substrate
group slider1 region slider1
1000 atoms in group slider1
#displace_atoms slider1 move ${x_shift} 0.0 0.0
#group substrate_slider union substrate slider1

########################## Potential ###################################
pair_style granular
pair_coeff 1 1 hertz/material 0.00000001 0.001 ${PR} tangential mindlin NULL 0.1 0.01 damping viscoelastic
pair_coeff 1 1 hertz/material 0.00000001 0.001 0.13 tangential mindlin NULL 0.1 0.01 damping viscoelastic
pair_coeff 2 2 hertz/material 0.00000001 0.001 ${PR} tangential mindlin NULL 0.1 0.01 damping viscoelastic
pair_coeff 2 2 hertz/material 0.00000001 0.001 0.13 tangential mindlin NULL 0.1 0.01 damping viscoelastic
pair_coeff 1 2 hertz/material ${E} 0.001 ${PR} tangential mindlin NULL 0.1 0.01 damping viscoelastic
pair_coeff 1 2 hertz/material 100000000 0.001 ${PR} tangential mindlin NULL 0.1 0.01 damping viscoelastic
pair_coeff 1 2 hertz/material 100000000 0.001 0.13 tangential mindlin NULL 0.1 0.01 damping viscoelastic

comm_modify     vel yes
neigh_modify    delay 0 every 1 check yes

### Compute properties ###

compute 1 slider1 com                      # Compute the center of mass of top chain

variable p0 equal "step"

variable slider_z equal "c_1[3]"          # output the position of top chain in z-direction


thermo 100000
thermo_style custom step lx ly lz press pxx pyy pzz ke pe temp c_1[1] c_1[2] c_1[3]

############### Fix ##################


############## Equilibrium the system with apply force ########################

fix force_slider1 slider1 setforce NULL 0 NULL                                # Fix top chain not to move in y-direction

fix f_sub substrate freeze                                                    # Freeze the bottom chain

#fix nve_slider1 slider1 nve                   # Integrate motion for slider1 group
#fix lan_slider slider1 langevin 0 0 ${lgv} 6987532
fix rigid_top slider1 rigid/nve group 1 slider1 langevin 0 0 ${lgv} 6987532   # NVE+langevin
fix rigid_top slider1 rigid/nve group 1 slider1 langevin 0 0 0.5 6987532   
  1 rigid bodies with 1000 atoms

fix add slider1 addforce 0 0 ${Fn} every 1                                    # Add force to top layer
fix add slider1 addforce 0 0 -1000 every 1                                    

timestep ${dt}
timestep 1e-05

dump 		D1 all custom 100000 Equi_${num}_*.dump id type diameter mass xu yu zu fx fy fz
dump 		D1 all custom 100000 Equi_3_*.dump id type diameter mass xu yu zu fx fy fz
dump_modify D1 format 5 %.12g
dump_modify D1 format 7 %.12g

run 3000000
Generated 0 of 1 mixed pair_coeff terms from geometric mixing rule
Neighbor list info ...
  update every 1 steps, delay 0 steps, check yes
  max neighbors/atom: 2000, page size: 100000
  master list distance cutoff = 3.1
  ghost atom cutoff = 3.1
  binsize = 1.55, bins = 1936 65 65
  1 neighbor lists, perpetual/occasional/extra = 1 0 0
  (1) pair granular, perpetual
      attributes: half, newton on, size, history
      pair build: half/size/bin/newton
      stencil: half/bin/3d
      bin: standard
Per MPI rank memory allocation (min/avg/max) = 30.97 | 30.97 | 30.97 Mbytes
   Step           Lx             Ly             Lz           Press           Pxx            Pyy            Pzz           KinEng         PotEng          Temp          c_1[1]         c_1[2]         c_1[3]    
         0   3000           100            100            0              0              0              0              0              0              0             -1.5            0              6            
    100000   3000           100            100            0.027669406    2.5381575e-21  0              0.083008217    603274.53      0              2.9129968e+13 -1.5            0              3.3134263    
    200000   3000           100            100            0.010966135    1.1117781e-21  0              0.032898404    175231.06      0              8.4612809e+12 -1.5            0              3.0484496    
    300000   3000           100            100            0.0031336768   2.3248327e-21  0              0.0094010304   23967.316      0              1.1572959e+12 -1.5            0              3.0321467    
    400000   3000           100            100            0.04659533    -2.8928102e-18  0              0.13978599     13138.241      0              6.3439863e+11 -1.5            0              2.9991989    
    500000   3000           100            100           -0.00055908359  1.376565e-21   0             -0.0016772508   1241.1002      0              5.9928286e+10 -1.5            0              3.0011536    
    600000   3000           100            100            0.060260657   -3.8535161e-18  0              0.18078197     354.64153      0              1.712437e+10  -1.5            0              2.9990211    
    700000   3000           100            100            0.046752127   -3.0010407e-18  0              0.14025638     32.01224       0              1.5457565e+09 -1.5            0              2.9991717    
    800000   3000           100            100            0.032879809   -2.1128229e-18  0              0.098639428    8.5700911      0              4.1381903e+08 -1.5            0              2.9993447    
    900000   3000           100            100            0.03245129    -2.0873935e-18  0              0.097353869    0.98455634     0              47540702      -1.5            0              2.99935      
   1000000   3000           100            100            0.032821473   -2.1118086e-18  0              0.09846442     0.099657648    0              4812111.1     -1.5            0              2.9993449    
   1100000   3000           100            100            0.033086725   -2.1291508e-18  0              0.099260174    0.0085106286   0              410947.8      -1.5            0              2.9993413    
   1200000   3000           100            100            0.03322357    -2.1380098e-18  0              0.099670711    0.00055061603  0              26587.277     -1.5            0              2.9993395    
   1300000   3000           100            100            0.033285224   -2.1420013e-18  0              0.099855671    1.91984e-05    0              927.02201     -1.5            0              2.9993387    
   1400000   3000           100            100            0.033310713   -2.1436439e-18  0              0.099932139    5.8240967e-11  0              0.0028122478  -1.5            0              2.9993383    
   1500000   3000           100            100            0.033320578   -2.1442797e-18  0              0.099961733    3.4265145e-07  0              16.545412     -1.5            0              2.9993382    
   1600000   3000           100            100            0.03332418    -2.1445114e-18  0              0.09997254     1.7052221e-07  0              8.2339071     -1.5            0              2.9993382    
   1700000   3000           100            100            0.033325422   -2.1445912e-18  0              0.099976265    4.6029031e-08  0              2.2225772     -1.5            0              2.9993381    
   1800000   3000           100            100            0.033325823   -2.1446169e-18  0              0.099977469    9.4217249e-09  0              0.45494137    -1.5            0              2.9993381    
   1900000   3000           100            100            0.033325943   -2.1446245e-18  0              0.099977828    1.6196232e-09  0              0.078205808   -1.5            0              2.9993381    
   2000000   3000           100            100            0.033325974   -2.1446265e-18  0              0.099977922    2.4375647e-10  0              0.011770128   -1.5            0              2.9993381    
   2100000   3000           100            100            0.03332598    -2.1446269e-18  0              0.099977941    3.2665568e-11  0              0.0015773034  -1.5            0              2.9993381    
   2200000   3000           100            100            0.033325981   -2.1446269e-18  0              0.099977942    3.898482e-12   0              0.00018824374 -1.5            0              2.9993381    
   2300000   3000           100            100            0.03332598    -2.1446268e-18  0              0.09997794     4.0951552e-13  0              1.9774039e-05 -1.5            0              2.9993381    
   2400000   3000           100            100            0.03332598    -2.1446267e-18  0              0.099977939    3.6941623e-14  0              1.7837787e-06 -1.5            0              2.9993381    
   2500000   3000           100            100            0.033325979   -2.1446267e-18  0              0.099977938    2.5323877e-15  0              1.2227994e-07 -1.5            0              2.9993381    
   2600000   3000           100            100            0.033325979   -2.1446266e-18  0              0.099977938    1.4061695e-16  0              6.7898893e-09 -1.5            0              2.9993381    
   2700000   3000           100            100            0.033325979   -2.1446266e-18  0              0.099977938    1.3102631e-18  0              6.3267918e-11 -1.5            0              2.9993381    
   2800000   3000           100            100            0.033325979   -2.1446266e-18  0              0.099977938    1.8933517e-17  0              9.1423179e-10 -1.5            0              2.9993381    
   2900000   3000           100            100            0.033325979   -2.1446266e-18  0              0.099977938    5.2795924e-18  0              2.5493262e-10 -1.5            0              2.9993381    
   3000000   3000           100            100            0.033325979   -2.1446266e-18  0              0.099977938    2.6476041e-18  0              1.2784332e-10 -1.5            0              2.9993381    
Loop time of 427.878 on 2 procs for 3000000 steps with 2000 atoms

Performance: 6057807.628 ns/day, 0.000 hours/ns, 7011.351 timesteps/s
100.0% CPU use with 2 MPI tasks x 1 OpenMP threads

MPI task timing breakdown:
Section |  min time  |  avg time  |  max time  |%varavg| %total
---------------------------------------------------------------
Pair    | 198.04     | 198.57     | 199.1      |   3.7 | 46.41
Neigh   | 1.0049     | 1.005      | 1.0051     |   0.0 |  0.23
Comm    | 12.465     | 13.004     | 13.543     |  14.9 |  3.04
Output  | 0.27852    | 0.27857    | 0.27862    |   0.0 |  0.07
Modify  | 194.58     | 194.65     | 194.72     |   0.5 | 45.49
Other   |            | 20.37      |            |       |  4.76

Nlocal:           1000 ave        1000 max        1000 min
Histogram: 2 0 0 0 0 0 0 0 0 0
Nghost:              6 ave           6 max           6 min
Histogram: 2 0 0 0 0 0 0 0 0 0
Neighs:           1500 ave        1500 max        1500 min
Histogram: 2 0 0 0 0 0 0 0 0 0

Total # of neighbors = 3000
Ave neighs/atom = 1.5
Neighbor list builds = 174
Dangerous builds = 0

undump D1


clear
  using 1 OpenMP thread(s) per MPI task

next num

jump SELF startloop

include granular.in
### Simulation of contact between two chain

##################### Simulation setup ####################

units micro                              # units
dimension	3                            # dimension
boundary	p p p                        # boundary condition p: periodic
atom_style	sphere                       # atom style
#processors * * 1

####################### Parameter ##################################

variable ind equal ${num}
variable ind equal 4

variable lat1 equal 3 #*(2^(1/2))
variable lat2 equal 3
variable d1 equal 3                      # Diamter of particle at bottom chain
variable d2 equal 3                      # Diamter of particle at upper chain

variable n2e1 equal 500*v_lat2              # Half length of top chain. 1500 is number of particles
variable n1e1 equal v_n2e1*(v_lat1/v_lat2)              # Half length of bottom chain, which is 1.5 time larger than top chain
variable n1e2 equal -v_n1e1
variable n2e2 equal -v_n2e1
#variable x_shift equal -0.25*v_d1

variable den equal 2.2 #grams/cm^3      # micrometer^3=10^-12 cm^3 Density of materials

variable V1 equal (1/6)*PI*(v_d1^3)     # Volume of particle 1
variable V2 equal (1/6)*PI*(v_d2^3)     # Volume of particle 2

variable mass1 equal v_den*v_V1  # Mass of particle 1 (picograms)
variable mass2 equal v_den*v_V2  # Mass of particle 2 (picograms)

# E GPa to picogram/(micrometer-microsecond^2)= 10^3 Pa= 10^-6 GPa
# Force unit(picogram-micrometer/microsecond^2)=10^-9 N= 1nN
# Spring stiffness (force/distance) 10^-3 N/m


variable E equal 100*(10^6)                    # Young's Modulus using for Hertz/material model
variable PR equal 0.1+(0.01*v_ind)                          # Poisson's ratio using for Hertz/material model
variable Fn equal -1000                        # Force apply to each particles in top chain
variable dt equal 0.00001                      # Time step units microsecond
variable lgv equal 0.5                         #damping for langevin thermostat for slider



################### Creating the model #################################
lattice sc ${lat1}                                                               # Bottom chain type1
lattice sc 3                                                               
Lattice spacing in x,y,z = 3 3 3

region box block ${n1e2} ${n1e1} -50 50 -50 50 units box
region box block -1500 ${n1e1} -50 50 -50 50 units box
region box block -1500 1500 -50 50 -50 50 units box
region substrate block ${n1e2} ${n1e1} -0.1 0.1 0 0.1 units box
region substrate block -1500 ${n1e1} -0.1 0.1 0 0.1 units box
region substrate block -1500 1500 -0.1 0.1 0 0.1 units box

create_box 2 box
Created orthogonal box = (-1500 -50 -50) to (1500 50 50)
  2 by 1 by 1 MPI processor grid
create_atoms 1 region substrate
Created 1000 atoms
  using lattice units in orthogonal box = (-1500 -50 -50) to (1500 50 50)
  create_atoms CPU = 0.001 seconds

lattice sc ${lat2}                                                             # Top chain type2
lattice sc 3                                                             
Lattice spacing in x,y,z = 3 3 3

region slider1 block ${n2e2} ${n2e1} -0.1 0.1 5.9 6.1 units box
region slider1 block -1500 ${n2e1} -0.1 0.1 5.9 6.1 units box
region slider1 block -1500 1500 -0.1 0.1 5.9 6.1 units box

create_atoms 2 region slider1
Created 1000 atoms
  using lattice units in orthogonal box = (-1500 -50 -50) to (1500 50 50)
  create_atoms CPU = 0.001 seconds


set type 1 diameter ${d1}                    # Set mass and diameter for each particles type
set type 1 diameter 3                    
Setting atom values ...
  1000 settings made for diameter
set type 1 mass ${mass1}
set type 1 mass 31.101767270539
Setting atom values ...
  1000 settings made for mass
set type 2 diameter ${d2}                    # Set mass and diameter for each particles type
set type 2 diameter 3                    
Setting atom values ...
  1000 settings made for diameter
set type 2 mass ${mass2}
set type 2 mass 31.101767270539
Setting atom values ...
  1000 settings made for mass


group substrate region substrate           # Define gorup
1000 atoms in group substrate
group slider1 region slider1
1000 atoms in group slider1
#displace_atoms slider1 move ${x_shift} 0.0 0.0
#group substrate_slider union substrate slider1

########################## Potential ###################################
pair_style granular
pair_coeff 1 1 hertz/material 0.00000001 0.001 ${PR} tangential mindlin NULL 0.1 0.01 damping viscoelastic
pair_coeff 1 1 hertz/material 0.00000001 0.001 0.14 tangential mindlin NULL 0.1 0.01 damping viscoelastic
pair_coeff 2 2 hertz/material 0.00000001 0.001 ${PR} tangential mindlin NULL 0.1 0.01 damping viscoelastic
pair_coeff 2 2 hertz/material 0.00000001 0.001 0.14 tangential mindlin NULL 0.1 0.01 damping viscoelastic
pair_coeff 1 2 hertz/material ${E} 0.001 ${PR} tangential mindlin NULL 0.1 0.01 damping viscoelastic
pair_coeff 1 2 hertz/material 100000000 0.001 ${PR} tangential mindlin NULL 0.1 0.01 damping viscoelastic
pair_coeff 1 2 hertz/material 100000000 0.001 0.14 tangential mindlin NULL 0.1 0.01 damping viscoelastic

comm_modify     vel yes
neigh_modify    delay 0 every 1 check yes

### Compute properties ###

compute 1 slider1 com                      # Compute the center of mass of top chain

variable p0 equal "step"

variable slider_z equal "c_1[3]"          # output the position of top chain in z-direction


thermo 100000
thermo_style custom step lx ly lz press pxx pyy pzz ke pe temp c_1[1] c_1[2] c_1[3]

############### Fix ##################


############## Equilibrium the system with apply force ########################

fix force_slider1 slider1 setforce NULL 0 NULL                                # Fix top chain not to move in y-direction

fix f_sub substrate freeze                                                    # Freeze the bottom chain

#fix nve_slider1 slider1 nve                   # Integrate motion for slider1 group
#fix lan_slider slider1 langevin 0 0 ${lgv} 6987532
fix rigid_top slider1 rigid/nve group 1 slider1 langevin 0 0 ${lgv} 6987532   # NVE+langevin
fix rigid_top slider1 rigid/nve group 1 slider1 langevin 0 0 0.5 6987532   
  1 rigid bodies with 1000 atoms

fix add slider1 addforce 0 0 ${Fn} every 1                                    # Add force to top layer
fix add slider1 addforce 0 0 -1000 every 1                                    

timestep ${dt}
timestep 1e-05

dump 		D1 all custom 100000 Equi_${num}_*.dump id type diameter mass xu yu zu fx fy fz
dump 		D1 all custom 100000 Equi_4_*.dump id type diameter mass xu yu zu fx fy fz
dump_modify D1 format 5 %.12g
dump_modify D1 format 7 %.12g

run 3000000
Generated 0 of 1 mixed pair_coeff terms from geometric mixing rule
Neighbor list info ...
  update every 1 steps, delay 0 steps, check yes
  max neighbors/atom: 2000, page size: 100000
  master list distance cutoff = 3.1
  ghost atom cutoff = 3.1
  binsize = 1.55, bins = 1936 65 65
  1 neighbor lists, perpetual/occasional/extra = 1 0 0
  (1) pair granular, perpetual
      attributes: half, newton on, size, history
      pair build: half/size/bin/newton
      stencil: half/bin/3d
      bin: standard
Per MPI rank memory allocation (min/avg/max) = 30.97 | 30.97 | 30.97 Mbytes
   Step           Lx             Ly             Lz           Press           Pxx            Pyy            Pzz           KinEng         PotEng          Temp          c_1[1]         c_1[2]         c_1[3]    
         0   3000           100            100            0              0              0              0              0              0              0             -1.5            0              6            
    100000   3000           100            100            0.027670023    1.0832583e-21  0              0.083010069    603294.79      0              2.9130946e+13 -1.5            0              3.3134094    
    200000   3000           100            100            0.010967516    3.5315237e-21  0              0.032902547    175265.32      0              8.4629351e+12 -1.5            0              3.0484188    
    300000   3000           100            100            0.0031359659   2.1804009e-21  0              0.0094078977   23997.531      0              1.1587549e+12 -1.5            0              3.0321213    
    400000   3000           100            100            0.050711204   -3.0763943e-18  0              0.15213361     13119.739      0              6.3350526e+11 -1.5            0              2.9991516    
    500000   3000           100            100           -0.00055067404  1.0100602e-21  0             -0.0016520221   1202.0842      0              5.8044343e+10 -1.5            0              3.0011944    
    600000   3000           100            100            0.065529053   -4.0992542e-18  0              0.19658716     305.33761      0              1.474366e+10  -1.5            0              2.9989662    
    700000   3000           100            100            0.050496887   -3.1747566e-18  0              0.15149066     12.048551      0              5.817814e+08  -1.5            0              2.9991291    
    800000   3000           100            100            0.036502904   -2.2957597e-18  0              0.10950871     6.6879354      0              3.2293646e+08 -1.5            0              2.9992986    
    900000   3000           100            100            0.03434013    -2.1617777e-18  0              0.10302039     0.94221332     0              45496109      -1.5            0              2.9993262    
   1000000   3000           100            100            0.03369695    -2.1218644e-18  0              0.10109085     0.124307       0              6002340.3     -1.5            0              2.9993345    
   1100000   3000           100            100            0.033463779   -2.1073979e-18  0              0.10039134     0.016295012    0              786827.81     -1.5            0              2.9993376    
   1200000   3000           100            100            0.033377188   -2.1020518e-18  0              0.10013156     0.0021350861   0              103095.67     -1.5            0              2.9993387    
   1300000   3000           100            100            0.033344999   -2.1000509e-18  0              0.100035       0.00027974084  0              13507.684     -1.5            0              2.9993391    
   1400000   3000           100            100            0.033333044   -2.0993091e-18  0              0.099999133    3.6646839e-05  0              1769.5447     -1.5            0              2.9993393    
   1500000   3000           100            100            0.033328607   -2.0990348e-18  0              0.099985822    4.7998497e-06  0              231.76756     -1.5            0              2.9993393    
   1600000   3000           100            100            0.033326962   -2.0989326e-18  0              0.099980885    6.2851345e-07  0              30.348665     -1.5            0              2.9993393    
   1700000   3000           100            100            0.033326352   -2.0988948e-18  0              0.099979055    8.2280141e-08  0              3.9730136     -1.5            0              2.9993393    
   1800000   3000           100            100            0.033326126   -2.0988808e-18  0              0.099978377    1.0768764e-08  0              0.51998508    -1.5            0              2.9993393    
   1900000   3000           100            100            0.033326042   -2.0988756e-18  0              0.099978126    1.4090625e-09  0              0.068038585   -1.5            0              2.9993393    
   2000000   3000           100            100            0.033326011   -2.0988737e-18  0              0.099978033    1.8431262e-10  0              0.0088997966  -1.5            0              2.9993393    
   2100000   3000           100            100            0.033325999   -2.098873e-18   0              0.099977998    2.4110594e-11  0              0.0011642143  -1.5            0              2.9993393    
   2200000   3000           100            100            0.033325995   -2.0988727e-18  0              0.099977986    3.1526918e-12  0              0.0001522322  -1.5            0              2.9993393    
   2300000   3000           100            100            0.033325994   -2.0988726e-18  0              0.099977981    4.1165796e-13  0              1.987749e-05  -1.5            0              2.9993393    
   2400000   3000           100            100            0.033325993   -2.0988724e-18  0              0.099977979    5.3842469e-14  0              2.5998601e-06 -1.5            0              2.9993393    
   2500000   3000           100            100            0.033325993   -2.0988724e-18  0              0.099977978    7.020463e-15   0              3.3899303e-07 -1.5            0              2.9993393    
   2600000   3000           100            100            0.033325993   -2.0988724e-18  0              0.099977978    8.6045296e-16  0              4.1548194e-08 -1.5            0              2.9993393    
   2700000   3000           100            100            0.033325993   -2.0988724e-18  0              0.099977978    1.3064986e-16  0              6.3086144e-09 -1.5            0              2.9993393    
   2800000   3000           100            100            0.033325993   -2.0988724e-18  0              0.099977978    9.477332e-18   0              4.5762645e-10 -1.5            0              2.9993393    
   2900000   3000           100            100            0.033325993   -2.0988724e-18  0              0.099977978    3.4806195e-18  0              1.6806666e-10 -1.5            0              2.9993393    
   3000000   3000           100            100            0.033325993   -2.0988724e-18  0              0.099977978    1.3239807e-18  0              6.3930291e-11 -1.5            0              2.9993393    
Loop time of 429.688 on 2 procs for 3000000 steps with 2000 atoms

Performance: 6032285.364 ns/day, 0.000 hours/ns, 6981.812 timesteps/s
100.0% CPU use with 2 MPI tasks x 1 OpenMP threads

MPI task timing breakdown:
Section |  min time  |  avg time  |  max time  |%varavg| %total
---------------------------------------------------------------
Pair    | 198.81     | 200.15     | 201.48     |   9.4 | 46.58
Neigh   | 1.0037     | 1.0037     | 1.0038     |   0.0 |  0.23
Comm    | 12.358     | 13.675     | 14.993     |  35.6 |  3.18
Output  | 0.2813     | 0.28135    | 0.28141    |   0.0 |  0.07
Modify  | 194.44     | 194.45     | 194.46     |   0.1 | 45.25
Other   |            | 20.13      |            |       |  4.68

Nlocal:           1000 ave        1000 max        1000 min
Histogram: 2 0 0 0 0 0 0 0 0 0
Nghost:              6 ave           6 max           6 min
Histogram: 2 0 0 0 0 0 0 0 0 0
Neighs:           1500 ave        1500 max        1500 min
Histogram: 2 0 0 0 0 0 0 0 0 0

Total # of neighbors = 3000
Ave neighs/atom = 1.5
Neighbor list builds = 174
Dangerous builds = 0

undump D1


clear
  using 1 OpenMP thread(s) per MPI task

next num

jump SELF startloop

include granular.in
### Simulation of contact between two chain

##################### Simulation setup ####################

units micro                              # units
dimension	3                            # dimension
boundary	p p p                        # boundary condition p: periodic
atom_style	sphere                       # atom style
#processors * * 1

####################### Parameter ##################################

variable ind equal ${num}
variable ind equal 5

variable lat1 equal 3 #*(2^(1/2))
variable lat2 equal 3
variable d1 equal 3                      # Diamter of particle at bottom chain
variable d2 equal 3                      # Diamter of particle at upper chain

variable n2e1 equal 500*v_lat2              # Half length of top chain. 1500 is number of particles
variable n1e1 equal v_n2e1*(v_lat1/v_lat2)              # Half length of bottom chain, which is 1.5 time larger than top chain
variable n1e2 equal -v_n1e1
variable n2e2 equal -v_n2e1
#variable x_shift equal -0.25*v_d1

variable den equal 2.2 #grams/cm^3      # micrometer^3=10^-12 cm^3 Density of materials

variable V1 equal (1/6)*PI*(v_d1^3)     # Volume of particle 1
variable V2 equal (1/6)*PI*(v_d2^3)     # Volume of particle 2

variable mass1 equal v_den*v_V1  # Mass of particle 1 (picograms)
variable mass2 equal v_den*v_V2  # Mass of particle 2 (picograms)

# E GPa to picogram/(micrometer-microsecond^2)= 10^3 Pa= 10^-6 GPa
# Force unit(picogram-micrometer/microsecond^2)=10^-9 N= 1nN
# Spring stiffness (force/distance) 10^-3 N/m


variable E equal 100*(10^6)                    # Young's Modulus using for Hertz/material model
variable PR equal 0.1+(0.01*v_ind)                          # Poisson's ratio using for Hertz/material model
variable Fn equal -1000                        # Force apply to each particles in top chain
variable dt equal 0.00001                      # Time step units microsecond
variable lgv equal 0.5                         #damping for langevin thermostat for slider



################### Creating the model #################################
lattice sc ${lat1}                                                               # Bottom chain type1
lattice sc 3                                                               
Lattice spacing in x,y,z = 3 3 3

region box block ${n1e2} ${n1e1} -50 50 -50 50 units box
region box block -1500 ${n1e1} -50 50 -50 50 units box
region box block -1500 1500 -50 50 -50 50 units box
region substrate block ${n1e2} ${n1e1} -0.1 0.1 0 0.1 units box
region substrate block -1500 ${n1e1} -0.1 0.1 0 0.1 units box
region substrate block -1500 1500 -0.1 0.1 0 0.1 units box

create_box 2 box
Created orthogonal box = (-1500 -50 -50) to (1500 50 50)
  2 by 1 by 1 MPI processor grid
create_atoms 1 region substrate
Created 1000 atoms
  using lattice units in orthogonal box = (-1500 -50 -50) to (1500 50 50)
  create_atoms CPU = 0.001 seconds

lattice sc ${lat2}                                                             # Top chain type2
lattice sc 3                                                             
Lattice spacing in x,y,z = 3 3 3

region slider1 block ${n2e2} ${n2e1} -0.1 0.1 5.9 6.1 units box
region slider1 block -1500 ${n2e1} -0.1 0.1 5.9 6.1 units box
region slider1 block -1500 1500 -0.1 0.1 5.9 6.1 units box

create_atoms 2 region slider1
Created 1000 atoms
  using lattice units in orthogonal box = (-1500 -50 -50) to (1500 50 50)
  create_atoms CPU = 0.001 seconds


set type 1 diameter ${d1}                    # Set mass and diameter for each particles type
set type 1 diameter 3                    
Setting atom values ...
  1000 settings made for diameter
set type 1 mass ${mass1}
set type 1 mass 31.101767270539
Setting atom values ...
  1000 settings made for mass
set type 2 diameter ${d2}                    # Set mass and diameter for each particles type
set type 2 diameter 3                    
Setting atom values ...
  1000 settings made for diameter
set type 2 mass ${mass2}
set type 2 mass 31.101767270539
Setting atom values ...
  1000 settings made for mass


group substrate region substrate           # Define gorup
1000 atoms in group substrate
group slider1 region slider1
1000 atoms in group slider1
#displace_atoms slider1 move ${x_shift} 0.0 0.0
#group substrate_slider union substrate slider1

[...]
   1400000   3000           100            100            0.033314025   -4.1767821e-19  0              0.099942076    2.1238502e-05  0              1025.5313     -1.5            0              2.9994202    
   1500000   3000           100            100            0.033320715   -4.1776311e-19  0              0.099962145    1.7161023e-08  0              0.8286444     -1.5            0              2.9994201    
   1600000   3000           100            100            0.033325035   -4.1781748e-19  0              0.099975105    2.8656227e-07  0              13.837067     -1.5            0              2.99942      
   1700000   3000           100            100            0.033326639   -4.178375e-19   0              0.099979916    1.0624399e-07  0              5.1301421     -1.5            0              2.99942      
   1800000   3000           100            100            0.033326991   -4.1784169e-19  0              0.099980972    1.3676441e-08  0              0.66038637    -1.5            0              2.99942      
   1900000   3000           100            100            0.033326981   -4.1784164e-19  0              0.099980942    5.8625415e-10  0              0.028308115   -1.5            0              2.99942      
   2000000   3000           100            100            0.033326929   -4.1784101e-19  0              0.099980786    2.3761221e-12  0              0.00011473443 -1.5            0              2.99942      
   2100000   3000           100            100            0.0333269     -4.1784067e-19  0              0.099980699    1.6803763e-11  0              0.00081139357 -1.5            0              2.99942      
   2200000   3000           100            100            0.03332689    -4.1784055e-19  0              0.09998067     4.6584768e-12  0              0.00022494117 -1.5            0              2.99942      
   2300000   3000           100            100            0.033326888   -4.1784052e-19  0              0.099980665    4.9119416e-13  0              2.3718008e-05 -1.5            0              2.99942      
   2400000   3000           100            100            0.033326889   -4.1784052e-19  0              0.099980666    1.3836344e-14  0              6.6810752e-07 -1.5            0              2.99942      
   2500000   3000           100            100            0.033326889   -4.178405e-19   0              0.099980667    6.7780831e-16  0              3.2728938e-08 -1.5            0              2.99942      
   2600000   3000           100            100            0.033326889   -4.178405e-19   0              0.099980667    9.307075e-16   0              4.4940534e-08 -1.5            0              2.99942      
   2700000   3000           100            100            0.033326889   -4.178405e-19   0              0.099980668    1.5907464e-16  0              7.6811449e-09 -1.5            0              2.99942      
   2800000   3000           100            100            0.033326889   -4.178405e-19   0              0.099980668    1.6196366e-17  0              7.8206457e-10 -1.5            0              2.99942      
   2900000   3000           100            100            0.033326889   -4.178405e-19   0              0.099980668    2.0531697e-18  0              9.9140218e-11 -1.5            0              2.99942      
   3000000   3000           100            100            0.033326889   -4.1784049e-19  0              0.099980668    2.5913721e-19  0              1.2512809e-11 -1.5            0              2.99942      
Loop time of 395.385 on 2 procs for 3000000 steps with 2000 atoms

Performance: 6555629.407 ns/day, 0.000 hours/ns, 7587.534 timesteps/s
100.0% CPU use with 2 MPI tasks x 1 OpenMP threads

MPI task timing breakdown:
Section |  min time  |  avg time  |  max time  |%varavg| %total
---------------------------------------------------------------
Pair    | 167.89     | 168.14     | 168.39     |   1.9 | 42.53
Neigh   | 0.97092    | 0.97127    | 0.97163    |   0.0 |  0.25
Comm    | 12.028     | 12.304     | 12.579     |   7.9 |  3.11
Output  | 0.3223     | 0.32231    | 0.32233    |   0.0 |  0.08
Modify  | 193.54     | 193.58     | 193.62     |   0.3 | 48.96
Other   |            | 20.07      |            |       |  5.08

Nlocal:           1000 ave        1000 max        1000 min
Histogram: 2 0 0 0 0 0 0 0 0 0
Nghost:              6 ave           6 max           6 min
Histogram: 2 0 0 0 0 0 0 0 0 0
Neighs:           1500 ave        1500 max        1500 min
Histogram: 2 0 0 0 0 0 0 0 0 0

Total # of neighbors = 3000
Ave neighs/atom = 1.5
Neighbor list builds = 174
Dangerous builds = 0

undump D1


clear
  using 1 OpenMP thread(s) per MPI task

next num

jump SELF startloop

include granular.in
### Simulation of contact between two chain

##################### Simulation setup ####################

units micro                              # units
dimension	3                            # dimension
boundary	p p p                        # boundary condition p: periodic
atom_style	sphere                       # atom style
#processors * * 1

####################### Parameter ##################################

variable ind equal ${num}
variable ind equal 35

variable lat1 equal 3 #*(2^(1/2))
variable lat2 equal 3
variable d1 equal 3                      # Diamter of particle at bottom chain
variable d2 equal 3                      # Diamter of particle at upper chain

variable n2e1 equal 500*v_lat2              # Half length of top chain. 1500 is number of particles
variable n1e1 equal v_n2e1*(v_lat1/v_lat2)              # Half length of bottom chain, which is 1.5 time larger than top chain
variable n1e2 equal -v_n1e1
variable n2e2 equal -v_n2e1
#variable x_shift equal -0.25*v_d1

variable den equal 2.2 #grams/cm^3      # micrometer^3=10^-12 cm^3 Density of materials

variable V1 equal (1/6)*PI*(v_d1^3)     # Volume of particle 1
variable V2 equal (1/6)*PI*(v_d2^3)     # Volume of particle 2

variable mass1 equal v_den*v_V1  # Mass of particle 1 (picograms)
variable mass2 equal v_den*v_V2  # Mass of particle 2 (picograms)

# E GPa to picogram/(micrometer-microsecond^2)= 10^3 Pa= 10^-6 GPa
# Force unit(picogram-micrometer/microsecond^2)=10^-9 N= 1nN
# Spring stiffness (force/distance) 10^-3 N/m


variable E equal 100*(10^6)                    # Young's Modulus using for Hertz/material model
variable PR equal 0.1+(0.01*v_ind)                          # Poisson's ratio using for Hertz/material model
variable Fn equal -1000                        # Force apply to each particles in top chain
variable dt equal 0.00001                      # Time step units microsecond
variable lgv equal 0.5                         #damping for langevin thermostat for slider



################### Creating the model #################################
lattice sc ${lat1}                                                               # Bottom chain type1
lattice sc 3                                                               
Lattice spacing in x,y,z = 3 3 3

region box block ${n1e2} ${n1e1} -50 50 -50 50 units box
region box block -1500 ${n1e1} -50 50 -50 50 units box
region box block -1500 1500 -50 50 -50 50 units box
region substrate block ${n1e2} ${n1e1} -0.1 0.1 0 0.1 units box
region substrate block -1500 ${n1e1} -0.1 0.1 0 0.1 units box
region substrate block -1500 1500 -0.1 0.1 0 0.1 units box

create_box 2 box
Created orthogonal box = (-1500 -50 -50) to (1500 50 50)
  2 by 1 by 1 MPI processor grid
create_atoms 1 region substrate
Created 1000 atoms
  using lattice units in orthogonal box = (-1500 -50 -50) to (1500 50 50)
  create_atoms CPU = 0.001 seconds

lattice sc ${lat2}                                                             # Top chain type2
lattice sc 3                                                             
Lattice spacing in x,y,z = 3 3 3

region slider1 block ${n2e2} ${n2e1} -0.1 0.1 5.9 6.1 units box
region slider1 block -1500 ${n2e1} -0.1 0.1 5.9 6.1 units box
region slider1 block -1500 1500 -0.1 0.1 5.9 6.1 units box

create_atoms 2 region slider1
Created 1000 atoms
  using lattice units in orthogonal box = (-1500 -50 -50) to (1500 50 50)
  create_atoms CPU = 0.001 seconds


set type 1 diameter ${d1}                    # Set mass and diameter for each particles type
set type 1 diameter 3                    
Setting atom values ...
  1000 settings made for diameter
set type 1 mass ${mass1}
set type 1 mass 31.101767270539
Setting atom values ...
  1000 settings made for mass
set type 2 diameter ${d2}                    # Set mass and diameter for each particles type
set type 2 diameter 3                    
Setting atom values ...
  1000 settings made for diameter
set type 2 mass ${mass2}
set type 2 mass 31.101767270539
Setting atom values ...
  1000 settings made for mass


group substrate region substrate           # Define gorup
1000 atoms in group substrate
group slider1 region slider1
1000 atoms in group slider1
#displace_atoms slider1 move ${x_shift} 0.0 0.0
#group substrate_slider union substrate slider1

########################## Potential ###################################
pair_style granular
pair_coeff 1 1 hertz/material 0.00000001 0.001 ${PR} tangential mindlin NULL 0.1 0.01 damping viscoelastic
pair_coeff 1 1 hertz/material 0.00000001 0.001 0.45 tangential mindlin NULL 0.1 0.01 damping viscoelastic
pair_coeff 2 2 hertz/material 0.00000001 0.001 ${PR} tangential mindlin NULL 0.1 0.01 damping viscoelastic
pair_coeff 2 2 hertz/material 0.00000001 0.001 0.45 tangential mindlin NULL 0.1 0.01 damping viscoelastic
pair_coeff 1 2 hertz/material ${E} 0.001 ${PR} tangential mindlin NULL 0.1 0.01 damping viscoelastic
pair_coeff 1 2 hertz/material 100000000 0.001 ${PR} tangential mindlin NULL 0.1 0.01 damping viscoelastic
pair_coeff 1 2 hertz/material 100000000 0.001 0.45 tangential mindlin NULL 0.1 0.01 damping viscoelastic

comm_modify     vel yes
neigh_modify    delay 0 every 1 check yes

### Compute properties ###

compute 1 slider1 com                      # Compute the center of mass of top chain

variable p0 equal "step"

variable slider_z equal "c_1[3]"          # output the position of top chain in z-direction


thermo 100000
thermo_style custom step lx ly lz press pxx pyy pzz ke pe temp c_1[1] c_1[2] c_1[3]

############### Fix ##################


############## Equilibrium the system with apply force ########################

fix force_slider1 slider1 setforce NULL 0 NULL                                # Fix top chain not to move in y-direction

fix f_sub substrate freeze                                                    # Freeze the bottom chain

#fix nve_slider1 slider1 nve                   # Integrate motion for slider1 group
#fix lan_slider slider1 langevin 0 0 ${lgv} 6987532
fix rigid_top slider1 rigid/nve group 1 slider1 langevin 0 0 ${lgv} 6987532   # NVE+langevin
fix rigid_top slider1 rigid/nve group 1 slider1 langevin 0 0 0.5 6987532   
  1 rigid bodies with 1000 atoms

fix add slider1 addforce 0 0 ${Fn} every 1                                    # Add force to top layer
fix add slider1 addforce 0 0 -1000 every 1                                    

timestep ${dt}
timestep 1e-05

dump 		D1 all custom 100000 Equi_${num}_*.dump id type diameter mass xu yu zu fx fy fz
dump 		D1 all custom 100000 Equi_35_*.dump id type diameter mass xu yu zu fx fy fz
dump_modify D1 format 5 %.12g
dump_modify D1 format 7 %.12g

run 3000000
Generated 0 of 1 mixed pair_coeff terms from geometric mixing rule
Neighbor list info ...
  update every 1 steps, delay 0 steps, check yes
  max neighbors/atom: 2000, page size: 100000
  master list distance cutoff = 3.1
  ghost atom cutoff = 3.1
  binsize = 1.55, bins = 1936 65 65
  1 neighbor lists, perpetual/occasional/extra = 1 0 0
  (1) pair granular, perpetual
      attributes: half, newton on, size, history
      pair build: half/size/bin/newton
      stencil: half/bin/3d
      bin: standard
Per MPI rank memory allocation (min/avg/max) = 30.97 | 30.97 | 30.97 Mbytes
   Step           Lx             Ly             Lz           Press           Pxx            Pyy            Pzz           KinEng         PotEng          Temp          c_1[1]         c_1[2]         c_1[3]    
         0   3000           100            100            0              0              0              0              0              0              0             -1.5            0              6            
    100000   3000           100            100            0.027714497    1.3120863e-21  0              0.083143491    604757.25      0              2.9201563e+13 -1.5            0              3.3121789    
    200000   3000           100            100            0.011067682    1.8741231e-21  0              0.033203045    177756.1       0              8.5832058e+12 -1.5            0              3.0461636    
    300000   3000           100            100            0.0033019942   1.5817473e-21  0              0.0099059826   26226.101      0              1.2663646e+12 -1.5            0              3.0302322    
    400000   3000           100            100            0.42419591    -4.4304464e-18  0              1.2725877      103.07206      0              4.9769808e+09 -1.5            0              2.9968607    
    500000   3000           100            100            7.7471598e-05  1.5856943e-21  0              0.00023241479  21.774739      0              1.0514242e+09 -1.5            0              3.0025413    
    600000   3000           100            100            0.095061716   -1.0014042e-18  0              0.28518515     0.72136941     0              34832347      -1.5            0              2.9988421    
    700000   3000           100            100            0.02628047    -2.742095e-19   0              0.07884141     60.726089      0              2.9322455e+09 -1.5            0              2.9995103    
    800000   3000           100            100            0.028310326   -2.9693294e-19  0              0.084930979    4.7574985      0              2.2972258e+08 -1.5            0              2.9994841    
    900000   3000           100            100            0.03214427    -3.3733454e-19  0              0.09643281     0.98585728     0              47603520      -1.5            0              2.9994382    
   1000000   3000           100            100            0.033269428   -3.4927675e-19  0              0.099808283    0.16279958     0              7861009       -1.5            0              2.999425     
   1100000   3000           100            100            0.033449239   -3.5122352e-19  0              0.10034772     0.019129985    0              923718.51     -1.5            0              2.9994229    
   1200000   3000           100            100            0.033416202   -3.5089912e-19  0              0.10024861     0.0015053433   0              72687.643     -1.5            0              2.9994233    
   1300000   3000           100            100            0.033370271   -3.5042287e-19  0              0.10011081     5.7133539e-05  0              2758.7741     -1.5            0              2.9994238    
   1400000   3000           100            100            0.033344021   -3.5014942e-19  0              0.10003206     9.5793062e-09  0              0.46255042    -1.5            0              2.9994241    
   1500000   3000           100            100            0.033332594   -3.5003025e-19  0              0.099997782    1.1386898e-06  0              54.983256     -1.5            0              2.9994242    
   1600000   3000           100            100            0.033328448   -3.4998695e-19  0              0.099985343    4.8879015e-07  0              23.601927     -1.5            0              2.9994243    
   1700000   3000           100            100            0.033327195   -3.4997376e-19  0              0.099981585    1.0570294e-07  0              5.1040169     -1.5            0              2.9994243    
   1800000   3000           100            100            0.033326909   -3.4997071e-19  0              0.099980727    1.5449443e-08  0              0.74599829    -1.5            0              2.9994243    
   1900000   3000           100            100            0.033326884   -3.4997042e-19  0              0.099980652    1.5883289e-09  0              0.076694717   -1.5            0              2.9994243    
   2000000   3000           100            100            0.033326905   -3.4997062e-19  0              0.099980715    1.0242993e-10  0              0.0049459749  -1.5            0              2.9994243    
   2100000   3000           100            100            0.033326923   -3.499708e-19   0              0.099980768    2.1630481e-12  0              0.00010444585 -1.5            0              2.9994243    
   2200000   3000           100            100            0.033326931   -3.4997089e-19  0              0.099980794    1.2947464e-13  0              6.251867e-06  -1.5            0              2.9994243    
   2300000   3000           100            100            0.033326935   -3.4997093e-19  0              0.099980805    1.8945743e-13  0              9.1482212e-06 -1.5            0              2.9994243    
   2400000   3000           100            100            0.033326936   -3.4997094e-19  0              0.099980809    5.9233885e-14  0              2.8601923e-06 -1.5            0              2.9994243    
   2500000   3000           100            100            0.033326937   -3.4997088e-19  0              0.09998081     1.0899055e-14  0              5.2627634e-07 -1.5            0              2.9994243    
   2600000   3000           100            100            0.033326937   -3.4997089e-19  0              0.09998081     1.3899455e-15  0              6.7115495e-08 -1.5            0              2.9994243    
   2700000   3000           100            100            0.033326937   -3.4997092e-19  0              0.09998081     4.223418e-17   0              2.0393374e-09 -1.5            0              2.9994243    
   2800000   3000           100            100            0.033326937   -3.4997092e-19  0              0.09998081     6.5333203e-21  0              3.1547066e-13 -1.5            0              2.9994243    
   2900000   3000           100            100            0.033326937   -3.4997092e-19  0              0.09998081     3.3350792e-18  0              1.6103904e-10 -1.5            0              2.9994243    
   3000000   3000           100            100            0.033326937   -3.4997093e-19  0              0.09998081     2.1343122e-18  0              1.030583e-10  -1.5            0              2.9994243    
Loop time of 396.55 on 2 procs for 3000000 steps with 2000 atoms

Performance: 6536376.411 ns/day, 0.000 hours/ns, 7565.250 timesteps/s
100.0% CPU use with 2 MPI tasks x 1 OpenMP threads

MPI task timing breakdown:
Section |  min time  |  avg time  |  max time  |%varavg| %total
---------------------------------------------------------------
Pair    | 168.51     | 168.85     | 169.19     |   2.6 | 42.58
Neigh   | 0.99192    | 0.99204    | 0.99216    |   0.0 |  0.25
Comm    | 11.857     | 12.205     | 12.553     |  10.0 |  3.08
Output  | 0.2795     | 0.27953    | 0.27956    |   0.0 |  0.07
Modify  | 193.97     | 194.02     | 194.06     |   0.3 | 48.93
Other   |            | 20.21      |            |       |  5.10

Nlocal:           1000 ave        1000 max        1000 min
Histogram: 2 0 0 0 0 0 0 0 0 0
Nghost:              6 ave           6 max           6 min
Histogram: 2 0 0 0 0 0 0 0 0 0
Neighs:           1500 ave        1500 max        1500 min
Histogram: 2 0 0 0 0 0 0 0 0 0

Total # of neighbors = 3000
Ave neighs/atom = 1.5
Neighbor list builds = 174
Dangerous builds = 0

undump D1


clear
  using 1 OpenMP thread(s) per MPI task

next num

jump SELF startloop
Total wall time: 4:02:10
