ITEM: TIMESTEP
2600000
ITEM: NUMBER OF ATOMS
5001
ITEM: BOX BOUNDS pp pp pp
-9.0000000000000000e+03 9.0000000000000000e+03
-1.0000000000000000e+02 1.0000000000000000e+02
-1.0000000000000000e+02 1.0000000000000000e+02
ITEM: ATOMS id type diameter mass xu yu zu fx fy fz
1 1 5.45 186.471 -9000 0 0 0 0 0
2 1 5.45 186.471 -8994 0 0 0 0 0
3 1 5.45 186.471 -8988 0 0 0 0 0
4 1 5.45 186.471 -8982 0 0 0 0 0
5 1 5.45 186.471 -8976 0 0 0 0 0
6 1 5.45 186.471 -8970 0 0 0 0 0
7 1 5.45 186.471 -8964 0 0 0 0 0
8 1 5.45 186.471 -8958 0 0 0 0 0
9 1 5.45 186.471 -8952 0 0 0 0 0
10 1 5.45 186.471 -8946 0 0 0 0 0
11 1 5.45 186.471 -8940 0 0 0 0 0
12 1 5.45 186.471 -8934 0 0 0 0 0
13 1 5.45 186.471 -8928 0 0 0 0 0
14 1 5.45 186.471 -8922 0 0 0 0 0
15 1 5.45 186.471 -8916 0 0 0 0 0
16 1 5.45 186.471 -8910 0 0 0 0 0
17 1 5.45 186.471 -8904 0 0 0 0 0
18 1 5.45 186.471 -8898 0 0 0 0 0
19 1 5.45 186.471 -8892 0 0 0 0 0
20 1 5.45 186.471 -8886 0 0 0 0 0
21 1 5.45 186.471 -8880 0 0 0 0 0
22 1 5.45 186.471 -8874 0 0 0 0 0
23 1 5.45 186.471 -8868 0 0 0 0 0
24 1 5.45 186.471 -8862 0 0 0 0 0
25 1 5.45 186.471 -8856 0 0 0 0 0
26 1 5.45 186.471 -8850 0 0 0 0 0
27 1 5.45 186.471 -8844 0 0 0 0 0
28 1 5.45 186.471 -8838 0 0 0 0 0
29 1 5.45 186.471 -8832 0 0 0 0 0
30 1 5.45 186.471 -8826 0 0 0 0 0
31 1 5.45 186.471 -8820 0 0 0 0 0
32 1 5.45 186.471 -8814 0 0 0 0 0
33 1 5.45 186.471 -8808 0 0 0 0 0
34 1 5.45 186.471 -8802 0 0 0 0 0
35 1 5.45 186.471 -8796 0 0 0 0 0
36 1 5.45 186.471 -8790 0 0 0 0 0
37 1 5.45 186.471 -8784 0 0 0 0 0
38 1 5.45 186.471 -8778 0 0 0 0 0
39 1 5.45 186.471 -8772 0 0 0 0 0
40 1 5.45 186.471 -8766 0 0 0 0 0
41 1 5.45 186.471 -8760 0 0 0 0 0
42 1 5.45 186.471 -8754 0 0 0 0 0
43 1 5.45 186.471 -8748 0 0 0 0 0
44 1 5.45 186.471 -8742 0 0 0 0 0
45 1 5.45 186.471 -8736 0 0 0 0 0
46 1 5.45 186.471 -8730 0 0 0 0 0
47 1 5.45 186.471 -8724 0 0 0 0 0
48 1 5.45 186.471 -8718 0 0 0 0 0
49 1 5.45 186.471 -8712 0 0 0 0 0
50 1 5.45 186.471 -8706 0 0 0 0 0
51 1 5.45 186.471 -8700 0 0 0 0 0
52 1 5.45 186.471 -8694 0 0 0 0 0
53 1 5.45 186.471 -8688 0 0 0 0 0
54 1 5.45 186.471 -8682 0 0 0 0 0
55 1 5.45 186.471 -8676 0 0 0 0 0
56 1 5.45 186.471 -8670 0 0 0 0 0
57 1 5.45 186.471 -8664 0 0 0 0 0
58 1 5.45 186.471 -8658 0 0 0 0 0
59 1 5.45 186.471 -8652 0 0 0 0 0
60 1 5.45 186.471 -8646 0 0 0 0 0
61 1 5.45 186.471 -8640 0 0 0 0 0
62 1 5.45 186.471 -8634 0 0 0 0 0
63 1 5.45 186.471 -8628 0 0 0 0 0
64 1 5.45 186.471 -8622 0 0 0 0 0
65 1 5.45 186.471 -8616 0 0 0 0 0
66 1 5.45 186.471 -8610 0 0 0 0 0
67 1 5.45 186.471 -8604 0 0 0 0 0
68 1 5.45 186.471 -8598 0 0 0 0 0
69 1 5.45 186.471 -8592 0 0 0 0 0
70 1 5.45 186.471 -8586 0 0 0 0 0
71 1 5.45 186.471 -8580 0 0 0 0 0
72 1 5.45 186.471 -8574 0 0 0 0 0
73 1 5.45 186.471 -8568 0 0 0 0 0
74 1 5.45 186.471 -8562 0 0 0 0 0
75 1 5.45 186.471 -8556 0 0 0 0 0
76 1 5.45 186.471 -8550 0 0 0 0 0
77 1 5.45 186.471 -8544 0 0 0 0 0
78 1 5.45 186.471 -8538 0 0 0 0 0
79 1 5.45 186.471 -8532 0 0 0 0 0
80 1 5.45 186.471 -8526 0 0 0 0 0
81 1 5.45 186.471 -8520 0 0 0 0 0
82 1 5.45 186.471 -8514 0 0 0 0 0
83 1 5.45 186.471 -8508 0 0 0 0 0
84 1 5.45 186.471 -8502 0 0 0 0 0
85 1 5.45 186.471 -8496 0 0 0 0 0
86 1 5.45 186.471 -8490 0 0 0 0 0
87 1 5.45 186.471 -8484 0 0 0 0 0
88 1 5.45 186.471 -8478 0 0 0 0 0
89 1 5.45 186.471 -8472 0 0 0 0 0
90 1 5.45 186.471 -8466 0 0 0 0 0
91 1 5.45 186.471 -8460 0 0 0 0 0
92 1 5.45 186.471 -8454 0 0 0 0 0
93 1 5.45 186.471 -8448 0 0 0 0 0
94 1 5.45 186.471 -8442 0 0 0 0 0
95 1 5.45 186.471 -8436 0 0 0 0 0
96 1 5.45 186.471 -8430 0 0 0 0 0
97 1 5.45 186.471 -8424 0 0 0 0 0
98 1 5.45 186.471 -8418 0 0 0 0 0
99 1 5.45 186.471 -8412 0 0 0 0 0
100 1 5.45 186.471 -8406 0 0 0 0 0
101 1 5.45 186.471 -8400 0 0 0 0 0
102 1 5.45 186.471 -8394 0 0 0 0 0
103 1 5.45 186.471 -8388 0 0 0 0 0
104 1 5.45 186.471 -8382 0 0 0 0 0
105 1 5.45 186.471 -8376 0 0 0 0 0
106 1 5.45 186.471 -8370 0 0 0 0 0
107 1 5.45 186.471 -8364 0 0 0 0 0
108 1 5.45 186.471 -8358 0 0 0 0 0
109 1 5.45 186.471 -8352 0 0 0 0 0
110 1 5.45 186.471 -8346 0 0 0 0 0
111 1 5.45 186.471 -8340 0 0 0 0 0
112 1 5.45 186.471 -8334 0 0 0 0 0
113 1 5.45 186.471 -8328 0 0 0 0 0
114 1 5.45 186.471 -8322 0 0 0 0 0
115 1 5.45 186.471 -8316 0 0 0 0 0
116 1 5.45 186.471 -8310 0 0 0 0 0
117 1 5.45 186.471 -8304 0 0 0 0 0
118 1 5.45 186.471 -8298 0 0 0 0 0
119 1 5.45 186.471 -8292 0 0 0 0 0
120 1 5.45 186.471 -8286 0 0 0 0 0
121 1 5.45 186.471 -8280 0 0 0 0 0
122 1 5.45 186.471 -8274 0 0 0 0 0
123 1 5.45 186.471 -8268 0 0 0 0 0
124 1 5.45 186.471 -8262 0 0 0 0 0
125 1 5.45 186.471 -8256 0 0 0 0 0
126 1 5.45 186.471 -8250 0 0 0 0 0
127 1 5.45 186.471 -8244 0 0 0 0 0
128 1 5.45 186.471 -8238 0 0 0 0 0
129 1 5.45 186.471 -8232 0 0 0 0 0
130 1 5.45 186.471 -8226 0 0 0 0 0
131 1 5.45 186.471 -8220 0 0 0 0 0
132 1 5.45 186.471 -8214 0 0 0 0 0
133 1 5.45 186.471 -8208 0 0 0 0 0
134 1 5.45 186.471 -8202 0 0 0 0 0
135 1 5.45 186.471 -8196 0 0 0 0 0
136 1 5.45 186.471 -8190 0 0 0 0 0
137 1 5.45 186.471 -8184 0 0 0 0 0
138 1 5.45 186.471 -8178 0 0 0 0 0
139 1 5.45 186.471 -8172 0 0 0 0 0
140 1 5.45 186.471 -8166 0 0 0 0 0
141 1 5.45 186.471 -8160 0 0 0 0 0
142 1 5.45 186.471 -8154 0 0 0 0 0
143 1 5.45 186.471 -8148 0 0 0 0 0
144 1 5.45 186.471 -8142 0 0 0 0 0
145 1 5.45 186.471 -8136 0 0 0 0 0
146 1 5.45 186.471 -8130 0 0 0 0 0
147 1 5.45 186.471 -8124 0 0 0 0 0
148 1 5.45 186.471 -8118 0 0 0 0 0
149 1 5.45 186.471 -8112 0 0 0 0 0
150 1 5.45 186.471 -8106 0 0 0 0 0
151 1 5.45 186.471 -8100 0 0 0 0 0
152 1 5.45 186.471 -8094 0 0 0 0 0
153 1 5.45 186.471 -8088 0 0 0 0 0
154 1 5.45 186.471 -8082 0 0 0 0 0
155 1 5.45 186.471 -8076 0 0 0 0 0
156 1 5.45 186.471 -8070 0 0 0 0 0
157 1 5.45 186.471 -8064 0 0 0 0 0
158 1 5.45 186.471 -8058 0 0 0 0 0
159 1 5.45 186.471 -8052 0 0 0 0 0
160 1 5.45 186.471 -8046 0 0 0 0 0
161 1 5.45 186.471 -8040 0 0 0 0 0
162 1 5.45 186.471 -8034 0 0 0 0 0
163 1 5.45 186.471 -8028 0 0 0 0 0
164 1 5.45 186.471 -8022 0 0 0 0 0
165 1 5.45 186.471 -8016 0 0 0 0 0
166 1 5.45 186.471 -8010 0 0 0 0 0
167 1 5.45 186.471 -8004 0 0 0 0 0
168 1 5.45 186.471 -7998 0 0 0 0 0
169 1 5.45 186.471 -7992 0 0 0 0 0
170 1 5.45 186.471 -7986 0 0 0 0 0
171 1 5.45 186.471 -7980 0 0 0 0 0
172 1 5.45 186.471 -7974 0 0 0 0 0
173 1 5.45 186.471 -7968 0 0 0 0 0
174 1 5.45 186.471 -7962 0 0 0 0 0
175 1 5.45 186.471 -7956 0 0 0 0 0
176 1 5.45 186.471 -7950 0 0 0 0 0
177 1 5.45 186.471 -7944 0 0 0 0 0
178 1 5.45 186.471 -7938 0 0 0 0 0
179 1 5.45 186.471 -7932 0 0 0 0 0
180 1 5.45 186.471 -7926 0 0 0 0 0
181 1 5.45 186.471 -7920 0 0 0 0 0
182 1 5.45 186.471 -7914 0 0 0 0 0
183 1 5.45 186.471 -7908 0 0 0 0 0
184 1 5.45 186.471 -7902 0 0 0 0 0
185 1 5.45 186.471 -7896 0 0 0 0 0
186 1 5.45 186.471 -7890 0 0 0 0 0
187 1 5.45 186.471 -7884 0 0 0 0 0
188 1 5.45 186.471 -7878 0 0 0 0 0
189 1 5.45 186.471 -7872 0 0 0 0 0
190 1 5.45 186.471 -7866 0 0 0 0 0
191 1 5.45 186.471 -7860 0 0 0 0 0
192 1 5.45 186.471 -7854 0 0 0 0 0
193 1 5.45 186.471 -7848 0 0 0 0 0
194 1 5.45 186.471 -7842 0 0 0 0 0
195 1 5.45 186.471 -7836 0 0 0 0 0
196 1 5.45 186.471 -7830 0 0 0 0 0
197 1 5.45 186.471 -7824 0 0 0 0 0
198 1 5.45 186.471 -7818 0 0 0 0 0
199 1 5.45 186.471 -7812 0 0 0 0 0
200 1 5.45 186.471 -7806 0 0 0 0 0
201 1 5.45 186.471 -7800 0 0 0 0 0
202 1 5.45 186.471 -7794 0 0 0 0 0
203 1 5.45 186.471 -7788 0 0 0 0 0
204 1 5.45 186.471 -7782 0 0 0 0 0
205 1 5.45 186.471 -7776 0 0 0 0 0
206 1 5.45 186.471 -7770 0 0 0 0 0
207 1 5.45 186.471 -7764 0 0 0 0 0
208 1 5.45 186.471 -7758 0 0 0 0 0
209 1 5.45 186.471 -7752 0 0 0 0 0
210 1 5.45 186.471 -7746 0 0 0 0 0
211 1 5.45 186.471 -7740 0 0 0 0 0
212 1 5.45 186.471 -7734 0 0 0 0 0
213 1 5.45 186.471 -7728 0 0 0 0 0
214 1 5.45 186.471 -7722 0 0 0 0 0
215 1 5.45 186.471 -7716 0 0 0 0 0
216 1 5.45 186.471 -7710 0 0 0 0 0
217 1 5.45 186.471 -7704 0 0 0 0 0
218 1 5.45 186.471 -7698 0 0 0 0 0
219 1 5.45 186.471 -7692 0 0 0 0 0
220 1 5.45 186.471 -7686 0 0 0 0 0
221 1 5.45 186.471 -7680 0 0 0 0 0
222 1 5.45 186.471 -7674 0 0 0 0 0
223 1 5.45 186.471 -7668 0 0 0 0 0
224 1 5.45 186.471 -7662 0 0 0 0 0
225 1 5.45 186.471 -7656 0 0 0 0 0
226 1 5.45 186.471 -7650 0 0 0 0 0
227 1 5.45 186.471 -7644 0 0 0 0 0
228 1 5.45 186.471 -7638 0 0 0 0 0
229 1 5.45 186.471 -7632 0 0 0 0 0
230 1 5.45 186.471 -7626 0 0 0 0 0
231 1 5.45 186.471 -7620 0 0 0 0 0
232 1 5.45 186.471 -7614 0 0 0 0 0
233 1 5.45 186.471 -7608 0 0 0 0 0
234 1 5.45 186.471 -7602 0 0 0 0 0
235 1 5.45 186.471 -7596 0 0 0 0 0
236 1 5.45 186.471 -7590 0 0 0 0 0
237 1 5.45 186.471 -7584 0 0 0 0 0
238 1 5.45 186.471 -7578 0 0 0 0 0
239 1 5.45 186.471 -7572 0 0 0 0 0
240 1 5.45 186.471 -7566 0 0 0 0 0
241 1 5.45 186.471 -7560 0 0 0 0 0
242 1 5.45 186.471 -7554 0 0 0 0 0
243 1 5.45 186.471 -7548 0 0 0 0 0
244 1 5.45 186.471 -7542 0 0 0 0 0
245 1 5.45 186.471 -7536 0 0 0 0 0
246 1 5.45 186.471 -7530 0 0 0 0 0
247 1 5.45 186.471 -7524 0 0 0 0 0
248 1 5.45 186.471 -7518 0 0 0 0 0
249 1 5.45 186.471 -7512 0 0 0 0 0
250 1 5.45 186.471 -7506 0 0 0 0 0
251 1 5.45 186.471 -7500 0 0 0 0 0
252 1 5.45 186.471 -7494 0 0 0 0 0
253 1 5.45 186.471 -7488 0 0 0 0 0
254 1 5.45 186.471 -7482 0 0 0 0 0
255 1 5.45 186.471 -7476 0 0 0 0 0
256 1 5.45 186.471 -7470 0 0 0 0 0
257 1 5.45 186.471 -7464 0 0 0 0 0
258 1 5.45 186.471 -7458 0 0 0 0 0
259 1 5.45 186.471 -7452 0 0 0 0 0
260 1 5.45 186.471 -7446 0 0 0 0 0
261 1 5.45 186.471 -7440 0 0 0 0 0
262 1 5.45 186.471 -7434 0 0 0 0 0
263 1 5.45 186.471 -7428 0 0 0 0 0
264 1 5.45 186.471 -7422 0 0 0 0 0
265 1 5.45 186.471 -7416 0 0 0 0 0
266 1 5.45 186.471 -7410 0 0 0 0 0
267 1 5.45 186.471 -7404 0 0 0 0 0
268 1 5.45 186.471 -7398 0 0 0 0 0
269 1 5.45 186.471 -7392 0 0 0 0 0
270 1 5.45 186.471 -7386 0 0 0 0 0
271 1 5.45 186.471 -7380 0 0 0 0 0
272 1 5.45 186.471 -7374 0 0 0 0 0
273 1 5.45 186.471 -7368 0 0 0 0 0
274 1 5.45 186.471 -7362 0 0 0 0 0
275 1 5.45 186.471 -7356 0 0 0 0 0
276 1 5.45 186.471 -7350 0 0 0 0 0
277 1 5.45 186.471 -7344 0 0 0 0 0
278 1 5.45 186.471 -7338 0 0 0 0 0
279 1 5.45 186.471 -7332 0 0 0 0 0
280 1 5.45 186.471 -7326 0 0 0 0 0
281 1 5.45 186.471 -7320 0 0 0 0 0
282 1 5.45 186.471 -7314 0 0 0 0 0
283 1 5.45 186.471 -7308 0 0 0 0 0
284 1 5.45 186.471 -7302 0 0 0 0 0
285 1 5.45 186.471 -7296 0 0 0 0 0
286 1 5.45 186.471 -7290 0 0 0 0 0
287 1 5.45 186.471 -7284 0 0 0 0 0
288 1 5.45 186.471 -7278 0 0 0 0 0
289 1 5.45 186.471 -7272 0 0 0 0 0
290 1 5.45 186.471 -7266 0 0 0 0 0
291 1 5.45 186.471 -7260 0 0 0 0 0
292 1 5.45 186.471 -7254 0 0 0 0 0
293 1 5.45 186.471 -7248 0 0 0 0 0
294 1 5.45 186.471 -7242 0 0 0 0 0
295 1 5.45 186.471 -7236 0 0 0 0 0
296 1 5.45 186.471 -7230 0 0 0 0 0
297 1 5.45 186.471 -7224 0 0 0 0 0
298 1 5.45 186.471 -7218 0 0 0 0 0
299 1 5.45 186.471 -7212 0 0 0 0 0
300 1 5.45 186.471 -7206 0 0 0 0 0
301 1 5.45 186.471 -7200 0 0 0 0 0
302 1 5.45 186.471 -7194 0 0 0 0 0
303 1 5.45 186.471 -7188 0 0 0 0 0
304 1 5.45 186.471 -7182 0 0 0 0 0
305 1 5.45 186.471 -7176 0 0 0 0 0
306 1 5.45 186.471 -7170 0 0 0 0 0
307 1 5.45 186.471 -7164 0 0 0 0 0
308 1 5.45 186.471 -7158 0 0 0 0 0
309 1 5.45 186.471 -7152 0 0 0 0 0
310 1 5.45 186.471 -7146 0 0 0 0 0
311 1 5.45 186.471 -7140 0 0 0 0 0
312 1 5.45 186.471 -7134 0 0 0 0 0
313 1 5.45 186.471 -7128 0 0 0 0 0
314 1 5.45 186.471 -7122 0 0 0 0 0
315 1 5.45 186.471 -7116 0 0 0 0 0
316 1 5.45 186.471 -7110 0 0 0 0 0
317 1 5.45 186.471 -7104 0 0 0 0 0
318 1 5.45 186.471 -7098 0 0 0 0 0
319 1 5.45 186.471 -7092 0 0 0 0 0
320 1 5.45 186.471 -7086 0 0 0 0 0
321 1 5.45 186.471 -7080 0 0 0 0 0
322 1 5.45 186.471 -7074 0 0 0 0 0
323 1 5.45 186.471 -7068 0 0 0 0 0
324 1 5.45 186.471 -7062 0 0 0 0 0
325 1 5.45 186.471 -7056 0 0 0 0 0
326 1 5.45 186.471 -7050 0 0 0 0 0
327 1 5.45 186.471 -7044 0 0 0 0 0
328 1 5.45 186.471 -7038 0 0 0 0 0
329 1 5.45 186.471 -7032 0 0 0 0 0
330 1 5.45 186.471 -7026 0 0 0 0 0
331 1 5.45 186.471 -7020 0 0 0 0 0
332 1 5.45 186.471 -7014 0 0 0 0 0
333 1 5.45 186.471 -7008 0 0 0 0 0
334 1 5.45 186.471 -7002 0 0 0 0 0
335 1 5.45 186.471 -6996 0 0 0 0 0
336 1 5.45 186.471 -6990 0 0 0 0 0
337 1 5.45 186.471 -6984 0 0 0 0 0
338 1 5.45 186.471 -6978 0 0 0 0 0
339 1 5.45 186.471 -6972 0 0 0 0 0
340 1 5.45 186.471 -6966 0 0 0 0 0
341 1 5.45 186.471 -6960 0 0 0 0 0
342 1 5.45 186.471 -6954 0 0 0 0 0
343 1 5.45 186.471 -6948 0 0 0 0 0
344 1 5.45 186.471 -6942 0 0 0 0 0
345 1 5.45 186.471 -6936 0 0 0 0 0
346 1 5.45 186.471 -6930 0 0 0 0 0
347 1 5.45 186.471 -6924 0 0 0 0 0
348 1 5.45 186.471 -6918 0 0 0 0 0
349 1 5.45 186.471 -6912 0 0 0 0 0
350 1 5.45 186.471 -6906 0 0 0 0 0
351 1 5.45 186.471 -6900 0 0 0 0 0
352 1 5.45 186.471 -6894 0 0 0 0 0
353 1 5.45 186.471 -6888 0 0 0 0 0
354 1 5.45 186.471 -6882 0 0 0 0 0
355 1 5.45 186.471 -6876 0 0 0 0 0
356 1 5.45 186.471 -6870 0 0 0 0 0
357 1 5.45 186.471 -6864 0 0 0 0 0
358 1 5.45 186.471 -6858 0 0 0 0 0
359 1 5.45 186.471 -6852 0 0 0 0 0
360 1 5.45 186.471 -6846 0 0 0 0 0
361 1 5.45 186.471 -6840 0 0 0 0 0
362 1 5.45 186.471 -6834 0 0 0 0 0
363 1 5.45 186.471 -6828 0 0 0 0 0
364 1 5.45 186.471 -6822 0 0 0 0 0
365 1 5.45 186.471 -6816 0 0 0 0 0
366 1 5.45 186.471 -6810 0 0 0 0 0
367 1 5.45 186.471 -6804 0 0 0 0 0
368 1 5.45 186.471 -6798 0 0 0 0 0
369 1 5.45 186.471 -6792 0 0 0 0 0
370 1 5.45 186.471 -6786 0 0 0 0 0
371 1 5.45 186.471 -6780 0 0 0 0 0
372 1 5.45 186.471 -6774 0 0 0 0 0
373 1 5.45 186.471 -6768 0 0 0 0 0
374 1 5.45 186.471 -6762 0 0 0 0 0
375 1 5.45 186.471 -6756 0 0 0 0 0
376 1 5.45 186.471 -6750 0 0 0 0 0
377 1 5.45 186.471 -6744 0 0 0 0 0
378 1 5.45 186.471 -6738 0 0 0 0 0
379 1 5.45 186.471 -6732 0 0 0 0 0
380 1 5.45 186.471 -6726 0 0 0 0 0
381 1 5.45 186.471 -6720 0 0 0 0 0
382 1 5.45 186.471 -6714 0 0 0 0 0
383 1 5.45 186.471 -6708 0 0 0 0 0
384 1 5.45 186.471 -6702 0 0 0 0 0
385 1 5.45 186.471 -6696 0 0 0 0 0
386 1 5.45 186.471 -6690 0 0 0 0 0
387 1 5.45 186.471 -6684 0 0 0 0 0
388 1 5.45 186.471 -6678 0 0 0 0 0
389 1 5.45 186.471 -6672 0 0 0 0 0
390 1 5.45 186.471 -6666 0 0 0 0 0
391 1 5.45 186.471 -6660 0 0 0 0 0
392 1 5.45 186.471 -6654 0 0 0 0 0
393 1 5.45 186.471 -6648 0 0 0 0 0
394 1 5.45 186.471 -6642 0 0 0 0 0
395 1 5.45 186.471 -6636 0 0 0 0 0
396 1 5.45 186.471 -6630 0 0 0 0 0
397 1 5.45 186.471 -6624 0 0 0 0 0
398 1 5.45 186.471 -6618 0 0 0 0 0
399 1 5.45 186.471 -6612 0 0 0 0 0
400 1 5.45 186.471 -6606 0 0 0 0 0
401 1 5.45 186.471 -6600 0 0 0 0 0
402 1 5.45 186.471 -6594 0 0 0 0 0
403 1 5.45 186.471 -6588 0 0 0 0 0
404 1 5.45 186.471 -6582 0 0 0 0 0
405 1 5.45 186.471 -6576 0 0 0 0 0
406 1 5.45 186.471 -6570 0 0 0 0 0
407 1 5.45 186.471 -6564 0 0 0 0 0
408 1 5.45 186.471 -6558 0 0 0 0 0
409 1 5.45 186.471 -6552 0 0 0 0 0
410 1 5.45 186.471 -6546 0 0 0 0 0
411 1 5.45 186.471 -6540 0 0 0 0 0
412 1 5.45 186.471 -6534 0 0 0 0 0
413 1 5.45 186.471 -6528 0 0 0 0 0
414 1 5.45 186.471 -6522 0 0 0 0 0
415 1 5.45 186.471 -6516 0 0 0 0 0
416 1 5.45 186.471 -6510 0 0 0 0 0
417 1 5.45 186.471 -6504 0 0 0 0 0
418 1 5.45 186.471 -6498 0 0 0 0 0
419 1 5.45 186.471 -6492 0 0 0 0 0
420 1 5.45 186.471 -6486 0 0 0 0 0
421 1 5.45 186.471 -6480 0 0 0 0 0
422 1 5.45 186.471 -6474 0 0 0 0 0
423 1 5.45 186.471 -6468 0 0 0 0 0
424 1 5.45 186.471 -6462 0 0 0 0 0
425 1 5.45 186.471 -6456 0 0 0 0 0
426 1 5.45 186.471 -6450 0 0 0 0 0
427 1 5.45 186.471 -6444 0 0 0 0 0
428 1 5.45 186.471 -6438 0 0 0 0 0
429 1 5.45 186.471 -6432 0 0 0 0 0
430 1 5.45 186.471 -6426 0 0 0 0 0
431 1 5.45 186.471 -6420 0 0 0 0 0
432 1 5.45 186.471 -6414 0 0 0 0 0
433 1 5.45 186.471 -6408 0 0 0 0 0
434 1 5.45 186.471 -6402 0 0 0 0 0
435 1 5.45 186.471 -6396 0 0 0 0 0
436 1 5.45 186.471 -6390 0 0 0 0 0
437 1 5.45 186.471 -6384 0 0 0 0 0
438 1 5.45 186.471 -6378 0 0 0 0 0
439 1 5.45 186.471 -6372 0 0 0 0 0
440 1 5.45 186.471 -6366 0 0 0 0 0
441 1 5.45 186.471 -6360 0 0 0 0 0
442 1 5.45 186.471 -6354 0 0 0 0 0
443 1 5.45 186.471 -6348 0 0 0 0 0
444 1 5.45 186.471 -6342 0 0 0 0 0
445 1 5.45 186.471 -6336 0 0 0 0 0
446 1 5.45 186.471 -6330 0 0 0 0 0
447 1 5.45 186.471 -6324 0 0 0 0 0
448 1 5.45 186.471 -6318 0 0 0 0 0
449 1 5.45 186.471 -6312 0 0 0 0 0
450 1 5.45 186.471 -6306 0 0 0 0 0
451 1 5.45 186.471 -6300 0 0 0 0 0
452 1 5.45 186.471 -6294 0 0 0 0 0
453 1 5.45 186.471 -6288 0 0 0 0 0
454 1 5.45 186.471 -6282 0 0 0 0 0
455 1 5.45 186.471 -6276 0 0 0 0 0
456 1 5.45 186.471 -6270 0 0 0 0 0
457 1 5.45 186.471 -6264 0 0 0 0 0
458 1 5.45 186.471 -6258 0 0 0 0 0
459 1 5.45 186.471 -6252 0 0 0 0 0
460 1 5.45 186.471 -6246 0 0 0 0 0
461 1 5.45 186.471 -6240 0 0 0 0 0
462 1 5.45 186.471 -6234 0 0 0 0 0
463 1 5.45 186.471 -6228 0 0 0 0 0
464 1 5.45 186.471 -6222 0 0 0 0 0
465 1 5.45 186.471 -6216 0 0 0 0 0
466 1 5.45 186.471 -6210 0 0 0 0 0
467 1 5.45 186.471 -6204 0 0 0 0 0
468 1 5.45 186.471 -6198 0 0 0 0 0
469 1 5.45 186.471 -6192 0 0 0 0 0
470 1 5.45 186.471 -6186 0 0 0 0 0
471 1 5.45 186.471 -6180 0 0 0 0 0
472 1 5.45 186.471 -6174 0 0 0 0 0
473 1 5.45 186.471 -6168 0 0 0 0 0
474 1 5.45 186.471 -6162 0 0 0 0 0
475 1 5.45 186.471 -6156 0 0 0 0 0
476 1 5.45 186.471 -6150 0 0 0 0 0
477 1 5.45 186.471 -6144 0 0 0 0 0
478 1 5.45 186.471 -6138 0 0 0 0 0
479 1 5.45 186.471 -6132 0 0 0 0 0
480 1 5.45 186.471 -6126 0 0 0 0 0
481 1 5.45 186.471 -6120 0 0 0 0 0
482 1 5.45 186.471 -6114 0 0 0 0 0
483 1 5.45 186.471 -6108 0 0 0 0 0
484 1 5.45 186.471 -6102 0 0 0 0 0
485 1 5.45 186.471 -6096 0 0 0 0 0
486 1 5.45 186.471 -6090 0 0 0 0 0
487 1 5.45 186.471 -6084 0 0 0 0 0
488 1 5.45 186.471 -6078 0 0 0 0 0
489 1 5.45 186.471 -6072 0 0 0 0 0
490 1 5.45 186.471 -6066 0 0 0 0 0
491 1 5.45 186.471 -6060 0 0 0 0 0
492 1 5.45 186.471 -6054 0 0 0 0 0
493 1 5.45 186.471 -6048 0 0 0 0 0
494 1 5.45 186.471 -6042 0 0 0 0 0
495 1 5.45 186.471 -6036 0 0 0 0 0
496 1 5.45 186.471 -6030 0 0 0 0 0
497 1 5.45 186.471 -6024 0 0 0 0 0
498 1 5.45 186.471 -6018 0 0 0 0 0
499 1 5.45 186.471 -6012 0 0 0 0 0
500 1 5.45 186.471 -6006 0 0 0 0 0
501 1 5.45 186.471 -6000 0 0 0 0 0
502 1 5.45 186.471 -5994 0 0 0 0 0
503 1 5.45 186.471 -5988 0 0 0 0 0
504 1 5.45 186.471 -5982 0 0 0 0 0
505 1 5.45 186.471 -5976 0 0 0 0 0
506 1 5.45 186.471 -5970 0 0 0 0 0
507 1 5.45 186.471 -5964 0 0 0 0 0
508 1 5.45 186.471 -5958 0 0 0 0 0
509 1 5.45 186.471 -5952 0 0 0 0 0
510 1 5.45 186.471 -5946 0 0 0 0 0
511 1 5.45 186.471 -5940 0 0 0 0 0
512 1 5.45 186.471 -5934 0 0 0 0 0
513 1 5.45 186.471 -5928 0 0 0 0 0
514 1 5.45 186.471 -5922 0 0 0 0 0
515 1 5.45 186.471 -5916 0 0 0 0 0
516 1 5.45 186.471 -5910 0 0 0 0 0
517 1 5.45 186.471 -5904 0 0 0 0 0
518 1 5.45 186.471 -5898 0 0 0 0 0
519 1 5.45 186.471 -5892 0 0 0 0 0
520 1 5.45 186.471 -5886 0 0 0 0 0
521 1 5.45 186.471 -5880 0 0 0 0 0
522 1 5.45 186.471 -5874 0 0 0 0 0
523 1 5.45 186.471 -5868 0 0 0 0 0
524 1 5.45 186.471 -5862 0 0 0 0 0
525 1 5.45 186.471 -5856 0 0 0 0 0
526 1 5.45 186.471 -5850 0 0 0 0 0
527 1 5.45 186.471 -5844 0 0 0 0 0
528 1 5.45 186.471 -5838 0 0 0 0 0
529 1 5.45 186.471 -5832 0 0 0 0 0
530 1 5.45 186.471 -5826 0 0 0 0 0
531 1 5.45 186.471 -5820 0 0 0 0 0
532 1 5.45 186.471 -5814 0 0 0 0 0
533 1 5.45 186.471 -5808 0 0 0 0 0
534 1 5.45 186.471 -5802 0 0 0 0 0
535 1 5.45 186.471 -5796 0 0 0 0 0
536 1 5.45 186.471 -5790 0 0 0 0 0
537 1 5.45 186.471 -5784 0 0 0 0 0
538 1 5.45 186.471 -5778 0 0 0 0 0
539 1 5.45 186.471 -5772 0 0 0 0 0
540 1 5.45 186.471 -5766 0 0 0 0 0
541 1 5.45 186.471 -5760 0 0 0 0 0
542 1 5.45 186.471 -5754 0 0 0 0 0
543 1 5.45 186.471 -5748 0 0 0 0 0
544 1 5.45 186.471 -5742 0 0 0 0 0
545 1 5.45 186.471 -5736 0 0 0 0 0
546 1 5.45 186.471 -5730 0 0 0 0 0
547 1 5.45 186.471 -5724 0 0 0 0 0
548 1 5.45 186.471 -5718 0 0 0 0 0
549 1 5.45 186.471 -5712 0 0 0 0 0
550 1 5.45 186.471 -5706 0 0 0 0 0
551 1 5.45 186.471 -5700 0 0 0 0 0
552 1 5.45 186.471 -5694 0 0 0 0 0
553 1 5.45 186.471 -5688 0 0 0 0 0
554 1 5.45 186.471 -5682 0 0 0 0 0
555 1 5.45 186.471 -5676 0 0 0 0 0
556 1 5.45 186.471 -5670 0 0 0 0 0
557 1 5.45 186.471 -5664 0 0 0 0 0
558 1 5.45 186.471 -5658 0 0 0 0 0
559 1 5.45 186.471 -5652 0 0 0 0 0
560 1 5.45 186.471 -5646 0 0 0 0 0
561 1 5.45 186.471 -5640 0 0 0 0 0
562 1 5.45 186.471 -5634 0 0 0 0 0
563 1 5.45 186.471 -5628 0 0 0 0 0
564 1 5.45 186.471 -5622 0 0 0 0 0
565 1 5.45 186.471 -5616 0 0 0 0 0
566 1 5.45 186.471 -5610 0 0 0 0 0
567 1 5.45 186.471 -5604 0 0 0 0 0
568 1 5.45 186.471 -5598 0 0 0 0 0
569 1 5.45 186.471 -5592 0 0 0 0 0
570 1 5.45 186.471 -5586 0 0 0 0 0
571 1 5.45 186.471 -5580 0 0 0 0 0
572 1 5.45 186.471 -5574 0 0 0 0 0
573 1 5.45 186.471 -5568 0 0 0 0 0
574 1 5.45 186.471 -5562 0 0 0 0 0
575 1 5.45 186.471 -5556 0 0 0 0 0
576 1 5.45 186.471 -5550 0 0 0 0 0
577 1 5.45 186.471 -5544 0 0 0 0 0
578 1 5.45 186.471 -5538 0 0 0 0 0
579 1 5.45 186.471 -5532 0 0 0 0 0
580 1 5.45 186.471 -5526 0 0 0 0 0
581 1 5.45 186.471 -5520 0 0 0 0 0
582 1 5.45 186.471 -5514 0 0 0 0 0
583 1 5.45 186.471 -5508 0 0 0 0 0
584 1 5.45 186.471 -5502 0 0 0 0 0
585 1 5.45 186.471 -5496 0 0 0 0 0
586 1 5.45 186.471 -5490 0 0 0 0 0
587 1 5.45 186.471 -5484 0 0 0 0 0
588 1 5.45 186.471 -5478 0 0 0 0 0
589 1 5.45 186.471 -5472 0 0 0 0 0
590 1 5.45 186.471 -5466 0 0 0 0 0
591 1 5.45 186.471 -5460 0 0 0 0 0
592 1 5.45 186.471 -5454 0 0 0 0 0
593 1 5.45 186.471 -5448 0 0 0 0 0
594 1 5.45 186.471 -5442 0 0 0 0 0
595 1 5.45 186.471 -5436 0 0 0 0 0
596 1 5.45 186.471 -5430 0 0 0 0 0
597 1 5.45 186.471 -5424 0 0 0 0 0
598 1 5.45 186.471 -5418 0 0 0 0 0
599 1 5.45 186.471 -5412 0 0 0 0 0
600 1 5.45 186.471 -5406 0 0 0 0 0
601 1 5.45 186.471 -5400 0 0 0 0 0
602 1 5.45 186.471 -5394 0 0 0 0 0
603 1 5.45 186.471 -5388 0 0 0 0 0
604 1 5.45 186.471 -5382 0 0 0 0 0
605 1 5.45 186.471 -5376 0 0 0 0 0
606 1 5.45 186.471 -5370 0 0 0 0 0
607 1 5.45 186.471 -5364 0 0 0 0 0
608 1 5.45 186.471 -5358 0 0 0 0 0
609 1 5.45 186.471 -5352 0 0 0 0 0
610 1 5.45 186.471 -5346 0 0 0 0 0
611 1 5.45 186.471 -5340 0 0 0 0 0
612 1 5.45 186.471 -5334 0 0 0 0 0
613 1 5.45 186.471 -5328 0 0 0 0 0
614 1 5.45 186.471 -5322 0 0 0 0 0
615 1 5.45 186.471 -5316 0 0 0 0 0
616 1 5.45 186.471 -5310 0 0 0 0 0
617 1 5.45 186.471 -5304 0 0 0 0 0
618 1 5.45 186.471 -5298 0 0 0 0 0
619 1 5.45 186.471 -5292 0 0 0 0 0
620 1 5.45 186.471 -5286 0 0 0 0 0
621 1 5.45 186.471 -5280 0 0 0 0 0
622 1 5.45 186.471 -5274 0 0 0 0 0
623 1 5.45 186.471 -5268 0 0 0 0 0
624 1 5.45 186.471 -5262 0 0 0 0 0
625 1 5.45 186.471 -5256 0 0 0 0 0
626 1 5.45 186.471 -5250 0 0 0 0 0
627 1 5.45 186.471 -5244 0 0 0 0 0
628 1 5.45 186.471 -5238 0 0 0 0 0
629 1 5.45 186.471 -5232 0 0 0 0 0
630 1 5.45 186.471 -5226 0 0 0 0 0
631 1 5.45 186.471 -5220 0 0 0 0 0
632 1 5.45 186.471 -5214 0 0 0 0 0
633 1 5.45 186.471 -5208 0 0 0 0 0
634 1 5.45 186.471 -5202 0 0 0 0 0
635 1 5.45 186.471 -5196 0 0 0 0 0
636 1 5.45 186.471 -5190 0 0 0 0 0
637 1 5.45 186.471 -5184 0 0 0 0 0
638 1 5.45 186.471 -5178 0 0 0 0 0
639 1 5.45 186.471 -5172 0 0 0 0 0
640 1 5.45 186.471 -5166 0 0 0 0 0
641 1 5.45 186.471 -5160 0 0 0 0 0
642 1 5.45 186.471 -5154 0 0 0 0 0
643 1 5.45 186.471 -5148 0 0 0 0 0
644 1 5.45 186.471 -5142 0 0 0 0 0
645 1 5.45 186.471 -5136 0 0 0 0 0
646 1 5.45 186.471 -5130 0 0 0 0 0
647 1 5.45 186.471 -5124 0 0 0 0 0
648 1 5.45 186.471 -5118 0 0 0 0 0
649 1 5.45 186.471 -5112 0 0 0 0 0
650 1 5.45 186.471 -5106 0 0 0 0 0
651 1 5.45 186.471 -5100 0 0 0 0 0
652 1 5.45 186.471 -5094 0 0 0 0 0
653 1 5.45 186.471 -5088 0 0 0 0 0
654 1 5.45 186.471 -5082 0 0 0 0 0
655 1 5.45 186.471 -5076 0 0 0 0 0
656 1 5.45 186.471 -5070 0 0 0 0 0
657 1 5.45 186.471 -5064 0 0 0 0 0
658 1 5.45 186.471 -5058 0 0 0 0 0
659 1 5.45 186.471 -5052 0 0 0 0 0
660 1 5.45 186.471 -5046 0 0 0 0 0
661 1 5.45 186.471 -5040 0 0 0 0 0
662 1 5.45 186.471 -5034 0 0 0 0 0
663 1 5.45 186.471 -5028 0 0 0 0 0
664 1 5.45 186.471 -5022 0 0 0 0 0
665 1 5.45 186.471 -5016 0 0 0 0 0
666 1 5.45 186.471 -5010 0 0 0 0 0
667 1 5.45 186.471 -5004 0 0 0 0 0
668 1 5.45 186.471 -4998 0 0 0 0 0
669 1 5.45 186.471 -4992 0 0 0 0 0
670 1 5.45 186.471 -4986 0 0 0 0 0
671 1 5.45 186.471 -4980 0 0 0 0 0
672 1 5.45 186.471 -4974 0 0 0 0 0
673 1 5.45 186.471 -4968 0 0 0 0 0
674 1 5.45 186.471 -4962 0 0 0 0 0
675 1 5.45 186.471 -4956 0 0 0 0 0
676 1 5.45 186.471 -4950 0 0 0 0 0
677 1 5.45 186.471 -4944 0 0 0 0 0
678 1 5.45 186.471 -4938 0 0 0 0 0
679 1 5.45 186.471 -4932 0 0 0 0 0
680 1 5.45 186.471 -4926 0 0 0 0 0
681 1 5.45 186.471 -4920 0 0 0 0 0
682 1 5.45 186.471 -4914 0 0 0 0 0
683 1 5.45 186.471 -4908 0 0 0 0 0
684 1 5.45 186.471 -4902 0 0 0 0 0
685 1 5.45 186.471 -4896 0 0 0 0 0
686 1 5.45 186.471 -4890 0 0 0 0 0
687 1 5.45 186.471 -4884 0 0 0 0 0
688 1 5.45 186.471 -4878 0 0 0 0 0
689 1 5.45 186.471 -4872 0 0 0 0 0
690 1 5.45 186.471 -4866 0 0 0 0 0
691 1 5.45 186.471 -4860 0 0 0 0 0
692 1 5.45 186.471 -4854 0 0 0 0 0
693 1 5.45 186.471 -4848 0 0 0 0 0
694 1 5.45 186.471 -4842 0 0 0 0 0
695 1 5.45 186.471 -4836 0 0 0 0 0
696 1 5.45 186.471 -4830 0 0 0 0 0
697 1 5.45 186.471 -4824 0 0 0 0 0
698 1 5.45 186.471 -4818 0 0 0 0 0
699 1 5.45 186.471 -4812 0 0 0 0 0
700 1 5.45 186.471 -4806 0 0 0 0 0
701 1 5.45 186.471 -4800 0 0 0 0 0
702 1 5.45 186.471 -4794 0 0 0 0 0
703 1 5.45 186.471 -4788 0 0 0 0 0
704 1 5.45 186.471 -4782 0 0 0 0 0
705 1 5.45 186.471 -4776 0 0 0 0 0
706 1 5.45 186.471 -4770 0 0 0 0 0
707 1 5.45 186.471 -4764 0 0 0 0 0
708 1 5.45 186.471 -4758 0 0 0 0 0
709 1 5.45 186.471 -4752 0 0 0 0 0
710 1 5.45 186.471 -4746 0 0 0 0 0
711 1 5.45 186.471 -4740 0 0 0 0 0
712 1 5.45 186.471 -4734 0 0 0 0 0
713 1 5.45 186.471 -4728 0 0 0 0 0
714 1 5.45 186.471 -4722 0 0 0 0 0
715 1 5.45 186.471 -4716 0 0 0 0 0
716 1 5.45 186.471 -4710 0 0 0 0 0
717 1 5.45 186.471 -4704 0 0 0 0 0
718 1 5.45 186.471 -4698 0 0 0 0 0
719 1 5.45 186.471 -4692 0 0 0 0 0
720 1 5.45 186.471 -4686 0 0 0 0 0
721 1 5.45 186.471 -4680 0 0 0 0 0
722 1 5.45 186.471 -4674 0 0 0 0 0
723 1 5.45 186.471 -4668 0 0 0 0 0
724 1 5.45 186.471 -4662 0 0 0 0 0
725 1 5.45 186.471 -4656 0 0 0 0 0
726 1 5.45 186.471 -4650 0 0 0 0 0
727 1 5.45 186.471 -4644 0 0 0 0 0
728 1 5.45 186.471 -4638 0 0 0 0 0
729 1 5.45 186.471 -4632 0 0 0 0 0
730 1 5.45 186.471 -4626 0 0 0 0 0
731 1 5.45 186.471 -4620 0 0 0 0 0
732 1 5.45 186.471 -4614 0 0 0 0 0
733 1 5.45 186.471 -4608 0 0 0 0 0
734 1 5.45 186.471 -4602 0 0 0 0 0
735 1 5.45 186.471 -4596 0 0 0 0 0
736 1 5.45 186.471 -4590 0 0 0 0 0
737 1 5.45 186.471 -4584 0 0 0 0 0
738 1 5.45 186.471 -4578 0 0 0 0 0
739 1 5.45 186.471 -4572 0 0 0 0 0
740 1 5.45 186.471 -4566 0 0 0 0 0
741 1 5.45 186.471 -4560 0 0 0 0 0
742 1 5.45 186.471 -4554 0 0 0 0 0
743 1 5.45 186.471 -4548 0 0 0 0 0
744 1 5.45 186.471 -4542 0 0 0 0 0
745 1 5.45 186.471 -4536 0 0 0 0 0
746 1 5.45 186.471 -4530 0 0 0 0 0
747 1 5.45 186.471 -4524 0 0 0 0 0
748 1 5.45 186.471 -4518 0 0 0 0 0
749 1 5.45 186.471 -4512 0 0 0 0 0
750 1 5.45 186.471 -4506 0 0 0 0 0
751 1 5.45 186.471 -4500 0 0 0 0 0
752 1 5.45 186.471 -4494 0 0 0 0 0
753 1 5.45 186.471 -4488 0 0 0 0 0
754 1 5.45 186.471 -4482 0 0 0 0 0
755 1 5.45 186.471 -4476 0 0 0 0 0
756 1 5.45 186.471 -4470 0 0 0 0 0
757 1 5.45 186.471 -4464 0 0 0 0 0
758 1 5.45 186.471 -4458 0 0 0 0 0
759 1 5.45 186.471 -4452 0 0 0 0 0
760 1 5.45 186.471 -4446 0 0 0 0 0
761 1 5.45 186.471 -4440 0 0 0 0 0
762 1 5.45 186.471 -4434 0 0 0 0 0
763 1 5.45 186.471 -4428 0 0 0 0 0
764 1 5.45 186.471 -4422 0 0 0 0 0
765 1 5.45 186.471 -4416 0 0 0 0 0
766 1 5.45 186.471 -4410 0 0 0 0 0
767 1 5.45 186.471 -4404 0 0 0 0 0
768 1 5.45 186.471 -4398 0 0 0 0 0
769 1 5.45 186.471 -4392 0 0 0 0 0
770 1 5.45 186.471 -4386 0 0 0 0 0
771 1 5.45 186.471 -4380 0 0 0 0 0
772 1 5.45 186.471 -4374 0 0 0 0 0
773 1 5.45 186.471 -4368 0 0 0 0 0
774 1 5.45 186.471 -4362 0 0 0 0 0
775 1 5.45 186.471 -4356 0 0 0 0 0
776 1 5.45 186.471 -4350 0 0 0 0 0
777 1 5.45 186.471 -4344 0 0 0 0 0
778 1 5.45 186.471 -4338 0 0 0 0 0
779 1 5.45 186.471 -4332 0 0 0 0 0
780 1 5.45 186.471 -4326 0 0 0 0 0
781 1 5.45 186.471 -4320 0 0 0 0 0
782 1 5.45 186.471 -4314 0 0 0 0 0
783 1 5.45 186.471 -4308 0 0 0 0 0
784 1 5.45 186.471 -4302 0 0 0 0 0
785 1 5.45 186.471 -4296 0 0 0 0 0
786 1 5.45 186.471 -4290 0 0 0 0 0
787 1 5.45 186.471 -4284 0 0 0 0 0
788 1 5.45 186.471 -4278 0 0 0 0 0
789 1 5.45 186.471 -4272 0 0 0 0 0
790 1 5.45 186.471 -4266 0 0 0 0 0
791 1 5.45 186.471 -4260 0 0 0 0 0
792 1 5.45 186.471 -4254 0 0 0 0 0
793 1 5.45 186.471 -4248 0 0 0 0 0
794 1 5.45 186.471 -4242 0 0 0 0 0
795 1 5.45 186.471 -4236 0 0 0 0 0
796 1 5.45 186.471 -4230 0 0 0 0 0
797 1 5.45 186.471 -4224 0 0 0 0 0
798 1 5.45 186.471 -4218 0 0 0 0 0
799 1 5.45 186.471 -4212 0 0 0 0 0
800 1 5.45 186.471 -4206 0 0 0 0 0
801 1 5.45 186.471 -4200 0 0 0 0 0
802 1 5.45 186.471 -4194 0 0 0 0 0
803 1 5.45 186.471 -4188 0 0 0 0 0
804 1 5.45 186.471 -4182 0 0 0 0 0
805 1 5.45 186.471 -4176 0 0 0 0 0
806 1 5.45 186.471 -4170 0 0 0 0 0
807 1 5.45 186.471 -4164 0 0 0 0 0
808 1 5.45 186.471 -4158 0 0 0 0 0
809 1 5.45 186.471 -4152 0 0 0 0 0
810 1 5.45 186.471 -4146 0 0 0 0 0
811 1 5.45 186.471 -4140 0 0 0 0 0
812 1 5.45 186.471 -4134 0 0 0 0 0
813 1 5.45 186.471 -4128 0 0 0 0 0
814 1 5.45 186.471 -4122 0 0 0 0 0
815 1 5.45 186.471 -4116 0 0 0 0 0
816 1 5.45 186.471 -4110 0 0 0 0 0
817 1 5.45 186.471 -4104 0 0 0 0 0
818 1 5.45 186.471 -4098 0 0 0 0 0
819 1 5.45 186.471 -4092 0 0 0 0 0
820 1 5.45 186.471 -4086 0 0 0 0 0
821 1 5.45 186.471 -4080 0 0 0 0 0
822 1 5.45 186.471 -4074 0 0 0 0 0
823 1 5.45 186.471 -4068 0 0 0 0 0
824 1 5.45 186.471 -4062 0 0 0 0 0
825 1 5.45 186.471 -4056 0 0 0 0 0
826 1 5.45 186.471 -4050 0 0 0 0 0
827 1 5.45 186.471 -4044 0 0 0 0 0
828 1 5.45 186.471 -4038 0 0 0 0 0
829 1 5.45 186.471 -4032 0 0 0 0 0
830 1 5.45 186.471 -4026 0 0 0 0 0
831 1 5.45 186.471 -4020 0 0 0 0 0
832 1 5.45 186.471 -4014 0 0 0 0 0
833 1 5.45 186.471 -4008 0 0 0 0 0
834 1 5.45 186.471 -4002 0 0 0 0 0
835 1 5.45 186.471 -3996 0 0 0 0 0
836 1 5.45 186.471 -3990 0 0 0 0 0
837 1 5.45 186.471 -3984 0 0 0 0 0
838 1 5.45 186.471 -3978 0 0 0 0 0
839 1 5.45 186.471 -3972 0 0 0 0 0
840 1 5.45 186.471 -3966 0 0 0 0 0
841 1 5.45 186.471 -3960 0 0 0 0 0
842 1 5.45 186.471 -3954 0 0 0 0 0
843 1 5.45 186.471 -3948 0 0 0 0 0
844 1 5.45 186.471 -3942 0 0 0 0 0
845 1 5.45 186.471 -3936 0 0 0 0 0
846 1 5.45 186.471 -3930 0 0 0 0 0
847 1 5.45 186.471 -3924 0 0 0 0 0
848 1 5.45 186.471 -3918 0 0 0 0 0
849 1 5.45 186.471 -3912 0 0 0 0 0
850 1 5.45 186.471 -3906 0 0 0 0 0
851 1 5.45 186.471 -3900 0 0 0 0 0
852 1 5.45 186.471 -3894 0 0 0 0 0