LAMMPS (23 Jun 2022 - Update 1)
  using 1 OpenMP thread(s) per MPI task
Lattice spacing in x,y,z = 6 6 6
Created orthogonal box = (-9000 -100 -100) to (9000 100 100)
  2 by 1 by 1 MPI processor grid
Created 3000 atoms
  using lattice units in orthogonal box = (-9000 -100 -100) to (9000 100 100)
  create_atoms CPU = 0.002 seconds
Lattice spacing in x,y,z = 3 3 3
Created 2001 atoms
  using lattice units in orthogonal box = (-9000 -100 -100) to (9000 100 100)
  create_atoms CPU = 0.001 seconds
Setting atom values ...
  3000 settings made for diameter
Setting atom values ...
  3000 settings made for mass
Setting atom values ...
  2001 settings made for diameter
Setting atom values ...
  2001 settings made for mass
3000 atoms in group substrate
2001 atoms in group slider1
  1 rigid bodies with 2001 atoms
Generated 0 of 1 mixed pair_coeff terms from geometric mixing rule
Neighbor list info ...
  update every 1 steps, delay 0 steps, check yes
  max neighbors/atom: 2000, page size: 100000
  master list distance cutoff = 4.84
  ghost atom cutoff = 4.84
  binsize = 2.42, bins = 7439 83 83
  1 neighbor lists, perpetual/occasional/extra = 1 0 0
  (1) pair granular, perpetual
      attributes: half, newton on, size, history
      pair build: half/size/bin/newton
      stencil: half/bin/3d
      bin: standard
Setting up Verlet run ...
  Unit style    : micro
  Current step  : 0
  Time step     : 1e-05
Per MPI rank memory allocation (min/avg/max) = 123 | 123 | 123 Mbytes
   Step           Lx             Ly             Lz           Press           Pxx            Pyy            Pzz           KinEng         PotEng          Temp          c_1[1]         c_1[2]         c_1[3]    
         0   18000          200            200            0              0              0              0              0              0              0              1.1971759e-13  0              6            
    100000   18000          200            200           -0.00046576757 -3.5901892e-35  0             -0.0013973027   248360.6       0              1.1992445e+10  1.1971759e-13  0              4.2730312    
    200000   18000          200            200            0.0007004953   1.7951044e-35  0              0.0021014859   175188.45      0              8.4592235e+09  1.1971759e-13  0              3.9373143    
    300000   18000          200            200            0.00027306084 -1.7950913e-35  0              0.00081918252  35705.448      0              1.7240883e+09  1.1971759e-13  0              3.8891814    
    400000   18000          200            200            0.00013338128 -5.3852844e-35  0              0.00040014383  9681.0002      0              4.6746085e+08  1.1971759e-13  0              3.8730675    
    500000   18000          200            200            2.5814905e-05  1.7951015e-35  0              7.7444716e-05  406.97513      0              19651373       1.1971759e-13  0              3.8708557    
    600000   18000          200            200            0.0067478841  -5.385289e-35   0              0.020243652    50.679899      0              2447151        1.1971759e-13  0              3.8685796    
    700000   18000          200            200            0.0045946522  -1.7950956e-35  0              0.013783957    15.273699      0              737512.26      1.1971759e-13  0              3.8689005    
    800000   18000          200            200            0.0039332806  -6.282838e-35   0              0.011799842    2.3155575      0              111809.99      1.1971759e-13  0              3.8690077    
    900000   18000          200            200            0.0035531063   2.2438718e-35  0              0.010659319    1.0226781      0              49381.468      1.1971759e-13  0              3.8690728    
   1000000   18000          200            200            0.003530942    8.9754904e-36  0              0.010592826    0.0023856173   0              115.19292      1.1971759e-13  0              3.8690769    
   1100000   18000          200            200            0.003575635   -4.0389675e-35  0              0.010726905    0.014774174    0              713.39199      1.1971759e-13  0              3.8690692    
   1200000   18000          200            200            0.0035892517  -2.2438703e-36  0              0.010767755    0.0012293956   0              59.363113      1.1971759e-13  0              3.8690668    
   1300000   18000          200            200            0.0035865684  -2.8048385e-37  0              0.010759705    5.976707e-05   0              2.8859379      1.1971759e-13  0              3.8690672    
   1400000   18000          200            200            0.0035841482   2.8048388e-36  0              0.010752444    4.129567e-05   0              1.9940201      1.1971759e-13  0              3.8690676    
   1500000   18000          200            200            0.0035839315  -1.4024194e-36  0              0.010751794    2.4595027e-07  0              0.011876058    1.1971759e-13  0              3.8690677    
   1600000   18000          200            200            0.0035841985   2.8048389e-37  0              0.010752596    5.2981376e-07  0              0.02558281     1.1971759e-13  0              3.8690676    
   1700000   18000          200            200            0.0035842899   1.1219355e-36  0              0.01075287     5.5898891e-08  0              0.0026991574   1.1971759e-13  0              3.8690676    
   1800000   18000          200            200            0.0035842762   8.4145164e-37  0              0.010752829    1.6030281e-09  0              7.7404489e-05  1.1971759e-13  0              3.8690676    
   1900000   18000          200            200            0.003584261   -1.4024194e-36  0              0.010752783    1.6396506e-09  0              7.9172859e-05  1.1971759e-13  0              3.8690676    
   2000000   18000          200            200            0.0035842592  -3.9267743e-36  0              0.010752778    1.8185962e-11  0              8.7813501e-07  1.1971759e-13  0              3.8690676    
   2100000   18000          200            200            0.0035842608   8.4145164e-37  0              0.010752782    1.864928e-11   0              9.0050697e-07  1.1971759e-13  0              3.8690676    
   2200000   18000          200            200            0.0035842614  -1.1219355e-36  0              0.010752784    2.4794648e-12  0              1.1972448e-07  1.1971759e-13  0              3.8690676    
   2300000   18000          200            200            0.0035842614  -2.8048387e-37  0              0.010752784    3.8702841e-14  0              1.8688217e-09  1.1971759e-13  0              3.8690676    
   2400000   18000          200            200            0.0035842613   8.4145164e-37  0              0.010752784    6.4275489e-14  0              3.1036333e-09  1.1971759e-13  0              3.8690676    
   2500000   18000          200            200            0.0035842613   2.243871e-36   0              0.010752784    1.1483417e-15  0              5.544931e-11   1.1971759e-13  0              3.8690676    
   2600000   18000          200            200            0.0035842613  -1.4024194e-36  0              0.010752784    5.6110876e-16  0              2.7093934e-11  1.1971759e-13  0              3.8690676    
   2700000   18000          200            200            0.0035842613   1.1219355e-36  0              0.010752784    1.8438056e-18  0              8.9030776e-14  1.1971759e-13  0              3.8690676    
   2800000   18000          200            200            0.0035842613   5.6096776e-37  0              0.010752784    1.9637475e-19  0              9.4822339e-15  1.1971759e-13  0              3.8690676    
   2900000   18000          200            200            0.0035842613   1.1219355e-36  0              0.010752784    5.4676618e-18  0              2.6401382e-13  1.1971759e-13  0              3.8690676    
   3000000   18000          200            200            0.0035842613   3.3658065e-36  0              0.010752784    1.3078768e-17  0              6.3152692e-13  1.1971759e-13  0              3.8690676    
Loop time of 791.734 on 2 procs for 3000000 steps with 5001 atoms

Performance: 3273828.112 ns/day, 0.000 hours/ns, 3789.153 timesteps/s
100.0% CPU use with 2 MPI tasks x 1 OpenMP threads

MPI task timing breakdown:
Section |  min time  |  avg time  |  max time  |%varavg| %total
---------------------------------------------------------------
Pair    | 275.19     | 280.56     | 285.94     |  32.1 | 35.44
Neigh   | 4.0084     | 4.0089     | 4.0093     |   0.0 |  0.51
Comm    | 19.417     | 24.864     | 30.311     | 109.2 |  3.14
Output  | 0.60422    | 0.60432    | 0.60441    |   0.0 |  0.08
Modify  | 429.42     | 429.7      | 429.98     |   1.4 | 54.27
Other   |            | 51.99      |            |       |  6.57

Nlocal:         2500.5 ave        2501 max        2500 min
Histogram: 1 0 0 0 0 0 0 0 0 1
Nghost:            2.5 ave           3 max           2 min
Histogram: 1 0 0 0 0 0 0 0 0 1
Neighs:         1500.5 ave        1501 max        1500 min
Histogram: 1 0 0 0 0 0 0 0 0 1

Total # of neighbors = 3001
Ave neighs/atom = 0.60007998
Neighbor list builds = 120
Dangerous builds = 0
  using 1 OpenMP thread(s) per MPI task
Lattice spacing in x,y,z = 6 6 6
Created orthogonal box = (-9000 -100 -100) to (9000 100 100)
  2 by 1 by 1 MPI processor grid
Created 3000 atoms
  using lattice units in orthogonal box = (-9000 -100 -100) to (9000 100 100)
  create_atoms CPU = 0.002 seconds
Lattice spacing in x,y,z = 3 3 3
Created 2001 atoms
  using lattice units in orthogonal box = (-9000 -100 -100) to (9000 100 100)
  create_atoms CPU = 0.001 seconds
Setting atom values ...
  3000 settings made for diameter
Setting atom values ...
  3000 settings made for mass
Setting atom values ...
  2001 settings made for diameter
Setting atom values ...
  2001 settings made for mass
3000 atoms in group substrate
2001 atoms in group slider1
  1 rigid bodies with 2001 atoms
Generated 0 of 1 mixed pair_coeff terms from geometric mixing rule
Neighbor list info ...
  update every 1 steps, delay 0 steps, check yes
  max neighbors/atom: 2000, page size: 100000
  master list distance cutoff = 4.85
  ghost atom cutoff = 4.85
  binsize = 2.425, bins = 7423 83 83
  1 neighbor lists, perpetual/occasional/extra = 1 0 0
  (1) pair granular, perpetual
      attributes: half, newton on, size, history
      pair build: half/size/bin/newton
      stencil: half/bin/3d
      bin: standard
Setting up Verlet run ...
  Unit style    : micro
  Current step  : 0
  Time step     : 1e-05
Per MPI rank memory allocation (min/avg/max) = 122.8 | 122.8 | 122.8 Mbytes
   Step           Lx             Ly             Lz           Press           Pxx            Pyy            Pzz           KinEng         PotEng          Temp          c_1[1]         c_1[2]         c_1[3]    
         0   18000          200            200            0              0              0              0              0              0              0              1.1971759e-13  0              6            
    100000   18000          200            200           -0.00046371931  3.5902007e-35  0             -0.0013911579   241722.59      0              1.1671919e+10  1.1971759e-13  0              4.2802828    
    200000   18000          200            200            0.00071437929  7.1803927e-35  0              0.0021431379   180762.51      0              8.7283746e+09  1.1971759e-13  0              3.9389366    
    300000   18000          200            200            0.00028708171  5.3852974e-35  0              0.00086124513  38983.259      0              1.882362e+09   1.1971759e-13  0              3.8924115    
    400000   18000          200            200            0.00014724498  7.1803928e-35  0              0.00044173495  11624.344      0              5.6129799e+08  1.1971759e-13  0              3.8770586    
    500000   18000          200            200            3.9123118e-05  1.7951009e-35  0              0.00011736935  917.31885      0              44294044       1.1971759e-13  0              3.8755985    
    600000   18000          200            200            0.006913617    5.3852921e-35  0              0.020740851    7.869333       0              379981.93      1.1971759e-13  0              3.8735563    
    700000   18000          200            200            0.0047538005  -8.0779346e-35  0              0.014261401    0.12241214     0              5910.8441      1.1971759e-13  0              3.8738758    
    800000   18000          200            200            0.0037888402   1.7950977e-35  0              0.011366521    6.1573916      0              297318.41      1.1971759e-13  0              3.874033     
    900000   18000          200            200            0.0034898      8.0855243e-42  0              0.0104694      0.59165284     0              28568.798      1.1971759e-13  0              3.874085     
   1000000   18000          200            200            0.0035399827   2.6926459e-35  0              0.010619948    0.023504063    0              1134.9271      1.1971759e-13  0              3.8740764    
   1100000   18000          200            200            0.0035913653   3.1414197e-35  0              0.010774096    0.018102904    0              874.12444      1.1971759e-13  0              3.8740675    
   1200000   18000          200            200            0.0035958632   6.6360413e-43  0              0.01078759     7.4421041e-05  0              3.5935257      1.1971759e-13  0              3.8740667    
   1300000   18000          200            200            0.0035900579  -5.6096773e-37  0              0.010770174    0.00025080722  0              12.110583      1.1971759e-13  0              3.8740677    
   1400000   18000          200            200            0.0035882268   2.8048388e-37  0              0.01076468     2.0443606e-05  0              0.98714858     1.1971759e-13  0              3.874068     
   1500000   18000          200            200            0.0035885978  -2.8048387e-37  0              0.010765793    1.2408487e-06  0              0.059916142    1.1971759e-13  0              3.8740679    
   1600000   18000          200            200            0.0035889178  -8.4145162e-37  0              0.010766753    6.9315332e-07  0              0.033469893    1.1971759e-13  0              3.8740679    
   1700000   18000          200            200            0.0035889375   1.0293067e-44  0              0.010766813    1.0060002e-09  0              4.8576151e-05  1.1971759e-13  0              3.8740679    
   1800000   18000          200            200            0.0035888997  -5.6096774e-37  0              0.010766699    1.0533616e-08  0              0.0005086306   1.1971759e-13  0              3.8740679    
   1900000   18000          200            200            0.003588889   -1.4024194e-36  0              0.010766667    6.8257426e-10  0              3.2959068e-05  1.1971759e-13  0              3.8740679    
   2000000   18000          200            200            0.0035888917   1.4024194e-36  0              0.010766675    6.2406172e-11  0              3.0133707e-06  1.1971759e-13  0              3.8740679    
   2100000   18000          200            200            0.0035888937   1.1219355e-36  0              0.010766681    2.6242595e-11  0              1.267161e-06   1.1971759e-13  0              3.8740679    
   2200000   18000          200            200            0.0035888937   8.4145164e-37  0              0.010766681    3.2571315e-15  0              1.5727523e-10  1.1971759e-13  0              3.8740679    
   2300000   18000          200            200            0.0035888935   8.4145164e-37  0              0.01076668     4.374255e-13   0              2.1121712e-08  1.1971759e-13  0              3.8740679    
   2400000   18000          200            200            0.0035888934  -5.6096774e-37  0              0.01076668     2.2696637e-14  0              1.0959394e-09  1.1971759e-13  0              3.8740679    
   2500000   18000          200            200            0.0035888934  -4.487742e-36   0              0.01076668     3.0728352e-15  0              1.4837622e-10  1.1971759e-13  0              3.8740679    
   2600000   18000          200            200            0.0035888934   1.0485124e-44  0              0.01076668     1.0399301e-15  0              5.0214502e-11  1.1971759e-13  0              3.8740679    
   2700000   18000          200            200            0.0035888934   1.6829033e-36  0              0.01076668     1.2709284e-16  0              6.1368586e-12  1.1971759e-13  0              3.8740679    
   2800000   18000          200            200            0.0035888934  -2.8048387e-37  0              0.01076668     9.9206255e-18  0              4.790315e-13   1.1971759e-13  0              3.8740679    
   2900000   18000          200            200            0.0035888934   8.6950002e-36  0              0.01076668     3.1824628e-18  0              1.5366974e-13  1.1971759e-13  0              3.8740679    
   3000000   18000          200            200            0.0035888934   5.6096776e-37  0              0.01076668     5.4330994e-18  0              2.6234493e-13  1.1971759e-13  0              3.8740679    
Loop time of 779.783 on 2 procs for 3000000 steps with 5001 atoms

Performance: 3323999.728 ns/day, 0.000 hours/ns, 3847.222 timesteps/s
100.0% CPU use with 2 MPI tasks x 1 OpenMP threads

MPI task timing breakdown:
Section |  min time  |  avg time  |  max time  |%varavg| %total
---------------------------------------------------------------
Pair    | 273.07     | 274.33     | 275.6      |   7.6 | 35.18
Neigh   | 4.1874     | 4.1875     | 4.1875     |   0.0 |  0.54
Comm    | 21.023     | 22.225     | 23.426     |  25.5 |  2.85
Output  | 0.60549    | 0.60555    | 0.6056     |   0.0 |  0.08
Modify  | 424.68     | 425.49     | 426.3      |   3.9 | 54.56
Other   |            | 52.95      |            |       |  6.79

Nlocal:         2500.5 ave        2501 max        2500 min
Histogram: 1 0 0 0 0 0 0 0 0 1
Nghost:            2.5 ave           3 max           2 min
Histogram: 1 0 0 0 0 0 0 0 0 1
Neighs:         1500.5 ave        1501 max        1500 min
Histogram: 1 0 0 0 0 0 0 0 0 1

Total # of neighbors = 3001
Ave neighs/atom = 0.60007998
Neighbor list builds = 126
Dangerous builds = 0
  using 1 OpenMP thread(s) per MPI task
Lattice spacing in x,y,z = 6 6 6
Created orthogonal box = (-9000 -100 -100) to (9000 100 100)
  2 by 1 by 1 MPI processor grid
Created 3000 atoms
  using lattice units in orthogonal box = (-9000 -100 -100) to (9000 100 100)
  create_atoms CPU = 0.002 seconds
Lattice spacing in x,y,z = 3 3 3
Created 2001 atoms
  using lattice units in orthogonal box = (-9000 -100 -100) to (9000 100 100)
  create_atoms CPU = 0.001 seconds
Setting atom values ...
  3000 settings made for diameter
Setting atom values ...
  3000 settings made for mass
Setting atom values ...
  2001 settings made for diameter
Setting atom values ...
  2001 settings made for mass
3000 atoms in group substrate
2001 atoms in group slider1
  1 rigid bodies with 2001 atoms
Generated 0 of 1 mixed pair_coeff terms from geometric mixing rule
Neighbor list info ...
  update every 1 steps, delay 0 steps, check yes
  max neighbors/atom: 2000, page size: 100000
  master list distance cutoff = 4.86
  ghost atom cutoff = 4.86
  binsize = 2.43, bins = 7408 83 83
  1 neighbor lists, perpetual/occasional/extra = 1 0 0
  (1) pair granular, perpetual
      attributes: half, newton on, size, history
      pair build: half/size/bin/newton
      stencil: half/bin/3d
      bin: standard
Setting up Verlet run ...
  Unit style    : micro
  Current step  : 0
  Time step     : 1e-05
Per MPI rank memory allocation (min/avg/max) = 122.5 | 122.5 | 122.5 Mbytes
   Step           Lx             Ly             Lz           Press           Pxx            Pyy            Pzz           KinEng         PotEng          Temp          c_1[1]         c_1[2]         c_1[3]    
         0   18000          200            200            0              0              0              0              0              0              0              1.1971759e-13  0              6            
    100000   18000          200            200           -0.00046155209 -1.7950869e-35  0             -0.0013846563   235177.66      0              1.1355887e+10  1.1971759e-13  0              4.2874992    
    200000   18000          200            200            0.00072833131  6.1593941e-41  0              0.0021849939   186419.04      0              9.0015084e+09  1.1971759e-13  0              3.940501     
    300000   18000          200            200            0.00030123262  5.3852969e-35  0              0.00090369787  42401.087      0              2.0473967e+09  1.1971759e-13  0              3.8955605    
    400000   18000          200            200            0.00016127593  6.0599569e-41  0              0.00048382779  13742.447      0              6.6357357e+08  1.1971759e-13  0              3.8809553    
    500000   18000          200            200            5.2630598e-05 -1.7950924e-35  0              0.00015789179  1631.0232      0              78756275       1.1971759e-13  0              3.8802375    
    600000   18000          200            200            0.0063313821  -8.9754679e-36  0              0.018994146    145.9515       0              7047475.6      1.1971759e-13  0              3.8786383    
    700000   18000          200            200            0.0046466826   2.6926462e-35  0              0.013940048    10.767532      0              519925.6       1.1971759e-13  0              3.8788933    
    800000   18000          200            200            0.0035984864   2.6926461e-35  0              0.010795459    8.0628793      0              389327.58      1.1971759e-13  0              3.8790667    
    900000   18000          200            200            0.0034530746   1.3463234e-35  0              0.010359224    0.10478213     0              5059.554       1.1971759e-13  0              3.8790925    
   1000000   18000          200            200            0.0035636259   8.9754906e-36  0              0.010690878    0.09562471     0              4617.375       1.1971759e-13  0              3.8790734    
   1100000   18000          200            200            0.0036062813   3.0417755e-42  0              0.010818844    0.010563647    0              510.08071      1.1971759e-13  0              3.879066     
   1200000   18000          200            200            0.0035999098   1.7950968e-34  0              0.010799729    0.00043657083  0              21.080443      1.1971759e-13  0              3.879067     
   1300000   18000          200            200            0.0035930775   5.6096778e-37  0              0.010779232    0.00030707088  0              14.827354      1.1971759e-13  0              3.8790682    
   1400000   18000          200            200            0.0035926005   1.4024194e-36  0              0.010777802    3.9356915e-07  0              0.019004046    1.1971759e-13  0              3.8790683    
   1500000   18000          200            200            0.0035934064   9.4070097e-45  0              0.010780219    4.7622694e-06  0              0.22995295     1.1971759e-13  0              3.8790682    
   1600000   18000          200            200            0.0035936243   5.6096777e-37  0              0.010780873    2.5248049e-07  0              0.012191379    1.1971759e-13  0              3.8790681    
   1700000   18000          200            200            0.0035935603   2.8048389e-37  0              0.010780681    3.6134203e-08  0              0.0017447913   1.1971759e-13  0              3.8790681    
   1800000   18000          200            200            0.0035935193   5.6096777e-37  0              0.010780558    1.0531561e-08  0              0.0005085314   1.1971759e-13  0              3.8790681    
   1900000   18000          200            200            0.0035935199   8.4145164e-37  0              0.01078056     2.7350498e-11  0              1.3206577e-06  1.1971759e-13  0              3.8790681    
   2000000   18000          200            200            0.0035935253  -1.4024194e-36  0              0.010780576    2.1006928e-10  0              1.0143494e-05  1.1971759e-13  0              3.8790681    
   2100000   18000          200            200            0.0035935263  -8.4145162e-37  0              0.010780579    4.4215469e-12  0              2.1350067e-07  1.1971759e-13  0              3.8790681    
   2200000   18000          200            200            0.0035935258   1.6829033e-36  0              0.010780577    2.2513711e-12  0              1.0871065e-07  1.1971759e-13  0              3.8790681    
   2300000   18000          200            200            0.0035935256  -2.8048387e-37  0              0.010780577    3.1760111e-13  0              1.5335821e-08  1.1971759e-13  0              3.8790681    
   2400000   18000          200            200            0.0035935256   5.6096777e-37  0              0.010780577    7.472807e-15   0              3.608351e-10   1.1971759e-13  0              3.8790681    
   2500000   18000          200            200            0.0035935256  -8.4145162e-37  0              0.010780577    8.2945756e-15  0              4.0051537e-10  1.1971759e-13  0              3.8790681    
   2600000   18000          200            200            0.0035935256   5.6096776e-37  0              0.010780577    7.6272254e-17  0              3.6829142e-12  1.1971759e-13  0              3.8790681    
   2700000   18000          200            200            0.0035935256  -2.8048387e-37  0              0.010780577    8.5392947e-17  0              4.1233198e-12  1.1971759e-13  0              3.8790681    
   2800000   18000          200            200            0.0035935256  -1.4024194e-36  0              0.010780577    7.4931019e-18  0              3.6181507e-13  1.1971759e-13  0              3.8790681    
   2900000   18000          200            200            0.0035935256   1.1219355e-36  0              0.010780577    1.2767101e-17  0              6.1647763e-13  1.1971759e-13  0              3.8790681    
   3000000   18000          200            200            0.0035935256   5.8901614e-36  0              0.010780577    7.1515608e-18  0              3.4532328e-13  1.1971759e-13  0              3.8790681    
Loop time of 783.926 on 2 procs for 3000000 steps with 5001 atoms

Performance: 3306433.391 ns/day, 0.000 hours/ns, 3826.890 timesteps/s
100.0% CPU use with 2 MPI tasks x 1 OpenMP threads

MPI task timing breakdown:
Section |  min time  |  avg time  |  max time  |%varavg| %total
---------------------------------------------------------------
Pair    | 277.34     | 278.21     | 279.08     |   5.2 | 35.49
Neigh   | 4.1931     | 4.1933     | 4.1936     |   0.0 |  0.53
Comm    | 20.452     | 21.448     | 22.445     |  21.5 |  2.74
Output  | 0.60085    | 0.60089    | 0.60093    |   0.0 |  0.08
Modify  | 425.14     | 425.53     | 425.93     |   1.9 | 54.28
Other   |            | 53.94      |            |       |  6.88

Nlocal:         2500.5 ave        2501 max        2500 min
Histogram: 1 0 0 0 0 0 0 0 0 1
Nghost:            2.5 ave           3 max           2 min
Histogram: 1 0 0 0 0 0 0 0 0 1
Neighs:         1500.5 ave        1501 max        1500 min
Histogram: 1 0 0 0 0 0 0 0 0 1

Total # of neighbors = 3001
Ave neighs/atom = 0.60007998
Neighbor list builds = 126
Dangerous builds = 0
  using 1 OpenMP thread(s) per MPI task
Lattice spacing in x,y,z = 6 6 6
Created orthogonal box = (-9000 -100 -100) to (9000 100 100)
  2 by 1 by 1 MPI processor grid
Created 3000 atoms
  using lattice units in orthogonal box = (-9000 -100 -100) to (9000 100 100)
  create_atoms CPU = 0.002 seconds
Lattice spacing in x,y,z = 3 3 3
Created 2001 atoms
  using lattice units in orthogonal box = (-9000 -100 -100) to (9000 100 100)
  create_atoms CPU = 0.001 seconds
Setting atom values ...
  3000 settings made for diameter
Setting atom values ...
  3000 settings made for mass
Setting atom values ...
  2001 settings made for diameter
Setting atom values ...
  2001 settings made for mass
3000 atoms in group substrate
2001 atoms in group slider1
  1 rigid bodies with 2001 atoms
Generated 0 of 1 mixed pair_coeff terms from geometric mixing rule
Neighbor list info ...
  update every 1 steps, delay 0 steps, check yes
  max neighbors/atom: 2000, page size: 100000
  master list distance cutoff = 4.87
  ghost atom cutoff = 4.87
  binsize = 2.435, bins = 7393 83 83
  1 neighbor lists, perpetual/occasional/extra = 1 0 0
  (1) pair granular, perpetual
      attributes: half, newton on, size, history
      pair build: half/size/bin/newton
      stencil: half/bin/3d
      bin: standard
Setting up Verlet run ...
  Unit style    : micro
  Current step  : 0
  Time step     : 1e-05
Per MPI rank memory allocation (min/avg/max) = 122.3 | 122.3 | 122.3 Mbytes
   Step           Lx             Ly             Lz           Press           Pxx            Pyy            Pzz           KinEng         PotEng          Temp          c_1[1]         c_1[2]         c_1[3]    
         0   18000          200            200            0              0              0              0              0              0              0              1.1971759e-13  0              6            
    100000   18000          200            200           -0.0004592665  -5.7443094e-34  0             -0.0013777995   228726.14      0              1.1044367e+10  1.1971759e-13  0              4.2946801    
    200000   18000          200            200            0.00074234947  1.7951018e-35  0              0.0022270484   192157.28      0              9.2785873e+09  1.1971759e-13  0              3.9420077    
    300000   18000          200            200            0.00031551172 -2.1541156e-34  0              0.00094653516  45958.272      0              2.2191605e+09  1.1971759e-13  0              3.8986283    
    400000   18000          200            200            0.00065523668  1.7951027e-35  0              0.00196571     16008.59       0              7.7299752e+08  1.1971759e-13  0              3.8847572    
    500000   18000          200            200            0.00050058387 -7.180383e-35   0              0.0015017516   2524.6526      0              1.2190644e+08  1.1971759e-13  0              3.8847726    
    600000   18000          200            200            0.0051849262  -3.5901922e-35  0              0.015554779    349.01377      0              16852626       1.1971759e-13  0              3.8838078    
    700000   18000          200            200            0.0043031436  -1.7950959e-35  0              0.012909431    37.931615      0              1831582        1.1971759e-13  0              3.8839491    
    800000   18000          200            200            0.0034102309  -1.7950959e-35  0              0.010230693    6.3498279      0              306610.47      1.1971759e-13  0              3.8841006    
    900000   18000          200            200            0.0034536466   8.3954524e-42  0              0.01036094     0.042612498    0              2057.605       1.1971759e-13  0              3.8840936    
   1000000   18000          200            200            0.0035962715  -4.0389672e-35  0              0.010788814    0.1385985      0              6692.4255      1.1971759e-13  0              3.8840688    
   1100000   18000          200            200            0.0036169458  -1.3463223e-35  0              0.010850837    0.0013586414   0              65.603931      1.1971759e-13  0              3.8840652    
   1200000   18000          200            200            0.0036016054   4.4877427e-36  0              0.010804816    0.0018179454   0              87.782079      1.1971759e-13  0              3.8840678    
   1300000   18000          200            200            0.0035962793   1.1219355e-36  0              0.010788838    0.00014706647  0              7.1013133      1.1971759e-13  0              3.8840687    
   1400000   18000          200            200            0.0035973836   2.5243549e-36  0              0.010792151    1.2462826e-05  0              0.60178524     1.1971759e-13  0              3.8840685    
   1500000   18000          200            200            0.0035982724  -2.8048387e-37  0              0.010794817    4.8275884e-06  0              0.23310697     1.1971759e-13  0              3.8840684    
   1600000   18000          200            200            0.0035982791  -2.8048387e-37  0              0.010794837    7.8308971e-09  0              0.00037812599  1.1971759e-13  0              3.8840684    
   1700000   18000          200            200            0.0035981635   5.6096777e-37  0              0.01079449     9.2342633e-08  0              0.0044588953   1.1971759e-13  0              3.8840684    
   1800000   18000          200            200            0.0035981428  -8.4145162e-37  0              0.010794428    1.6240906e-09  0              7.8421521e-05  1.1971759e-13  0              3.8840684    
   1900000   18000          200            200            0.0035981545  -8.4145162e-37  0              0.010794463    1.0922534e-09  0              5.2741006e-05  1.1971759e-13  0              3.8840684    
   2000000   18000          200            200            0.0035981592  -8.4145162e-37  0              0.010794478    1.1974211e-10  0              5.781918e-06   1.1971759e-13  0              3.8840684    
   2100000   18000          200            200            0.0035981585   1.1219355e-36  0              0.010794475    6.1256626e-12  0              2.9578633e-07  1.1971759e-13  0              3.8840684    
   2200000   18000          200            200            0.0035981577  -1.1219355e-36  0              0.010794473    3.4612029e-12  0              1.671291e-07   1.1971759e-13  0              3.8840684    
   2300000   18000          200            200            0.0035981577  -5.6096774e-37  0              0.010794473    3.1739715e-17  0              1.5325972e-12  1.1971759e-13  0              3.8840684    
   2400000   18000          200            200            0.0035981578   8.4145164e-37  0              0.010794473    6.028553e-14   0              2.9109725e-09  1.1971759e-13  0              3.8840684    
   2500000   18000          200            200            0.0035981578   8.4145164e-37  0              0.010794473    1.6681595e-15  0              8.0549451e-11  1.1971759e-13  0              3.8840684    
   2600000   18000          200            200            0.0035981578  -8.4145162e-37  0              0.010794473    5.3916906e-16  0              2.6034544e-11  1.1971759e-13  0              3.8840684    
   2700000   18000          200            200            0.0035981578   5.6096777e-37  0              0.010794473    4.8254182e-18  0              2.3300218e-13  1.1971759e-13  0              3.8840684    
   2800000   18000          200            200            0.0035981578   8.4145164e-37  0              0.010794473    7.033152e-19   0              3.3960574e-14  1.1971759e-13  0              3.8840684    
   2900000   18000          200            200            0.0035981578   5.6096777e-37  0              0.010794473    2.0886638e-18  0              1.008541e-13   1.1971759e-13  0              3.8840684    
   3000000   18000          200            200            0.0035981578  -5.6096775e-37  0              0.010794473    9.7138695e-18  0              4.6904799e-13  1.1971759e-13  0              3.8840684    
Loop time of 787.041 on 2 procs for 3000000 steps with 5001 atoms

Performance: 3293346.278 ns/day, 0.000 hours/ns, 3811.743 timesteps/s
100.0% CPU use with 2 MPI tasks x 1 OpenMP threads

MPI task timing breakdown:
Section |  min time  |  avg time  |  max time  |%varavg| %total
---------------------------------------------------------------
Pair    | 282.76     | 282.84     | 282.93     |   0.5 | 35.94
Neigh   | 4.3577     | 4.3581     | 4.3586     |   0.0 |  0.55
Comm    | 21.343     | 21.613     | 21.883     |   5.8 |  2.75
Output  | 0.60273    | 0.60279    | 0.60285    |   0.0 |  0.08
Modify  | 422.94     | 423.15     | 423.36     |   1.0 | 53.76
Other   |            | 54.47      |            |       |  6.92

Nlocal:         2500.5 ave        2501 max        2500 min
Histogram: 1 0 0 0 0 0 0 0 0 1
Nghost:            2.5 ave           3 max           2 min
Histogram: 1 0 0 0 0 0 0 0 0 1
Neighs:         1500.5 ave        1501 max        1500 min
Histogram: 1 0 0 0 0 0 0 0 0 1

Total # of neighbors = 3001
Ave neighs/atom = 0.60007998
Neighbor list builds = 132
Dangerous builds = 0
  using 1 OpenMP thread(s) per MPI task
Lattice spacing in x,y,z = 6 6 6
Created orthogonal box = (-9000 -100 -100) to (9000 100 100)
  2 by 1 by 1 MPI processor grid
Created 3000 atoms
  using lattice units in orthogonal box = (-9000 -100 -100) to (9000 100 100)
  create_atoms CPU = 0.002 seconds
Lattice spacing in x,y,z = 3 3 3
Created 2001 atoms
  using lattice units in orthogonal box = (-9000 -100 -100) to (9000 100 100)
  create_atoms CPU = 0.001 seconds
Setting atom values ...
  3000 settings made for diameter
Setting atom values ...
  3000 settings made for mass
Setting atom values ...
  2001 settings made for diameter
Setting atom values ...
  2001 settings made for mass
3000 atoms in group substrate
2001 atoms in group slider1
  1 rigid bodies with 2001 atoms
Generated 0 of 1 mixed pair_coeff terms from geometric mixing rule
Neighbor list info ...
  update every 1 steps, delay 0 steps, check yes
  max neighbors/atom: 2000, page size: 100000
  master list distance cutoff = 4.88
  ghost atom cutoff = 4.88
  binsize = 2.44, bins = 7378 82 82
  1 neighbor lists, perpetual/occasional/extra = 1 0 0
  (1) pair granular, perpetual
      attributes: half, newton on, size, history
      pair build: half/size/bin/newton
      stencil: half/bin/3d
      bin: standard
Setting up Verlet run ...
  Unit style    : micro
  Current step  : 0
  Time step     : 1e-05
Per MPI rank memory allocation (min/avg/max) = 119.6 | 119.6 | 119.6 Mbytes
   Step           Lx             Ly             Lz           Press           Pxx            Pyy            Pzz           KinEng         PotEng          Temp          c_1[1]         c_1[2]         c_1[3]    
         0   18000          200            200            0              0              0              0              0              0              0              1.1971759e-13  0              6            
    100000   18000          200            200           -0.00045686305  7.1805323e-41  0             -0.0013705891   222368.12      0              1.0737361e+10  1.1971759e-13  0              4.3018254    
    200000   18000          200            200            0.00075643246  1.7951015e-35  0              0.0022692974   197976.67      0              9.5595848e+09  1.1971759e-13  0              3.9434567    
    300000   18000          200            200            0.00032991545 -3.5901882e-35  0              0.00098974636  49653.682      0              2.3975986e+09  1.1971759e-13  0              3.9016151    
    400000   18000          200            200            0.0075652385   1.2565683e-34  0              0.022695716    15971.834      0              7.7122273e+08  1.1971759e-13  0              3.8884967    
    500000   18000          200            200            0.0028306922   1.4360779e-34  0              0.0084920765   3152.4595      0              1.5222099e+08  1.1971759e-13  0              3.8892211    
    600000   18000          200            200            0.0038108697   5.385292e-35   0              0.011432609    457.61598      0              22096638       1.1971759e-13  0              3.8890285    
    700000   18000          200            200            0.0038154908  -4.4877338e-36  0              0.011446472    58.631141      0              2831088        1.1971759e-13  0              3.8890307    
    800000   18000          200            200            0.0032688791  -8.9754758e-36  0              0.0098066372   2.5881795      0              124973.92      1.1971759e-13  0              3.8891268    
    900000   18000          200            200            0.0034926429  -2.2438702e-35  0              0.010477929    0.46284996     0              22349.368      1.1971759e-13  0              3.8890879    
   1000000   18000          200            200            0.0036295531  -1.346322e-35   0              0.010888659    0.10460375     0              5050.9408      1.1971759e-13  0              3.8890641    
   1100000   18000          200            200            0.0036213292   8.975487e-36   0              0.010863988    0.0016937403   0              81.784655      1.1971759e-13  0              3.8890654    
   1200000   18000          200            200            0.003602033    2.2438716e-36  0              0.010806099    0.0023635623   0              114.12797      1.1971759e-13  0              3.8890688    
   1300000   18000          200            200            0.0036002422   2.8588098e-44  0              0.010800727    3.4219888e-06  0              0.16523559     1.1971759e-13  0              3.8890691    
   1400000   18000          200            200            0.003602509    5.6096776e-37  0              0.010807527    3.7372152e-05  0              1.8045675      1.1971759e-13  0              3.8890687    
   1500000   18000          200            200            0.0036030829  -1.6829033e-36  0              0.010809249    1.334886e-06   0              0.064456866    1.1971759e-13  0              3.8890686    
   1600000   18000          200            200            0.0036028706   5.6096777e-37  0              0.010808612    3.9818553e-07  0              0.019226954    1.1971759e-13  0              3.8890686    
   1700000   18000          200            200            0.0036027635  -1.1219355e-36  0              0.010808291    6.0515767e-08  0              0.0029220898   1.1971759e-13  0              3.8890686    
   1800000   18000          200            200            0.0036027754   5.6096777e-37  0              0.010808326    2.1363441e-09  0              0.00010315641  1.1971759e-13  0              3.8890686    
   1900000   18000          200            200            0.0036027913  -2.8048387e-37  0              0.010808374    1.5387252e-09  0              7.4299531e-05  1.1971759e-13  0              3.8890686    
   2000000   18000          200            200            0.0036027921  -2.8048387e-37  0              0.010808376    4.8797498e-14  0              2.3562565e-09  1.1971759e-13  0              3.8890686    
   2100000   18000          200            200            0.0036027901  -3.0853226e-36  0              0.01080837     2.6902441e-11  0              1.2990226e-06  1.1971759e-13  0              3.8890686    
   2200000   18000          200            200            0.0036027897   1.4024194e-36  0              0.010808369    5.543014e-13   0              2.6765231e-08  1.1971759e-13  0              3.8890686    
   2300000   18000          200            200            0.0036027899   1.4024194e-36  0              0.01080837     3.2624156e-13  0              1.5753038e-08  1.1971759e-13  0              3.8890686    
   2400000   18000          200            200            0.00360279     1.0413063e-44  0              0.01080837     3.3020963e-14  0              1.5944641e-09  1.1971759e-13  0              3.8890686    
   2500000   18000          200            200            0.00360279     1.1219355e-36  0              0.01080837     2.323094e-15   0              1.121739e-10   1.1971759e-13  0              3.8890686    
   2600000   18000          200            200            0.00360279     1.0197457e-44  0              0.01080837     1.0226151e-15  0              4.9378424e-11  1.1971759e-13  0              3.8890686    
   2700000   18000          200            200            0.00360279    -2.8048387e-37  0              0.01080837     1.2781237e-16  0              6.171602e-12   1.1971759e-13  0              3.8890686    
   2800000   18000          200            200            0.00360279    -2.8048387e-37  0              0.01080837     1.6295429e-17  0              7.8684797e-13  1.1971759e-13  0              3.8890686    
   2900000   18000          200            200            0.00360279     8.4145164e-37  0              0.01080837     1.0489026e-17  0              5.0647751e-13  1.1971759e-13  0              3.8890686    
   3000000   18000          200            200            0.00360279     1.2421535e-44  0              0.01080837     5.2550737e-18  0              2.537487e-13   1.1971759e-13  0              3.8890686    
Loop time of 774.033 on 2 procs for 3000000 steps with 5001 atoms

Performance: 3348696.493 ns/day, 0.000 hours/ns, 3875.806 timesteps/s
100.0% CPU use with 2 MPI tasks x 1 OpenMP threads

MPI task timing breakdown:
Section |  min time  |  avg time  |  max time  |%varavg| %total
---------------------------------------------------------------
Pair    | 267.45     | 269.69     | 271.93     |  13.6 | 34.84
Neigh   | 4.345      | 4.3453     | 4.3456     |   0.0 |  0.56
Comm    | 20.111     | 22.455     | 24.8       |  49.5 |  2.90
Output  | 0.60037    | 0.60044    | 0.60051    |   0.0 |  0.08
Modify  | 423.02     | 423.31     | 423.6      |   1.4 | 54.69
Other   |            | 53.64      |            |       |  6.93

Nlocal:         2500.5 ave        2501 max        2500 min
Histogram: 1 0 0 0 0 0 0 0 0 1
Nghost:            2.5 ave           3 max           2 min
Histogram: 1 0 0 0 0 0 0 0 0 1
Neighs:         1500.5 ave        1501 max        1500 min
Histogram: 1 0 0 0 0 0 0 0 0 1

Total # of neighbors = 3001
Ave neighs/atom = 0.60007998
Neighbor list builds = 134
Dangerous builds = 0
  using 1 OpenMP thread(s) per MPI task
Lattice spacing in x,y,z = 6 6 6
Created orthogonal box = (-9000 -100 -100) to (9000 100 100)
  2 by 1 by 1 MPI processor grid
Created 3000 atoms
  using lattice units in orthogonal box = (-9000 -100 -100) to (9000 100 100)
  create_atoms CPU = 0.002 seconds
Lattice spacing in x,y,z = 3 3 3
Created 2001 atoms
  using lattice units in orthogonal box = (-9000 -100 -100) to (9000 100 100)
  create_atoms CPU = 0.001 seconds
Setting atom values ...
  3000 settings made for diameter
Setting atom values ...
  3000 settings made for mass
Setting atom values ...
  2001 settings made for diameter
Setting atom values ...
  2001 settings made for mass
3000 atoms in group substrate
2001 atoms in group slider1
  1 rigid bodies with 2001 atoms
Generated 0 of 1 mixed pair_coeff terms from geometric mixing rule
Neighbor list info ...
  update every 1 steps, delay 0 steps, check yes
  max neighbors/atom: 2000, page size: 100000
  master list distance cutoff = 4.89
  ghost atom cutoff = 4.89
  binsize = 2.445, bins = 7362 82 82
  1 neighbor lists, perpetual/occasional/extra = 1 0 0
  (1) pair granular, perpetual
      attributes: half, newton on, size, history
      pair build: half/size/bin/newton
      stencil: half/bin/3d
      bin: standard
Setting up Verlet run ...
  Unit style    : micro
  Current step  : 0
  Time step     : 1e-05
Per MPI rank memory allocation (min/avg/max) = 119.4 | 119.4 | 119.4 Mbytes
   Step           Lx             Ly             Lz           Press           Pxx            Pyy            Pzz           KinEng         PotEng          Temp          c_1[1]         c_1[2]         c_1[3]    
         0   18000          200            200            0              0              0              0              0              0              0              1.1971759e-13  0              6            
    100000   18000          200            200           -0.00045434166 -8.9754649e-36  0             -0.001363025    216102.56      0              1.0434819e+10  1.1971759e-13  0              4.3089353    
    200000   18000          200            200            0.00077058189 -1.0770577e-34  0              0.0023117457   203877.96      0              9.844537e+09   1.1971759e-13  0              3.9448473    
    300000   18000          200            200            0.00034444629 -1.7950917e-35  0              0.0010333389   53487.763      0              2.5827327e+09  1.1971759e-13  0              3.90452      
    400000   18000          200            200            0.017484454    3.5901989e-35  0              0.052453362    10428.558      0              5.0355773e+08  1.1971759e-13  0              3.8923471    
    500000   18000          200            200            0.0063781225  -1.7950928e-35  0              0.019134368    2861.1562      0              1.3815499e+08  1.1971759e-13  0              3.8936487    
    600000   18000          200            200            0.0025470685  -1.1668128e-34  0              0.0076412056   401.94506      0              19408488       1.1971759e-13  0              3.8942568    
    700000   18000          200            200            0.003303321    8.9754933e-36  0              0.009909963    56.288141      0              2717952.9      1.1971759e-13  0              3.8941203    
    800000   18000          200            200            0.0032063488  -8.9754751e-36  0              0.0096190465   0.10596007     0              5116.4327      1.1971759e-13  0              3.8941392    
    900000   18000          200            200            0.0035613023  -8.9754756e-36  0              0.010683907    0.9439022      0              45577.659      1.1971759e-13  0              3.8940771    
   1000000   18000          200            200            0.0036548143   4.4877484e-36  0              0.010964443    0.031403013    0              1516.3391      1.1971759e-13  0              3.8940608    
   1100000   18000          200            200            0.0036195077   2.2438713e-35  0              0.010858523    0.011063579    0              534.22063      1.1971759e-13  0              3.8940668    
   1200000   18000          200            200            0.0036027425  -3.1414194e-35  0              0.010808228    0.0013448071   0              64.93592       1.1971759e-13  0              3.8940697    
   1300000   18000          200            200            0.003605237    3.0405455e-44  0              0.010815711    8.3563304e-05  0              4.0349729      1.1971759e-13  0              3.8940693    
   1400000   18000          200            200            0.0036077585   9.255968e-36   0              0.010823276    3.5827253e-05  0              1.7299698      1.1971759e-13  0              3.8940688    
   1500000   18000          200            200            0.0036077522  -2.8048387e-37  0              0.010823257    1.9219696e-07  0              0.0092805036   1.1971759e-13  0              3.8940688    
   1600000   18000          200            200            0.00360742     1.0157208e-44  0              0.01082226     7.0981581e-07  0              0.034274465    1.1971759e-13  0              3.8940689    
   1700000   18000          200            200            0.0036073785   1.0422779e-44  0              0.010822136    2.4788119e-09  0              0.00011969296  1.1971759e-13  0              3.8940689    
   1800000   18000          200            200            0.0036074169   2.8048389e-37  0              0.010822251    1.0893999e-08  0              0.00052603223  1.1971759e-13  0              3.8940689    
   1900000   18000          200            200            0.0036074272   3.3658065e-36  0              0.010822282    3.9397511e-10  0              1.9023648e-05  1.1971759e-13  0              3.8940689    
   2000000   18000          200            200            0.0036074235   5.6096777e-37  0              0.01082227     1.2510586e-10  0              6.0409144e-06  1.1971759e-13  0              3.8940689    
   2100000   18000          200            200            0.0036074217  -1.6829033e-36  0              0.010822265    1.6274844e-11  0              7.8585395e-07  1.1971759e-13  0              3.8940689    
   2200000   18000          200            200            0.0036074219   1.4024194e-36  0              0.010822266    9.1212319e-13  0              4.4043165e-08  1.1971759e-13  0              3.8940689    
   2300000   18000          200            200            0.0036074222   1.0129016e-44  0              0.010822267    4.2434724e-13  0              2.049021e-08   1.1971759e-13  0              3.8940689    
   2400000   18000          200            200            0.0036074222   1.0281391e-44  0              0.010822267    2.0085987e-15  0              9.6988041e-11  1.1971759e-13  0              3.8940689    
   2500000   18000          200            200            0.0036074222   1.9633872e-36  0              0.010822266    8.2929438e-15  0              4.0043658e-10  1.1971759e-13  0              3.8940689    
   2600000   18000          200            200            0.0036074221  -2.8048387e-37  0              0.010822266    7.6785764e-17  0              3.7077097e-12  1.1971759e-13  0              3.8940689    
   2700000   18000          200            200            0.0036074222   1.4024194e-36  0              0.010822266    7.4307904e-17  0              3.5880627e-12  1.1971759e-13  0              3.8940689    
   2800000   18000          200            200            0.0036074222  -2.8048387e-37  0              0.010822266    5.2249282e-18  0              2.5229309e-13  1.1971759e-13  0              3.8940689    
   2900000   18000          200            200            0.0036074222   2.243871e-36   0              0.010822266    4.2244353e-18  0              2.0398286e-13  1.1971759e-13  0              3.8940689    
   3000000   18000          200            200            0.0036074222  -5.6096774e-37  0              0.010822266    1.4286519e-17  0              6.8984489e-13  1.1971759e-13  0              3.8940689    
Loop time of 781.138 on 2 procs for 3000000 steps with 5001 atoms

Performance: 3318237.808 ns/day, 0.000 hours/ns, 3840.553 timesteps/s
100.0% CPU use with 2 MPI tasks x 1 OpenMP threads

MPI task timing breakdown:
Section |  min time  |  avg time  |  max time  |%varavg| %total
---------------------------------------------------------------
Pair    | 272.96     | 273.42     | 273.88     |   2.8 | 35.00
Neigh   | 4.3234     | 4.3235     | 4.3236     |   0.0 |  0.55
Comm    | 21.882     | 21.998     | 22.114     |   2.5 |  2.82
Output  | 0.60413    | 0.60419    | 0.60426    |   0.0 |  0.08
Modify  | 425.68     | 425.88     | 426.07     |   0.9 | 54.52
Other   |            | 54.91      |            |       |  7.03

Nlocal:         2500.5 ave        2501 max        2500 min
Histogram: 1 0 0 0 0 0 0 0 0 1
Nghost:            2.5 ave           3 max           2 min
Histogram: 1 0 0 0 0 0 0 0 0 1
Neighs:         1500.5 ave        1501 max        1500 min
Histogram: 1 0 0 0 0 0 0 0 0 1

Total # of neighbors = 3001
Ave neighs/atom = 0.60007998
Neighbor list builds = 134
Dangerous builds = 0
  using 1 OpenMP thread(s) per MPI task
Lattice spacing in x,y,z = 6 6 6
Created orthogonal box = (-9000 -100 -100) to (9000 100 100)
  2 by 1 by 1 MPI processor grid
Created 3000 atoms
  using lattice units in orthogonal box = (-9000 -100 -100) to (9000 100 100)
  create_atoms CPU = 0.002 seconds
Lattice spacing in x,y,z = 3 3 3
Created 2001 atoms
  using lattice units in orthogonal box = (-9000 -100 -100) to (9000 100 100)
  create_atoms CPU = 0.001 seconds
Setting atom values ...
  3000 settings made for diameter
Setting atom values ...
  3000 settings made for mass
Setting atom values ...
  2001 settings made for diameter
Setting atom values ...
  2001 settings made for mass
3000 atoms in group substrate
2001 atoms in group slider1
  1 rigid bodies with 2001 atoms
Generated 0 of 1 mixed pair_coeff terms from geometric mixing rule
Neighbor list info ...
  update every 1 steps, delay 0 steps, check yes
  max neighbors/atom: 2000, page size: 100000
  master list distance cutoff = 4.9
  ghost atom cutoff = 4.9
  binsize = 2.45, bins = 7347 82 82
  1 neighbor lists, perpetual/occasional/extra = 1 0 0
  (1) pair granular, perpetual
      attributes: half, newton on, size, history
      pair build: half/size/bin/newton
      stencil: half/bin/3d
      bin: standard
Setting up Verlet run ...
  Unit style    : micro
  Current step  : 0
  Time step     : 1e-05
Per MPI rank memory allocation (min/avg/max) = 119.2 | 119.2 | 119.2 Mbytes
   Step           Lx             Ly             Lz           Press           Pxx            Pyy            Pzz           KinEng         PotEng          Temp          c_1[1]         c_1[2]         c_1[3]    
         0   18000          200            200            0              0              0              0              0              0              0              1.1971759e-13  0              6            
    100000   18000          200            200           -0.00045170333 -3.5901851e-35  0             -0.00135511     209930.46      0              1.0136791e+10  1.1971759e-13  0              4.3160095    
    200000   18000          200            200            0.00078479372  5.186227e-41   0              0.0023543812   209859.4       0              1.0133359e+10  1.1971759e-13  0              3.9461803    
    300000   18000          200            200            0.00035909847  5.6601633e-41  0              0.0010772954   57458.757      0              2.7744777e+09  1.1971759e-13  0              3.9073434    
    400000   18000          200            200            0.025631781   -1.0770576e-34  0              0.076895343    2697.6868      0              1.3026164e+08  1.1971759e-13  0              3.8965674    
    500000   18000          200            200            0.010111616    4.134546e-41   0              0.030334848    1610.8779      0              77783528       1.1971759e-13  0              3.8981573    
    600000   18000          200            200            0.0016130844   1.7950984e-35  0              0.0048392531   235.56725      0              11374700       1.1971759e-13  0              3.8994518    
    700000   18000          200            200            0.0028758922  -8.9754752e-36  0              0.0086276766   33.613089      0              1623055.8      1.1971759e-13  0              3.899199     
    800000   18000          200            200            0.0032369083   9.0330705e-42  0              0.009710725    1.0608613      0              51225.197      1.1971759e-13  0              3.899135     
    900000   18000          200            200            0.0036428349   4.4877504e-36  0              0.010928505    1.0015397      0              48360.769      1.1971759e-13  0              3.8990641    
   1000000   18000          200            200            0.0036657356  -1.346322e-35   0              0.010997207    0.00049144262  0              23.730005      1.1971759e-13  0              3.8990599    
   1100000   18000          200            200            0.0036136462  -4.4877391e-36  0              0.010840939    0.017908679    0              864.74602      1.1971759e-13  0              3.8990688    
   1200000   18000          200            200            0.0036051818  -4.4877414e-36  0              0.010815546    0.00012663262  0              6.1146359      1.1971759e-13  0              3.8990703    
   1300000   18000          200            200            0.0036111168  -2.243871e-36   0              0.01083335     0.00026882366  0              12.980532      1.1971759e-13  0              3.8990693    
   1400000   18000          200            200            0.0036128586   2.8048388e-37  0              0.010838576    1.0318756e-05  0              0.49825582     1.1971759e-13  0              3.899069     
   1500000   18000          200            200            0.0036122625   5.6096776e-37  0              0.010836788    3.2953155e-06  0              0.15911899     1.1971759e-13  0              3.8990691    
   1600000   18000          200            200            0.0036119706  -2.8048387e-37  0              0.010835912    3.7699946e-07  0              0.018203954    1.1971759e-13  0              3.8990692    
   1700000   18000          200            200            0.0036120181   1.0166251e-44  0              0.010836054    3.0160695e-08  0              0.001456352    1.1971759e-13  0              3.8990691    
   1800000   18000          200            200            0.0036120615  -3.9267743e-36  0              0.010836185    9.8103612e-09  0              0.00047370723  1.1971759e-13  0              3.8990691    
   1900000   18000          200            200            0.0036120598  -5.6096774e-37  0              0.01083618     1.5264446e-10  0              7.3706549e-06  1.1971759e-13  0              3.8990691    
   2000000   18000          200            200            0.003612054    2.8048389e-37  0              0.010836162    2.0510637e-10  0              9.9038525e-06  1.1971759e-13  0              3.8990691    
   2100000   18000          200            200            0.0036120536  -2.8048387e-37  0              0.010836161    1.1953728e-14  0              5.7720272e-10  1.1971759e-13  0              3.8990691    
   2200000   18000          200            200            0.0036120543  -1.1219355e-36  0              0.010836163    3.5805397e-12  0              1.7289145e-07  1.1971759e-13  0              3.8990691    
   2300000   18000          200            200            0.0036120544   2.243871e-36   0              0.010836163    3.4593865e-14  0              1.6704139e-09  1.1971759e-13  0              3.8990691    
   2400000   18000          200            200            0.0036120543   5.6096777e-37  0              0.010836163    5.2532065e-14  0              2.5365854e-09  1.1971759e-13  0              3.8990691    
   2500000   18000          200            200            0.0036120543   2.8048389e-37  0              0.010836163    2.288261e-15   0              1.1049194e-10  1.1971759e-13  0              3.8990691    
   2600000   18000          200            200            0.0036120543  -5.6096774e-37  0              0.010836163    5.3131659e-16  0              2.5655377e-11  1.1971759e-13  0              3.8990691    
   2700000   18000          200            200            0.0036120543   2.5243549e-36  0              0.010836163    1.3383404e-17  0              6.4623667e-13  1.1971759e-13  0              3.8990691    
   2800000   18000          200            200            0.0036120543  -2.5243549e-36  0              0.010836163    3.652597e-18   0              1.7637084e-13  1.1971759e-13  0              3.8990691    
   2900000   18000          200            200            0.0036120543   2.8048389e-37  0              0.010836163    1.0185608e-18  0              4.9182657e-14  1.1971759e-13  0              3.8990691    
   3000000   18000          200            200            0.0036120543   8.4145164e-37  0              0.010836163    1.4681848e-17  0              7.0893389e-13  1.1971759e-13  0              3.8990691    
Loop time of 776.14 on 2 procs for 3000000 steps with 5001 atoms

Performance: 3339605.255 ns/day, 0.000 hours/ns, 3865.284 timesteps/s
99.9% CPU use with 2 MPI tasks x 1 OpenMP threads

MPI task timing breakdown:
Section |  min time  |  avg time  |  max time  |%varavg| %total
---------------------------------------------------------------
Pair    | 259.15     | 265.43     | 271.71     |  38.5 | 34.20
Neigh   | 4.3879     | 4.3882     | 4.3885     |   0.0 |  0.57
Comm    | 20.218     | 26.727     | 33.236     | 125.9 |  3.44
Output  | 0.6046     | 0.60466    | 0.60472    |   0.0 |  0.08
Modify  | 422.93     | 422.99     | 423.05     |   0.3 | 54.50
Other   |            | 56         |            |       |  7.22

Nlocal:         2500.5 ave        2501 max        2500 min
Histogram: 1 0 0 0 0 0 0 0 0 1
Nghost:            2.5 ave           3 max           2 min
Histogram: 1 0 0 0 0 0 0 0 0 1
Neighs:         1500.5 ave        1501 max        1500 min
Histogram: 1 0 0 0 0 0 0 0 0 1

Total # of neighbors = 3001
Ave neighs/atom = 0.60007998
Neighbor list builds = 136
Dangerous builds = 0
  using 1 OpenMP thread(s) per MPI task
Lattice spacing in x,y,z = 6 6 6
Created orthogonal box = (-9000 -100 -100) to (9000 100 100)
  2 by 1 by 1 MPI processor grid
Created 3000 atoms
  using lattice units in orthogonal box = (-9000 -100 -100) to (9000 100 100)
  create_atoms CPU = 0.002 seconds
Lattice spacing in x,y,z = 3 3 3
Created 2001 atoms
  using lattice units in orthogonal box = (-9000 -100 -100) to (9000 100 100)
  create_atoms CPU = 0.001 seconds
Setting atom values ...
  3000 settings made for diameter
Setting atom values ...
  3000 settings made for mass
Setting atom values ...
  2001 settings made for diameter
Setting atom values ...
  2001 settings made for mass
3000 atoms in group substrate
2001 atoms in group slider1
  1 rigid bodies with 2001 atoms
Generated 0 of 1 mixed pair_coeff terms from geometric mixing rule
Neighbor list info ...
  update every 1 steps, delay 0 steps, check yes
  max neighbors/atom: 2000, page size: 100000
  master list distance cutoff = 4.91
  ghost atom cutoff = 4.91
  binsize = 2.455, bins = 7332 82 82
  1 neighbor lists, perpetual/occasional/extra = 1 0 0
  (1) pair granular, perpetual
      attributes: half, newton on, size, history
      pair build: half/size/bin/newton
      stencil: half/bin/3d
      bin: standard
Setting up Verlet run ...
  Unit style    : micro
  Current step  : 0
  Time step     : 1e-05
Per MPI rank memory allocation (min/avg/max) = 118.9 | 118.9 | 118.9 Mbytes
   Step           Lx             Ly             Lz           Press           Pxx            Pyy            Pzz           KinEng         PotEng          Temp          c_1[1]         c_1[2]         c_1[3]    
         0   18000          200            200            0              0              0              0              0              0              0              1.1971759e-13  0              6            
    100000   18000          200            200           -0.00044894779  2.6926461e-34  0             -0.0013468434   203850.52      0              9.8432121e+09  1.1971759e-13  0              4.323048     
    200000   18000          200            200            0.000799071   -1.795091e-35   0              0.002397213    215922.38      0              1.0426119e+10  1.1971759e-13  0              3.9474544    
    300000   18000          200            200            0.00037387574 -3.7697027e-34  0              0.0011216272   61567.514      0              2.9728749e+09  1.1971759e-13  0              3.9100845    
    400000   18000          200            200            0.02781166     1.7951026e-35  0              0.08343498     174.12526      0              8407885.8      1.1971759e-13  0              3.9013713    
    500000   18000          200            200            0.012684756    7.1803915e-35  0              0.038054267    303.92536      0              14675468       1.1971759e-13  0              3.9028539    
    600000   18000          200            200            0.0010750483   3.5901954e-35  0              0.003225145    70.774226      0              3417434.1      1.1971759e-13  0              3.9045828    
    700000   18000          200            200            0.0026084238   5.3852913e-35  0              0.0078252715   8.6694435      0              418616.4       1.1971759e-13  0              3.9042509    
    800000   18000          200            200            0.0033554682   9.0506271e-42  0              0.010066405    4.5905904      0              221663.18      1.1971759e-13  0              3.9041152    
    900000   18000          200            200            0.0037165102  -8.9754757e-36  0              0.011149531    0.57526735     0              27777.601      1.1971759e-13  0              3.9040525    
   1000000   18000          200            200            0.0036603592  -1.346322e-35   0              0.010981078    0.045916622    0              2217.1493      1.1971759e-13  0              3.9040619    
   1100000   18000          200            200            0.0036072626  -1.3463223e-35  0              0.010821788    0.013825843    0              667.60049      1.1971759e-13  0              3.904071     
   1200000   18000          200            200            0.0036101604   4.4877427e-36  0              0.010830481    0.00033256656  0              16.058449      1.1971759e-13  0              3.9040705    
   1300000   18000          200            200            0.0036173764   1.6829033e-36  0              0.010852129    0.00028858559  0              13.934765      1.1971759e-13  0              3.9040693    
   1400000   18000          200            200            0.0036176022   5.6096776e-37  0              0.010852807    9.4516366e-07  0              0.04563857     1.1971759e-13  0              3.9040692    
   1500000   18000          200            200            0.0036166726   9.8146375e-45  0              0.010850018    5.354607e-06   0              0.25855481     1.1971759e-13  0              3.9040694    
   1600000   18000          200            200            0.003616565   -1.6829033e-36  0              0.010849695    4.3994931e-09  0              0.00021243578  1.1971759e-13  0              3.9040694    
   1700000   18000          200            200            0.0036166781   1.0512563e-44  0              0.010850034    8.9124935e-08  0              0.0043035242   1.1971759e-13  0              3.9040694    
   1800000   18000          200            200            0.0036167018  -1.4024194e-36  0              0.010850105    1.1395556e-09  0              5.502506e-05   1.1971759e-13  0              3.9040694    
   1900000   18000          200            200            0.0036166889   3.0853227e-36  0              0.010850067    1.3251037e-09  0              6.3984515e-05  1.1971759e-13  0              3.9040694    
   2000000   18000          200            200            0.0036166847  -5.6096774e-37  0              0.010850054    5.6105088e-11  0              2.7091139e-06  1.1971759e-13  0              3.9040694    
   2100000   18000          200            200            0.003616686   -8.4145162e-37  0              0.010850058    1.7274947e-11  0              8.3414539e-07  1.1971759e-13  0              3.9040694    
   2200000   18000          200            200            0.0036166867   2.8048389e-37  0              0.01085006     1.7780142e-12  0              8.5853943e-08  1.1971759e-13  0              3.9040694    
   2300000   18000          200            200            0.0036166866  -5.6096774e-37  0              0.01085006     1.8766568e-13  0              9.0617043e-09  1.1971759e-13  0              3.9040694    
   2400000   18000          200            200            0.0036166865   2.8048389e-37  0              0.010850059    4.5076788e-14  0              2.1765968e-09  1.1971759e-13  0              3.9040694    
   2500000   18000          200            200            0.0036166865  -1.4024194e-36  0              0.010850059    1.6147732e-15  0              7.7971621e-11  1.1971759e-13  0              3.9040694    
   2600000   18000          200            200            0.0036166865  -2.8048387e-37  0              0.01085006     1.0301711e-15  0              4.9743276e-11  1.1971759e-13  0              3.9040694    
   2700000   18000          200            200            0.0036166865  -2.243871e-36   0              0.01085006     1.3914748e-16  0              6.718934e-12   1.1971759e-13  0              3.9040694    
   2800000   18000          200            200            0.0036166865   3.1414194e-35  0              0.01085006     2.0352807e-17  0              9.8276421e-13  1.1971759e-13  0              3.9040694    
   2900000   18000          200            200            0.0036166865   1.6829033e-36  0              0.01085006     5.1127163e-19  0              2.4687477e-14  1.1971759e-13  0              3.9040694    
   3000000   18000          200            200            0.0036166865   8.893959e-45   0              0.01085006     1.2257165e-17  0              5.9185463e-13  1.1971759e-13  0              3.9040694    
Loop time of 778.812 on 2 procs for 3000000 steps with 5001 atoms

Performance: 3328146.012 ns/day, 0.000 hours/ns, 3852.021 timesteps/s
100.0% CPU use with 2 MPI tasks x 1 OpenMP threads

MPI task timing breakdown:
Section |  min time  |  avg time  |  max time  |%varavg| %total
---------------------------------------------------------------
Pair    | 266.81     | 269.34     | 271.87     |  15.4 | 34.58
Neigh   | 4.5103     | 4.5107     | 4.5112     |   0.0 |  0.58
Comm    | 20.326     | 22.943     | 25.56      |  54.6 |  2.95
Output  | 0.60452    | 0.60459    | 0.60466    |   0.0 |  0.08
Modify  | 426.06     | 426.24     | 426.42     |   0.9 | 54.73
Other   |            | 55.17      |            |       |  7.08

Nlocal:         2500.5 ave        2501 max        2500 min
Histogram: 1 0 0 0 0 0 0 0 0 1
Nghost:            2.5 ave           3 max           2 min
Histogram: 1 0 0 0 0 0 0 0 0 1
Neighs:         1500.5 ave        1501 max        1500 min
Histogram: 1 0 0 0 0 0 0 0 0 1

Total # of neighbors = 3001
Ave neighs/atom = 0.60007998
Neighbor list builds = 140
Dangerous builds = 0
  using 1 OpenMP thread(s) per MPI task
Lattice spacing in x,y,z = 6 6 6
Created orthogonal box = (-9000 -100 -100) to (9000 100 100)
  2 by 1 by 1 MPI processor grid
Created 3000 atoms
  using lattice units in orthogonal box = (-9000 -100 -100) to (9000 100 100)
  create_atoms CPU = 0.002 seconds
Lattice spacing in x,y,z = 3 3 3
Created 2001 atoms
  using lattice units in orthogonal box = (-9000 -100 -100) to (9000 100 100)
  create_atoms CPU = 0.002 seconds
Setting atom values ...
  3000 settings made for diameter
Setting atom values ...
  3000 settings made for mass
Setting atom values ...
  2001 settings made for diameter
Setting atom values ...
  2001 settings made for mass
3000 atoms in group substrate
2001 atoms in group slider1
  1 rigid bodies with 2001 atoms
Generated 0 of 1 mixed pair_coeff terms from geometric mixing rule
Neighbor list info ...
  update every 1 steps, delay 0 steps, check yes
  max neighbors/atom: 2000, page size: 100000
  master list distance cutoff = 4.92
  ghost atom cutoff = 4.92
  binsize = 2.46, bins = 7318 82 82
  1 neighbor lists, perpetual/occasional/extra = 1 0 0
  (1) pair granular, perpetual
      attributes: half, newton on, size, history
      pair build: half/size/bin/newton
      stencil: half/bin/3d
      bin: standard
Setting up Verlet run ...
  Unit style    : micro
  Current step  : 0
  Time step     : 1e-05
Per MPI rank memory allocation (min/avg/max) = 118.7 | 118.7 | 118.7 Mbytes
   Step           Lx             Ly             Lz           Press           Pxx            Pyy            Pzz           KinEng         PotEng          Temp          c_1[1]         c_1[2]         c_1[3]    
         0   18000          200            200            0              0              0              0              0              0              0              1.1971759e-13  0              6            
    100000   18000          200            200           -0.00044607606  1.7951007e-35  0             -0.0013382282   197863.65      0              9.5541277e+09  1.1971759e-13  0              4.3300506    
    200000   18000          200            200            0.00081340943  3.5901981e-35  0              0.0024402283   222065.02      0              1.0722725e+10  1.1971759e-13  0              3.9486705    
    300000   18000          200            200            0.00038877174  1.2565684e-34  0              0.0011663152   65812.045      0              3.1778281e+09  1.1971759e-13  0              3.9127437    
    400000   18000          200            200            0.022798815   -3.5901872e-35  0              0.068396446    5516.8872      0              2.6639074e+08  1.1971759e-13  0              3.9068181    
    500000   18000          200            200            0.01303407     1.7951014e-35  0              0.03910221     92.640737      0              4473289.6      1.1971759e-13  0              3.9078131    
    600000   18000          200            200            0.00090216584  8.9755011e-36  0              0.0027064975   0.16061519     0              7755.5328      1.1971759e-13  0              3.9096315    
    700000   18000          200            200            0.0025396735  -1.7950958e-35  0              0.0076190206   0.22244646     0              10741.144      1.1971759e-13  0              3.9092657    
    800000   18000          200            200            0.0035378389  -7.1803864e-35  0              0.010613517    7.5442509      0              364284.88      1.1971759e-13  0              3.9090846    
    900000   18000          200            200            0.0037631349   1.3463234e-35  0              0.011289405    0.095765331    0              4624.1651      1.1971759e-13  0              3.9090456    
   1000000   18000          200            200            0.0036417365  -1.346322e-35   0              0.010925209    0.11614255     0              5608.1082      1.1971759e-13  0              3.9090661    
   1100000   18000          200            200            0.003604051   -8.9754811e-36  0              0.010812153    0.0038464782   0              185.73267      1.1971759e-13  0              3.9090726    
   1200000   18000          200            200            0.0036175518  -6.7316124e-36  0              0.010852656    0.0016723414   0              80.751379      1.1971759e-13  0              3.9090703    
   1300000   18000          200            200            0.0036233551  -1.4024194e-36  0              0.010870065    0.00011437171  0              5.5226006      1.1971759e-13  0              3.9090693    
   1400000   18000          200            200            0.00362194    -5.6096775e-37  0              0.01086582     2.2196227e-05  0              1.0717763      1.1971759e-13  0              3.9090695    
   1500000   18000          200            200            0.0036210896  -2.243871e-36   0              0.010863269    2.8821558e-06  0              0.13916899     1.1971759e-13  0              3.9090697    
   1600000   18000          200            200            0.0036212228  -5.6096774e-37  0              0.010863668    2.6396951e-07  0              0.012746143    1.1971759e-13  0              3.9090697    
   1700000   18000          200            200            0.0036213428  -5.6096774e-37  0              0.010864028    6.5019893e-08  0              0.0031395779   1.1971759e-13  0              3.9090696    
   1800000   18000          200            200            0.0036213328   1.6829033e-36  0              0.010863998    2.6724937e-09  0              0.00012904516  1.1971759e-13  0              3.9090696    
   1900000   18000          200            200            0.0036213164  -2.8048387e-37  0              0.010863949    1.3481297e-09  0              6.5096359e-05  1.1971759e-13  0              3.9090696    
   2000000   18000          200            200            0.0036213167   1.6829033e-36  0              0.01086395     2.039066e-11   0              9.8459199e-07  1.1971759e-13  0              3.9090696    
   2100000   18000          200            200            0.0036213189  -5.6096774e-37  0              0.010863957    2.6061365e-11  0              1.2584101e-06  1.1971759e-13  0              3.9090696    
   2200000   18000          200            200            0.0036213189   8.4145164e-37  0              0.010863957    7.6842018e-14  0              3.710426e-09   1.1971759e-13  0              3.9090696    
[...]
   2900000   18000          200            200            0.0040335793   1.4024194e-36  0              0.012100738    1.0609459e-18  0              5.122928e-14   1.1971759e-13  0              4.3540886    
   3000000   18000          200            200            0.0040335793  -2.8048387e-37  0              0.012100738    9.0288579e-19  0              4.3597123e-14  1.1971759e-13  0              4.3540886    
Loop time of 731.008 on 2 procs for 3000000 steps with 5001 atoms

Performance: 3545787.924 ns/day, 0.000 hours/ns, 4103.921 timesteps/s
100.0% CPU use with 2 MPI tasks x 1 OpenMP threads

MPI task timing breakdown:
Section |  min time  |  avg time  |  max time  |%varavg| %total
---------------------------------------------------------------
Pair    | 234.58     | 235.03     | 235.48     |   2.9 | 32.15
Neigh   | 2.3434     | 2.3438     | 2.3443     |   0.0 |  0.32
Comm    | 16.748     | 17.245     | 17.743     |  12.0 |  2.36
Output  | 0.63323    | 0.63324    | 0.63326    |   0.0 |  0.09
Modify  | 423.54     | 423.66     | 423.79     |   0.6 | 57.96
Other   |            | 52.09      |            |       |  7.13

Nlocal:         2500.5 ave        2501 max        2500 min
Histogram: 1 0 0 0 0 0 0 0 0 1
Nghost:            2.5 ave           3 max           2 min
Histogram: 1 0 0 0 0 0 0 0 0 1
Neighs:         1500.5 ave        1501 max        1500 min
Histogram: 1 0 0 0 0 0 0 0 0 1

Total # of neighbors = 3001
Ave neighs/atom = 0.60007998
Neighbor list builds = 119
Dangerous builds = 0
  using 1 OpenMP thread(s) per MPI task
Lattice spacing in x,y,z = 6 6 6
Created orthogonal box = (-9000 -100 -100) to (9000 100 100)
  2 by 1 by 1 MPI processor grid
Created 3000 atoms
  using lattice units in orthogonal box = (-9000 -100 -100) to (9000 100 100)
  create_atoms CPU = 0.002 seconds
Lattice spacing in x,y,z = 3 3 3
Created 2001 atoms
  using lattice units in orthogonal box = (-9000 -100 -100) to (9000 100 100)
  create_atoms CPU = 0.001 seconds
Setting atom values ...
  3000 settings made for diameter
Setting atom values ...
  3000 settings made for mass
Setting atom values ...
  2001 settings made for diameter
Setting atom values ...
  2001 settings made for mass
3000 atoms in group substrate
2001 atoms in group slider1
  1 rigid bodies with 2001 atoms
Generated 0 of 1 mixed pair_coeff terms from geometric mixing rule
Neighbor list info ...
  update every 1 steps, delay 0 steps, check yes
  max neighbors/atom: 2000, page size: 100000
  master list distance cutoff = 5.82
  ghost atom cutoff = 5.82
  binsize = 2.91, bins = 6186 69 69
  1 neighbor lists, perpetual/occasional/extra = 1 0 0
  (1) pair granular, perpetual
      attributes: half, newton on, size, history
      pair build: half/size/bin/newton
      stencil: half/bin/3d
      bin: standard
Setting up Verlet run ...
  Unit style    : micro
  Current step  : 0
  Time step     : 1e-05
Per MPI rank memory allocation (min/avg/max) = 77.65 | 77.65 | 77.65 Mbytes
   Step           Lx             Ly             Lz           Press           Pxx            Pyy            Pzz           KinEng         PotEng          Temp          c_1[1]         c_1[2]         c_1[3]    
         0   18000          200            200            0              0              0              0              0              0              0              1.1971759e-13  0              6            
    100000   18000          200            200            0.0002421313   3.1774009e-41  0              0.00072639389  20291.797      0              9.7981828e+08  1.1971759e-13  0              4.8013999    
    200000   18000          200            200            0.00030540754  5.2858891e-41  0              0.00091622262  35125.51       0              1.6960852e+09  1.1971759e-13  0              4.4584259    
    300000   18000          200            200            7.7133881e-05 -1.7950962e-34  0              0.00023140164  2718.2492      0              1.3125452e+08  1.1971759e-13  0              4.3858079    
    400000   18000          200            200           -8.8828447e-05 -7.1803813e-35  0             -0.00026648534  4225.8348      0              2.0405044e+08  1.1971759e-13  0              4.363371     
    500000   18000          200            200            1.316254e-05   1.7951009e-35  0              3.9487619e-05  85.404523      0              4123878.8      1.1971759e-13  0              4.3605351    
    600000   18000          200            200            0.0018907247   1.2565679e-34  0              0.005672174    114.12772      0              5510819.3      1.1971759e-13  0              4.3594476    
    700000   18000          200            200            0.0046294861  -6.2828378e-35  0              0.013888458    28.818367      0              1391535.8      1.1971759e-13  0              4.3590029    
    800000   18000          200            200            0.0036850546   4.4877429e-35  0              0.011055164    0.69860876     0              33733.317      1.1971759e-13  0              4.3591425    
    900000   18000          200            200            0.0041691763   7.9366684e-42  0              0.012507529    0.075889199    0              3664.4178      1.1971759e-13  0              4.3590691    
   1000000   18000          200            200            0.0040133272   4.4877478e-36  0              0.012039982    0.070134115    0              3386.5254      1.1971759e-13  0              4.3590926    
   1100000   18000          200            200            0.0040346087  -4.4877397e-36  0              0.012103826    0.011831191    0              571.28586      1.1971759e-13  0              4.3590893    
   1200000   18000          200            200            0.0040434381  -6.7316126e-36  0              0.012130314    0.00060338025  0              29.135073      1.1971759e-13  0              4.359088     
   1300000   18000          200            200            0.0040358316  -1.4024193e-37  0              0.012107495    7.8371197e-07  0              0.037842646    1.1971759e-13  0              4.3590891    
   1400000   18000          200            200            0.0040388236  -5.6096775e-37  0              0.012116471    1.3755337e-05  0              0.66419599     1.1971759e-13  0              4.3590887    
   1500000   18000          200            200            0.0040381899  -2.8048387e-37  0              0.01211457     3.6384673e-06  0              0.17568857     1.1971759e-13  0              4.3590887    
   1600000   18000          200            200            0.0040381427   5.6096777e-37  0              0.012114428    3.066456e-07   0              0.014806819    1.1971759e-13  0              4.3590888    
   1700000   18000          200            200            0.0040382517   3.3658065e-36  0              0.012114755    2.6672006e-09  0              0.00012878957  1.1971759e-13  0              4.3590887    
   1800000   18000          200            200            0.0040381984   1.9633872e-36  0              0.012114595    1.9846113e-09  0              9.5829777e-05  1.1971759e-13  0              4.3590887    
   1900000   18000          200            200            0.0040382132   1.0416788e-44  0              0.012114639    9.6655294e-10  0              4.6671382e-05  1.1971759e-13  0              4.3590887    
   2000000   18000          200            200            0.0040382121   1.4024194e-36  0              0.012114636    1.2353095e-10  0              5.9648677e-06  1.1971759e-13  0              4.3590887    
   2100000   18000          200            200            0.0040382107  -5.6096774e-37  0              0.012114632    3.9242076e-12  0              1.8948594e-07  1.1971759e-13  0              4.3590887    
   2200000   18000          200            200            0.0040382116   1.0394561e-44  0              0.012114635    1.4356019e-13  0              6.9320078e-09  1.1971759e-13  0              4.3590887    
   2300000   18000          200            200            0.0040382113  -1.6829033e-36  0              0.012114634    2.1615439e-13  0              1.0437322e-08  1.1971759e-13  0              4.3590887    
   2400000   18000          200            200            0.0040382114  -2.8048387e-37  0              0.012114634    4.1895346e-14  0              2.0229763e-09  1.1971759e-13  0              4.3590887    
   2500000   18000          200            200            0.0040382114   1.6829033e-36  0              0.012114634    2.2765951e-15  0              1.0992863e-10  1.1971759e-13  0              4.3590887    
   2600000   18000          200            200            0.0040382114   1.0168284e-44  0              0.012114634    2.6491596e-16  0              1.2791844e-11  1.1971759e-13  0              4.3590887    
   2700000   18000          200            200            0.0040382114  -5.6096774e-37  0              0.012114634    1.5136153e-20  0              7.3087068e-16  1.1971759e-13  0              4.3590887    
   2800000   18000          200            200            0.0040382114   1.1392078e-44  0              0.012114634    7.0307177e-19  0              3.394882e-14   1.1971759e-13  0              4.3590887    
   2900000   18000          200            200            0.0040382114  -5.6096774e-37  0              0.012114634    5.565449e-17   0              2.6873561e-12  1.1971759e-13  0              4.3590887    
   3000000   18000          200            200            0.0040382114  -2.8048388e-36  0              0.012114634    2.8686794e-17  0              1.3851826e-12  1.1971759e-13  0              4.3590887    
Loop time of 725.508 on 2 procs for 3000000 steps with 5001 atoms

Performance: 3572671.050 ns/day, 0.000 hours/ns, 4135.036 timesteps/s
100.0% CPU use with 2 MPI tasks x 1 OpenMP threads

MPI task timing breakdown:
Section |  min time  |  avg time  |  max time  |%varavg| %total
---------------------------------------------------------------
Pair    | 231.78     | 232.78     | 233.78     |   6.6 | 32.09
Neigh   | 2.165      | 2.165      | 2.1651     |   0.0 |  0.30
Comm    | 15.867     | 17.062     | 18.258     |  28.9 |  2.35
Output  | 0.6165     | 0.61651    | 0.61652    |   0.0 |  0.08
Modify  | 421.15     | 421.22     | 421.3      |   0.4 | 58.06
Other   |            | 51.66      |            |       |  7.12

Nlocal:         2500.5 ave        2501 max        2500 min
Histogram: 1 0 0 0 0 0 0 0 0 1
Nghost:            2.5 ave           3 max           2 min
Histogram: 1 0 0 0 0 0 0 0 0 1
Neighs:         1500.5 ave        1501 max        1500 min
Histogram: 1 0 0 0 0 0 0 0 0 1

Total # of neighbors = 3001
Ave neighs/atom = 0.60007998
Neighbor list builds = 110
Dangerous builds = 0
  using 1 OpenMP thread(s) per MPI task
Lattice spacing in x,y,z = 6 6 6
Created orthogonal box = (-9000 -100 -100) to (9000 100 100)
  2 by 1 by 1 MPI processor grid
Created 3000 atoms
  using lattice units in orthogonal box = (-9000 -100 -100) to (9000 100 100)
  create_atoms CPU = 0.001 seconds
Lattice spacing in x,y,z = 3 3 3
Created 2001 atoms
  using lattice units in orthogonal box = (-9000 -100 -100) to (9000 100 100)
  create_atoms CPU = 0.001 seconds
Setting atom values ...
  3000 settings made for diameter
Setting atom values ...
  3000 settings made for mass
Setting atom values ...
  2001 settings made for diameter
Setting atom values ...
  2001 settings made for mass
3000 atoms in group substrate
2001 atoms in group slider1
  1 rigid bodies with 2001 atoms
Generated 0 of 1 mixed pair_coeff terms from geometric mixing rule
Neighbor list info ...
  update every 1 steps, delay 0 steps, check yes
  max neighbors/atom: 2000, page size: 100000
  master list distance cutoff = 5.83
  ghost atom cutoff = 5.83
  binsize = 2.915, bins = 6175 69 69
  1 neighbor lists, perpetual/occasional/extra = 1 0 0
  (1) pair granular, perpetual
      attributes: half, newton on, size, history
      pair build: half/size/bin/newton
      stencil: half/bin/3d
      bin: standard
Setting up Verlet run ...
  Unit style    : micro
  Current step  : 0
  Time step     : 1e-05
Per MPI rank memory allocation (min/avg/max) = 77.55 | 77.55 | 77.55 Mbytes
   Step           Lx             Ly             Lz           Press           Pxx            Pyy            Pzz           KinEng         PotEng          Temp          c_1[1]         c_1[2]         c_1[3]    
         0   18000          200            200            0              0              0              0              0              0              0              1.1971759e-13  0              6            
    100000   18000          200            200            0.00025402381  1.8272664e-41  0              0.00076207142  22150.784      0              1.0695821e+09  1.1971759e-13  0              4.8047101    
    200000   18000          200            200            0.00032242765 -1.7950899e-35  0              0.00096728294  38692.58       0              1.8683262e+09  1.1971759e-13  0              4.4614171    
    300000   18000          200            200            9.4764753e-05 -3.5901867e-35  0              0.00028429426  4035.88        0              1.948782e+08   1.1971759e-13  0              4.3901239    
    400000   18000          200            200           -7.2152933e-05 -1.7950912e-35  0             -0.0002164588   2731.9986      0              1.3191843e+08  1.1971759e-13  0              4.3691012    
    500000   18000          200            200            3.1927721e-05 -1.7950929e-35  0              9.5783162e-05  489.63911      0              23642920       1.1971759e-13  0              4.3653319    
    600000   18000          200            200            0.0014517164  -8.9754711e-36  0              0.0043551491   6.9455736      0              335376.89      1.1971759e-13  0              4.3645389    
    700000   18000          200            200            0.0050336042   3.5901946e-35  0              0.015100813    6.4927857      0              313513.39      1.1971759e-13  0              4.3639461    
    800000   18000          200            200            0.0036750258  -1.7950959e-35  0              0.011025077    0.25262164     0              12198.195      1.1971759e-13  0              4.3641452    
    900000   18000          200            200            0.004123037   -8.9754762e-36  0              0.012369111    0.46832147     0              22613.568      1.1971759e-13  0              4.3640768    
   1000000   18000          200            200            0.0040486863   5.8392216e-42  0              0.012146059    0.091992948    0              4442.0102      1.1971759e-13  0              4.3640881    
   1100000   18000          200            200            0.0040291037   1.3463228e-35  0              0.012087311    0.0052638818   0              254.17401      1.1971759e-13  0              4.364091     
   1200000   18000          200            200            0.0040494154  -2.2438706e-36  0              0.012148246    1.0636825e-06  0              0.051361421    1.1971759e-13  0              4.3640879    
   1300000   18000          200            200            0.0040411358   2.8048389e-37  0              0.012123408    0.00010167693  0              4.9096151      1.1971759e-13  0              4.3640892    
   1400000   18000          200            200            0.0040428933  -2.8048387e-37  0              0.01212868     2.7613291e-05  0              1.333347       1.1971759e-13  0              4.3640889    
   1500000   18000          200            200            0.0040430411  -5.6096774e-37  0              0.012129123    2.2038032e-06  0              0.10641377     1.1971759e-13  0              4.3640889    
   1600000   18000          200            200            0.0040427313  -1.4024194e-36  0              0.012128194    1.0687485e-08  0              0.00051606042  1.1971759e-13  0              4.3640889    
   1700000   18000          200            200            0.0040428775  -5.6096774e-37  0              0.012128633    1.9517897e-08  0              0.0009424494   1.1971759e-13  0              4.3640889    
   1800000   18000          200            200            0.00404284    -2.8048387e-37  0              0.01212852     7.7891191e-09  0              0.00037610869  1.1971759e-13  0              4.3640889    
   1900000   18000          200            200            0.0040428409   5.6096777e-37  0              0.012128523    8.3106906e-10  0              4.0129351e-05  1.1971759e-13  0              4.3640889    
   2000000   18000          200            200            0.0040428453   5.6096777e-37  0              0.012128536    1.4587815e-11  0              7.0439338e-07  1.1971759e-13  0              4.3640889    
   2100000   18000          200            200            0.0040428428   2.8048389e-37  0              0.012128529    3.0366332e-12  0              1.4662815e-07  1.1971759e-13  0              4.3640889    
   2200000   18000          200            200            0.0040428436  -8.4145162e-37  0              0.012128531    2.0553554e-12  0              9.9245755e-08  1.1971759e-13  0              4.3640889    
   2300000   18000          200            200            0.0040428435  -3.6462904e-36  0              0.012128531    2.8872948e-13  0              1.3941713e-08  1.1971759e-13  0              4.3640889    
   2400000   18000          200            200            0.0040428435  -1.1219355e-36  0              0.01212853     9.958003e-15   0              4.8083633e-10  1.1971759e-13  0              4.3640889    
   2500000   18000          200            200            0.0040428435   2.8048389e-37  0              0.012128531    4.2225187e-16  0              2.0389032e-11  1.1971759e-13  0              4.3640889    
   2600000   18000          200            200            0.0040428435   8.4145164e-37  0              0.01212853     7.1105958e-16  0              3.4334522e-11  1.1971759e-13  0              4.3640889    
   2700000   18000          200            200            0.0040428435  -1.6829033e-36  0              0.01212853     4.5943155e-17  0              2.2184305e-12  1.1971759e-13  0              4.3640889    
   2800000   18000          200            200            0.0040428435   8.4145164e-37  0              0.01212853     2.6075628e-17  0              1.2590988e-12  1.1971759e-13  0              4.3640889    
   2900000   18000          200            200            0.0040428435   2.8048389e-37  0              0.01212853     6.0377323e-19  0              2.9154048e-14  1.1971759e-13  0              4.3640889    
   3000000   18000          200            200            0.0040428435  -2.8048387e-37  0              0.01212853     7.4999871e-21  0              3.6214754e-16  1.1971759e-13  0              4.3640889    
Loop time of 725.072 on 2 procs for 3000000 steps with 5001 atoms

Performance: 3574818.555 ns/day, 0.000 hours/ns, 4137.521 timesteps/s
100.0% CPU use with 2 MPI tasks x 1 OpenMP threads

MPI task timing breakdown:
Section |  min time  |  avg time  |  max time  |%varavg| %total
---------------------------------------------------------------
Pair    | 228.79     | 230.15     | 231.5      |   8.9 | 31.74
Neigh   | 2.03       | 2.0308     | 2.0316     |   0.1 |  0.28
Comm    | 16.019     | 17.115     | 18.211     |  26.5 |  2.36
Output  | 0.60973    | 0.60974    | 0.60976    |   0.0 |  0.08
Modify  | 422.17     | 422.21     | 422.24     |   0.2 | 58.23
Other   |            | 52.96      |            |       |  7.30

Nlocal:         2500.5 ave        2501 max        2500 min
Histogram: 1 0 0 0 0 0 0 0 0 1
Nghost:            2.5 ave           3 max           2 min
Histogram: 1 0 0 0 0 0 0 0 0 1
Neighs:         1500.5 ave        1501 max        1500 min
Histogram: 1 0 0 0 0 0 0 0 0 1

Total # of neighbors = 3001
Ave neighs/atom = 0.60007998
Neighbor list builds = 104
Dangerous builds = 0
  using 1 OpenMP thread(s) per MPI task
Total wall time: 20:25:39
