ITEM: TIMESTEP
700000
ITEM: NUMBER OF ATOMS
2501
ITEM: BOX BOUNDS pp pp pp
-3.5550000000000000e+03 3.5550000000000000e+03
-1.0000000000000000e+02 1.0000000000000000e+02
-1.0000000000000000e+02 1.0000000000000000e+02
ITEM: ATOMS id type diameter mass xu yu zu fx fy fz
1 1 3 31.1018 -3555 0 0 0 0 0
2 1 3 31.1018 -3550.26 0 0 0 0 0
3 1 3 31.1018 -3545.52 0 0 0 0 0
4 1 3 31.1018 -3540.78 0 0 0 0 0
5 1 3 31.1018 -3536.04 0 0 0 0 0
6 1 3 31.1018 -3531.3 0 0 0 0 0
7 1 3 31.1018 -3526.56 0 0 0 0 0
8 1 3 31.1018 -3521.82 0 0 0 0 0
9 1 3 31.1018 -3517.08 0 0 0 0 0
10 1 3 31.1018 -3512.34 0 0 0 0 0
11 1 3 31.1018 -3507.6 0 0 0 0 0
12 1 3 31.1018 -3502.86 0 0 0 0 0
13 1 3 31.1018 -3498.12 0 0 0 0 0
14 1 3 31.1018 -3493.38 0 0 0 0 0
15 1 3 31.1018 -3488.64 0 0 0 0 0
16 1 3 31.1018 -3483.9 0 0 0 0 0
17 1 3 31.1018 -3479.16 0 0 0 0 0
18 1 3 31.1018 -3474.42 0 0 0 0 0
19 1 3 31.1018 -3469.68 0 0 0 0 0
20 1 3 31.1018 -3464.94 0 0 0 0 0
21 1 3 31.1018 -3460.2 0 0 0 0 0
22 1 3 31.1018 -3455.46 0 0 0 0 0
23 1 3 31.1018 -3450.72 0 0 0 0 0
24 1 3 31.1018 -3445.98 0 0 0 0 0
25 1 3 31.1018 -3441.24 0 0 0 0 0
26 1 3 31.1018 -3436.5 0 0 0 0 0
27 1 3 31.1018 -3431.76 0 0 0 0 0
28 1 3 31.1018 -3427.02 0 0 0 0 0
29 1 3 31.1018 -3422.28 0 0 0 0 0
30 1 3 31.1018 -3417.54 0 0 0 0 0
31 1 3 31.1018 -3412.8 0 0 0 0 0
32 1 3 31.1018 -3408.06 0 0 0 0 0
33 1 3 31.1018 -3403.32 0 0 0 0 0
34 1 3 31.1018 -3398.58 0 0 0 0 0
35 1 3 31.1018 -3393.84 0 0 0 0 0
36 1 3 31.1018 -3389.1 0 0 0 0 0
37 1 3 31.1018 -3384.36 0 0 0 0 0
38 1 3 31.1018 -3379.62 0 0 0 0 0
39 1 3 31.1018 -3374.88 0 0 0 0 0
40 1 3 31.1018 -3370.14 0 0 0 0 0
41 1 3 31.1018 -3365.4 0 0 0 0 0
42 1 3 31.1018 -3360.66 0 0 0 0 0
43 1 3 31.1018 -3355.92 0 0 0 0 0
44 1 3 31.1018 -3351.18 0 0 0 0 0
45 1 3 31.1018 -3346.44 0 0 0 0 0
46 1 3 31.1018 -3341.7 0 0 0 0 0
47 1 3 31.1018 -3336.96 0 0 0 0 0
48 1 3 31.1018 -3332.22 0 0 0 0 0
49 1 3 31.1018 -3327.48 0 0 0 0 0
50 1 3 31.1018 -3322.74 0 0 0 0 0
51 1 3 31.1018 -3318 0 0 0 0 0
52 1 3 31.1018 -3313.26 0 0 0 0 0
53 1 3 31.1018 -3308.52 0 0 0 0 0
54 1 3 31.1018 -3303.78 0 0 0 0 0
55 1 3 31.1018 -3299.04 0 0 0 0 0
56 1 3 31.1018 -3294.3 0 0 0 0 0
57 1 3 31.1018 -3289.56 0 0 0 0 0
58 1 3 31.1018 -3284.82 0 0 0 0 0
59 1 3 31.1018 -3280.08 0 0 0 0 0
60 1 3 31.1018 -3275.34 0 0 0 0 0
61 1 3 31.1018 -3270.6 0 0 0 0 0
62 1 3 31.1018 -3265.86 0 0 0 0 0
63 1 3 31.1018 -3261.12 0 0 0 0 0
64 1 3 31.1018 -3256.38 0 0 0 0 0
65 1 3 31.1018 -3251.64 0 0 0 0 0
66 1 3 31.1018 -3246.9 0 0 0 0 0
67 1 3 31.1018 -3242.16 0 0 0 0 0
68 1 3 31.1018 -3237.42 0 0 0 0 0
69 1 3 31.1018 -3232.68 0 0 0 0 0
70 1 3 31.1018 -3227.94 0 0 0 0 0
71 1 3 31.1018 -3223.2 0 0 0 0 0
72 1 3 31.1018 -3218.46 0 0 0 0 0
73 1 3 31.1018 -3213.72 0 0 0 0 0
74 1 3 31.1018 -3208.98 0 0 0 0 0
75 1 3 31.1018 -3204.24 0 0 0 0 0
76 1 3 31.1018 -3199.5 0 0 0 0 0
77 1 3 31.1018 -3194.76 0 0 0 0 0
78 1 3 31.1018 -3190.02 0 0 0 0 0
79 1 3 31.1018 -3185.28 0 0 0 0 0
80 1 3 31.1018 -3180.54 0 0 0 0 0
81 1 3 31.1018 -3175.8 0 0 0 0 0
82 1 3 31.1018 -3171.06 0 0 0 0 0
83 1 3 31.1018 -3166.32 0 0 0 0 0
84 1 3 31.1018 -3161.58 0 0 0 0 0
85 1 3 31.1018 -3156.84 0 0 0 0 0
86 1 3 31.1018 -3152.1 0 0 0 0 0
87 1 3 31.1018 -3147.36 0 0 0 0 0
88 1 3 31.1018 -3142.62 0 0 0 0 0
89 1 3 31.1018 -3137.88 0 0 0 0 0
90 1 3 31.1018 -3133.14 0 0 0 0 0
91 1 3 31.1018 -3128.4 0 0 0 0 0
92 1 3 31.1018 -3123.66 0 0 0 0 0
93 1 3 31.1018 -3118.92 0 0 0 0 0
94 1 3 31.1018 -3114.18 0 0 0 0 0
95 1 3 31.1018 -3109.44 0 0 0 0 0
96 1 3 31.1018 -3104.7 0 0 0 0 0
97 1 3 31.1018 -3099.96 0 0 0 0 0
98 1 3 31.1018 -3095.22 0 0 0 0 0
99 1 3 31.1018 -3090.48 0 0 0 0 0
100 1 3 31.1018 -3085.74 0 0 0 0 0
101 1 3 31.1018 -3081 0 0 0 0 0
102 1 3 31.1018 -3076.26 0 0 0 0 0
103 1 3 31.1018 -3071.52 0 0 0 0 0
104 1 3 31.1018 -3066.78 0 0 0 0 0
105 1 3 31.1018 -3062.04 0 0 0 0 0
106 1 3 31.1018 -3057.3 0 0 0 0 0
107 1 3 31.1018 -3052.56 0 0 0 0 0
108 1 3 31.1018 -3047.82 0 0 0 0 0
109 1 3 31.1018 -3043.08 0 0 0 0 0
110 1 3 31.1018 -3038.34 0 0 0 0 0
111 1 3 31.1018 -3033.6 0 0 0 0 0
112 1 3 31.1018 -3028.86 0 0 0 0 0
113 1 3 31.1018 -3024.12 0 0 0 0 0
114 1 3 31.1018 -3019.38 0 0 0 0 0
115 1 3 31.1018 -3014.64 0 0 0 0 0
116 1 3 31.1018 -3009.9 0 0 0 0 0
117 1 3 31.1018 -3005.16 0 0 0 0 0
118 1 3 31.1018 -3000.42 0 0 0 0 0
119 1 3 31.1018 -2995.68 0 0 0 0 0
120 1 3 31.1018 -2990.94 0 0 0 0 0
121 1 3 31.1018 -2986.2 0 0 0 0 0
122 1 3 31.1018 -2981.46 0 0 0 0 0
123 1 3 31.1018 -2976.72 0 0 0 0 0
124 1 3 31.1018 -2971.98 0 0 0 0 0
125 1 3 31.1018 -2967.24 0 0 0 0 0
126 1 3 31.1018 -2962.5 0 0 0 0 0
127 1 3 31.1018 -2957.76 0 0 0 0 0
128 1 3 31.1018 -2953.02 0 0 0 0 0
129 1 3 31.1018 -2948.28 0 0 0 0 0
130 1 3 31.1018 -2943.54 0 0 0 0 0
131 1 3 31.1018 -2938.8 0 0 0 0 0
132 1 3 31.1018 -2934.06 0 0 0 0 0
133 1 3 31.1018 -2929.32 0 0 0 0 0
134 1 3 31.1018 -2924.58 0 0 0 0 0
135 1 3 31.1018 -2919.84 0 0 0 0 0
136 1 3 31.1018 -2915.1 0 0 0 0 0
137 1 3 31.1018 -2910.36 0 0 0 0 0
138 1 3 31.1018 -2905.62 0 0 0 0 0
139 1 3 31.1018 -2900.88 0 0 0 0 0
140 1 3 31.1018 -2896.14 0 0 0 0 0
141 1 3 31.1018 -2891.4 0 0 0 0 0
142 1 3 31.1018 -2886.66 0 0 0 0 0
143 1 3 31.1018 -2881.92 0 0 0 0 0
144 1 3 31.1018 -2877.18 0 0 0 0 0
145 1 3 31.1018 -2872.44 0 0 0 0 0
146 1 3 31.1018 -2867.7 0 0 0 0 0
147 1 3 31.1018 -2862.96 0 0 0 0 0
148 1 3 31.1018 -2858.22 0 0 0 0 0
149 1 3 31.1018 -2853.48 0 0 0 0 0
150 1 3 31.1018 -2848.74 0 0 0 0 0
151 1 3 31.1018 -2844 0 0 0 0 0
152 1 3 31.1018 -2839.26 0 0 0 0 0
153 1 3 31.1018 -2834.52 0 0 0 0 0
154 1 3 31.1018 -2829.78 0 0 0 0 0
155 1 3 31.1018 -2825.04 0 0 0 0 0
156 1 3 31.1018 -2820.3 0 0 0 0 0
157 1 3 31.1018 -2815.56 0 0 0 0 0
158 1 3 31.1018 -2810.82 0 0 0 0 0
159 1 3 31.1018 -2806.08 0 0 0 0 0
160 1 3 31.1018 -2801.34 0 0 0 0 0
161 1 3 31.1018 -2796.6 0 0 0 0 0
162 1 3 31.1018 -2791.86 0 0 0 0 0
163 1 3 31.1018 -2787.12 0 0 0 0 0
164 1 3 31.1018 -2782.38 0 0 0 0 0
165 1 3 31.1018 -2777.64 0 0 0 0 0
166 1 3 31.1018 -2772.9 0 0 0 0 0
167 1 3 31.1018 -2768.16 0 0 0 0 0
168 1 3 31.1018 -2763.42 0 0 0 0 0
169 1 3 31.1018 -2758.68 0 0 0 0 0
170 1 3 31.1018 -2753.94 0 0 0 0 0
171 1 3 31.1018 -2749.2 0 0 0 0 0
172 1 3 31.1018 -2744.46 0 0 0 0 0
173 1 3 31.1018 -2739.72 0 0 0 0 0
174 1 3 31.1018 -2734.98 0 0 0 0 0
175 1 3 31.1018 -2730.24 0 0 0 0 0
176 1 3 31.1018 -2725.5 0 0 0 0 0
177 1 3 31.1018 -2720.76 0 0 0 0 0
178 1 3 31.1018 -2716.02 0 0 0 0 0
179 1 3 31.1018 -2711.28 0 0 0 0 0
180 1 3 31.1018 -2706.54 0 0 0 0 0
181 1 3 31.1018 -2701.8 0 0 0 0 0
182 1 3 31.1018 -2697.06 0 0 0 0 0
183 1 3 31.1018 -2692.32 0 0 0 0 0
184 1 3 31.1018 -2687.58 0 0 0 0 0
185 1 3 31.1018 -2682.84 0 0 0 0 0
186 1 3 31.1018 -2678.1 0 0 0 0 0
187 1 3 31.1018 -2673.36 0 0 0 0 0
188 1 3 31.1018 -2668.62 0 0 0 0 0
189 1 3 31.1018 -2663.88 0 0 0 0 0
190 1 3 31.1018 -2659.14 0 0 0 0 0
191 1 3 31.1018 -2654.4 0 0 0 0 0
192 1 3 31.1018 -2649.66 0 0 0 0 0
193 1 3 31.1018 -2644.92 0 0 0 0 0
194 1 3 31.1018 -2640.18 0 0 0 0 0
195 1 3 31.1018 -2635.44 0 0 0 0 0
196 1 3 31.1018 -2630.7 0 0 0 0 0
197 1 3 31.1018 -2625.96 0 0 0 0 0
198 1 3 31.1018 -2621.22 0 0 0 0 0
199 1 3 31.1018 -2616.48 0 0 0 0 0
200 1 3 31.1018 -2611.74 0 0 0 0 0
201 1 3 31.1018 -2607 0 0 0 0 0
202 1 3 31.1018 -2602.26 0 0 0 0 0
203 1 3 31.1018 -2597.52 0 0 0 0 0
204 1 3 31.1018 -2592.78 0 0 0 0 0
205 1 3 31.1018 -2588.04 0 0 0 0 0
206 1 3 31.1018 -2583.3 0 0 0 0 0
207 1 3 31.1018 -2578.56 0 0 0 0 0
208 1 3 31.1018 -2573.82 0 0 0 0 0
209 1 3 31.1018 -2569.08 0 0 0 0 0
210 1 3 31.1018 -2564.34 0 0 0 0 0
211 1 3 31.1018 -2559.6 0 0 0 0 0
212 1 3 31.1018 -2554.86 0 0 0 0 0
213 1 3 31.1018 -2550.12 0 0 0 0 0
214 1 3 31.1018 -2545.38 0 0 0 0 0
215 1 3 31.1018 -2540.64 0 0 0 0 0
216 1 3 31.1018 -2535.9 0 0 0 0 0
217 1 3 31.1018 -2531.16 0 0 0 0 0
218 1 3 31.1018 -2526.42 0 0 0 0 0
219 1 3 31.1018 -2521.68 0 0 0 0 0
220 1 3 31.1018 -2516.94 0 0 0 0 0
221 1 3 31.1018 -2512.2 0 0 0 0 0
222 1 3 31.1018 -2507.46 0 0 0 0 0
223 1 3 31.1018 -2502.72 0 0 0 0 0
224 1 3 31.1018 -2497.98 0 0 0 0 0
225 1 3 31.1018 -2493.24 0 0 0 0 0
226 1 3 31.1018 -2488.5 0 0 0 0 0
227 1 3 31.1018 -2483.76 0 0 0 0 0
228 1 3 31.1018 -2479.02 0 0 0 0 0
229 1 3 31.1018 -2474.28 0 0 0 0 0
230 1 3 31.1018 -2469.54 0 0 0 0 0
231 1 3 31.1018 -2464.8 0 0 0 0 0
232 1 3 31.1018 -2460.06 0 0 0 0 0
233 1 3 31.1018 -2455.32 0 0 0 0 0
234 1 3 31.1018 -2450.58 0 0 0 0 0
235 1 3 31.1018 -2445.84 0 0 0 0 0
236 1 3 31.1018 -2441.1 0 0 0 0 0
237 1 3 31.1018 -2436.36 0 0 0 0 0
238 1 3 31.1018 -2431.62 0 0 0 0 0
239 1 3 31.1018 -2426.88 0 0 0 0 0
240 1 3 31.1018 -2422.14 0 0 0 0 0
241 1 3 31.1018 -2417.4 0 0 0 0 0
242 1 3 31.1018 -2412.66 0 0 0 0 0
243 1 3 31.1018 -2407.92 0 0 0 0 0
244 1 3 31.1018 -2403.18 0 0 0 0 0
245 1 3 31.1018 -2398.44 0 0 0 0 0
246 1 3 31.1018 -2393.7 0 0 0 0 0
247 1 3 31.1018 -2388.96 0 0 0 0 0
248 1 3 31.1018 -2384.22 0 0 0 0 0
249 1 3 31.1018 -2379.48 0 0 0 0 0
250 1 3 31.1018 -2374.74 0 0 0 0 0
251 1 3 31.1018 -2370 0 0 0 0 0
252 1 3 31.1018 -2365.26 0 0 0 0 0
253 1 3 31.1018 -2360.52 0 0 0 0 0
254 1 3 31.1018 -2355.78 0 0 0 0 0
255 1 3 31.1018 -2351.04 0 0 0 0 0
256 1 3 31.1018 -2346.3 0 0 0 0 0
257 1 3 31.1018 -2341.56 0 0 0 0 0
258 1 3 31.1018 -2336.82 0 0 0 0 0
259 1 3 31.1018 -2332.08 0 0 0 0 0
260 1 3 31.1018 -2327.34 0 0 0 0 0
261 1 3 31.1018 -2322.6 0 0 0 0 0
262 1 3 31.1018 -2317.86 0 0 0 0 0
263 1 3 31.1018 -2313.12 0 0 0 0 0
264 1 3 31.1018 -2308.38 0 0 0 0 0
265 1 3 31.1018 -2303.64 0 0 0 0 0
266 1 3 31.1018 -2298.9 0 0 0 0 0
267 1 3 31.1018 -2294.16 0 0 0 0 0
268 1 3 31.1018 -2289.42 0 0 0 0 0
269 1 3 31.1018 -2284.68 0 0 0 0 0
270 1 3 31.1018 -2279.94 0 0 0 0 0
271 1 3 31.1018 -2275.2 0 0 0 0 0
272 1 3 31.1018 -2270.46 0 0 0 0 0
273 1 3 31.1018 -2265.72 0 0 0 0 0
274 1 3 31.1018 -2260.98 0 0 0 0 0
275 1 3 31.1018 -2256.24 0 0 0 0 0
276 1 3 31.1018 -2251.5 0 0 0 0 0
277 1 3 31.1018 -2246.76 0 0 0 0 0
278 1 3 31.1018 -2242.02 0 0 0 0 0
279 1 3 31.1018 -2237.28 0 0 0 0 0
280 1 3 31.1018 -2232.54 0 0 0 0 0
281 1 3 31.1018 -2227.8 0 0 0 0 0
282 1 3 31.1018 -2223.06 0 0 0 0 0
283 1 3 31.1018 -2218.32 0 0 0 0 0
284 1 3 31.1018 -2213.58 0 0 0 0 0
285 1 3 31.1018 -2208.84 0 0 0 0 0
286 1 3 31.1018 -2204.1 0 0 0 0 0
287 1 3 31.1018 -2199.36 0 0 0 0 0
288 1 3 31.1018 -2194.62 0 0 0 0 0
289 1 3 31.1018 -2189.88 0 0 0 0 0
290 1 3 31.1018 -2185.14 0 0 0 0 0
291 1 3 31.1018 -2180.4 0 0 0 0 0
292 1 3 31.1018 -2175.66 0 0 0 0 0
293 1 3 31.1018 -2170.92 0 0 0 0 0
294 1 3 31.1018 -2166.18 0 0 0 0 0
295 1 3 31.1018 -2161.44 0 0 0 0 0
296 1 3 31.1018 -2156.7 0 0 0 0 0
297 1 3 31.1018 -2151.96 0 0 0 0 0
298 1 3 31.1018 -2147.22 0 0 0 0 0
299 1 3 31.1018 -2142.48 0 0 0 0 0
300 1 3 31.1018 -2137.74 0 0 0 0 0
301 1 3 31.1018 -2133 0 0 0 0 0
302 1 3 31.1018 -2128.26 0 0 0 0 0
303 1 3 31.1018 -2123.52 0 0 0 0 0
304 1 3 31.1018 -2118.78 0 0 0 0 0
305 1 3 31.1018 -2114.04 0 0 0 0 0
306 1 3 31.1018 -2109.3 0 0 0 0 0
307 1 3 31.1018 -2104.56 0 0 0 0 0
308 1 3 31.1018 -2099.82 0 0 0 0 0
309 1 3 31.1018 -2095.08 0 0 0 0 0
310 1 3 31.1018 -2090.34 0 0 0 0 0
311 1 3 31.1018 -2085.6 0 0 0 0 0
312 1 3 31.1018 -2080.86 0 0 0 0 0
313 1 3 31.1018 -2076.12 0 0 0 0 0
314 1 3 31.1018 -2071.38 0 0 0 0 0
315 1 3 31.1018 -2066.64 0 0 0 0 0
316 1 3 31.1018 -2061.9 0 0 0 0 0
317 1 3 31.1018 -2057.16 0 0 0 0 0
318 1 3 31.1018 -2052.42 0 0 0 0 0
319 1 3 31.1018 -2047.68 0 0 0 0 0
320 1 3 31.1018 -2042.94 0 0 0 0 0
321 1 3 31.1018 -2038.2 0 0 0 0 0
322 1 3 31.1018 -2033.46 0 0 0 0 0
323 1 3 31.1018 -2028.72 0 0 0 0 0
324 1 3 31.1018 -2023.98 0 0 0 0 0
325 1 3 31.1018 -2019.24 0 0 0 0 0
326 1 3 31.1018 -2014.5 0 0 0 0 0
327 1 3 31.1018 -2009.76 0 0 0 0 0
328 1 3 31.1018 -2005.02 0 0 0 0 0
329 1 3 31.1018 -2000.28 0 0 0 0 0
330 1 3 31.1018 -1995.54 0 0 0 0 0
331 1 3 31.1018 -1990.8 0 0 0 0 0
332 1 3 31.1018 -1986.06 0 0 0 0 0
333 1 3 31.1018 -1981.32 0 0 0 0 0
334 1 3 31.1018 -1976.58 0 0 0 0 0
335 1 3 31.1018 -1971.84 0 0 0 0 0
336 1 3 31.1018 -1967.1 0 0 0 0 0
337 1 3 31.1018 -1962.36 0 0 0 0 0
338 1 3 31.1018 -1957.62 0 0 0 0 0
339 1 3 31.1018 -1952.88 0 0 0 0 0
340 1 3 31.1018 -1948.14 0 0 0 0 0
341 1 3 31.1018 -1943.4 0 0 0 0 0
342 1 3 31.1018 -1938.66 0 0 0 0 0
343 1 3 31.1018 -1933.92 0 0 0 0 0
344 1 3 31.1018 -1929.18 0 0 0 0 0
345 1 3 31.1018 -1924.44 0 0 0 0 0
346 1 3 31.1018 -1919.7 0 0 0 0 0
347 1 3 31.1018 -1914.96 0 0 0 0 0
348 1 3 31.1018 -1910.22 0 0 0 0 0
349 1 3 31.1018 -1905.48 0 0 0 0 0
350 1 3 31.1018 -1900.74 0 0 0 0 0
351 1 3 31.1018 -1896 0 0 0 0 0
352 1 3 31.1018 -1891.26 0 0 0 0 0
353 1 3 31.1018 -1886.52 0 0 0 0 0
354 1 3 31.1018 -1881.78 0 0 0 0 0
355 1 3 31.1018 -1877.04 0 0 0 0 0
356 1 3 31.1018 -1872.3 0 0 0 0 0
357 1 3 31.1018 -1867.56 0 0 0 0 0
358 1 3 31.1018 -1862.82 0 0 0 0 0
359 1 3 31.1018 -1858.08 0 0 0 0 0
360 1 3 31.1018 -1853.34 0 0 0 0 0
361 1 3 31.1018 -1848.6 0 0 0 0 0
362 1 3 31.1018 -1843.86 0 0 0 0 0
363 1 3 31.1018 -1839.12 0 0 0 0 0
364 1 3 31.1018 -1834.38 0 0 0 0 0
365 1 3 31.1018 -1829.64 0 0 0 0 0
366 1 3 31.1018 -1824.9 0 0 0 0 0
367 1 3 31.1018 -1820.16 0 0 0 0 0
368 1 3 31.1018 -1815.42 0 0 0 0 0
369 1 3 31.1018 -1810.68 0 0 0 0 0
370 1 3 31.1018 -1805.94 0 0 0 0 0
371 1 3 31.1018 -1801.2 0 0 0 0 0
372 1 3 31.1018 -1796.46 0 0 0 0 0
373 1 3 31.1018 -1791.72 0 0 0 0 0
374 1 3 31.1018 -1786.98 0 0 0 0 0
375 1 3 31.1018 -1782.24 0 0 0 0 0
376 1 3 31.1018 -1777.5 0 0 0 0 0
377 1 3 31.1018 -1772.76 0 0 0 0 0
378 1 3 31.1018 -1768.02 0 0 0 0 0
379 1 3 31.1018 -1763.28 0 0 0 0 0
380 1 3 31.1018 -1758.54 0 0 0 0 0
381 1 3 31.1018 -1753.8 0 0 0 0 0
382 1 3 31.1018 -1749.06 0 0 0 0 0
383 1 3 31.1018 -1744.32 0 0 0 0 0
384 1 3 31.1018 -1739.58 0 0 0 0 0
385 1 3 31.1018 -1734.84 0 0 0 0 0
386 1 3 31.1018 -1730.1 0 0 0 0 0
387 1 3 31.1018 -1725.36 0 0 0 0 0
388 1 3 31.1018 -1720.62 0 0 0 0 0
389 1 3 31.1018 -1715.88 0 0 0 0 0
390 1 3 31.1018 -1711.14 0 0 0 0 0
391 1 3 31.1018 -1706.4 0 0 0 0 0
392 1 3 31.1018 -1701.66 0 0 0 0 0
393 1 3 31.1018 -1696.92 0 0 0 0 0
394 1 3 31.1018 -1692.18 0 0 0 0 0
395 1 3 31.1018 -1687.44 0 0 0 0 0
396 1 3 31.1018 -1682.7 0 0 0 0 0
397 1 3 31.1018 -1677.96 0 0 0 0 0
398 1 3 31.1018 -1673.22 0 0 0 0 0
399 1 3 31.1018 -1668.48 0 0 0 0 0
400 1 3 31.1018 -1663.74 0 0 0 0 0
401 1 3 31.1018 -1659 0 0 0 0 0
402 1 3 31.1018 -1654.26 0 0 0 0 0
403 1 3 31.1018 -1649.52 0 0 0 0 0
404 1 3 31.1018 -1644.78 0 0 0 0 0
405 1 3 31.1018 -1640.04 0 0 0 0 0
406 1 3 31.1018 -1635.3 0 0 0 0 0
407 1 3 31.1018 -1630.56 0 0 0 0 0
408 1 3 31.1018 -1625.82 0 0 0 0 0
409 1 3 31.1018 -1621.08 0 0 0 0 0
410 1 3 31.1018 -1616.34 0 0 0 0 0
411 1 3 31.1018 -1611.6 0 0 0 0 0
412 1 3 31.1018 -1606.86 0 0 0 0 0
413 1 3 31.1018 -1602.12 0 0 0 0 0
414 1 3 31.1018 -1597.38 0 0 0 0 0
415 1 3 31.1018 -1592.64 0 0 0 0 0
416 1 3 31.1018 -1587.9 0 0 0 0 0
417 1 3 31.1018 -1583.16 0 0 0 0 0
418 1 3 31.1018 -1578.42 0 0 0 0 0
419 1 3 31.1018 -1573.68 0 0 0 0 0
420 1 3 31.1018 -1568.94 0 0 0 0 0
421 1 3 31.1018 -1564.2 0 0 0 0 0
422 1 3 31.1018 -1559.46 0 0 0 0 0
423 1 3 31.1018 -1554.72 0 0 0 0 0
424 1 3 31.1018 -1549.98 0 0 0 0 0
425 1 3 31.1018 -1545.24 0 0 0 0 0
426 1 3 31.1018 -1540.5 0 0 0 0 0
427 1 3 31.1018 -1535.76 0 0 0 0 0
428 1 3 31.1018 -1531.02 0 0 0 0 0
429 1 3 31.1018 -1526.28 0 0 0 0 0
430 1 3 31.1018 -1521.54 0 0 0 0 0
431 1 3 31.1018 -1516.8 0 0 0 0 0
432 1 3 31.1018 -1512.06 0 0 0 0 0
433 1 3 31.1018 -1507.32 0 0 0 0 0
434 1 3 31.1018 -1502.58 0 0 0 0 0
435 1 3 31.1018 -1497.84 0 0 0 0 0
436 1 3 31.1018 -1493.1 0 0 0 0 0
437 1 3 31.1018 -1488.36 0 0 0 0 0
438 1 3 31.1018 -1483.62 0 0 0 0 0
439 1 3 31.1018 -1478.88 0 0 0 0 0
440 1 3 31.1018 -1474.14 0 0 0 0 0
441 1 3 31.1018 -1469.4 0 0 0 0 0
442 1 3 31.1018 -1464.66 0 0 0 0 0
443 1 3 31.1018 -1459.92 0 0 0 0 0
444 1 3 31.1018 -1455.18 0 0 0 0 0
445 1 3 31.1018 -1450.44 0 0 0 0 0
446 1 3 31.1018 -1445.7 0 0 0 0 0
447 1 3 31.1018 -1440.96 0 0 0 0 0
448 1 3 31.1018 -1436.22 0 0 0 0 0
449 1 3 31.1018 -1431.48 0 0 0 0 0
450 1 3 31.1018 -1426.74 0 0 0 0 0
451 1 3 31.1018 -1422 0 0 0 0 0
452 1 3 31.1018 -1417.26 0 0 0 0 0
453 1 3 31.1018 -1412.52 0 0 0 0 0
454 1 3 31.1018 -1407.78 0 0 0 0 0
455 1 3 31.1018 -1403.04 0 0 0 0 0
456 1 3 31.1018 -1398.3 0 0 0 0 0
457 1 3 31.1018 -1393.56 0 0 0 0 0
458 1 3 31.1018 -1388.82 0 0 0 0 0
459 1 3 31.1018 -1384.08 0 0 0 0 0
460 1 3 31.1018 -1379.34 0 0 0 0 0
461 1 3 31.1018 -1374.6 0 0 0 0 0
462 1 3 31.1018 -1369.86 0 0 0 0 0
463 1 3 31.1018 -1365.12 0 0 0 0 0
464 1 3 31.1018 -1360.38 0 0 0 0 0
465 1 3 31.1018 -1355.64 0 0 0 0 0
466 1 3 31.1018 -1350.9 0 0 0 0 0
467 1 3 31.1018 -1346.16 0 0 0 0 0
468 1 3 31.1018 -1341.42 0 0 0 0 0
469 1 3 31.1018 -1336.68 0 0 0 0 0
470 1 3 31.1018 -1331.94 0 0 0 0 0
471 1 3 31.1018 -1327.2 0 0 0 0 0
472 1 3 31.1018 -1322.46 0 0 0 0 0
473 1 3 31.1018 -1317.72 0 0 0 0 0
474 1 3 31.1018 -1312.98 0 0 0 0 0
475 1 3 31.1018 -1308.24 0 0 0 0 0
476 1 3 31.1018 -1303.5 0 0 0 0 0
477 1 3 31.1018 -1298.76 0 0 0 0 0
478 1 3 31.1018 -1294.02 0 0 0 0 0
479 1 3 31.1018 -1289.28 0 0 0 0 0
480 1 3 31.1018 -1284.54 0 0 0 0 0
481 1 3 31.1018 -1279.8 0 0 0 0 0
482 1 3 31.1018 -1275.06 0 0 0 0 0
483 1 3 31.1018 -1270.32 0 0 0 0 0
484 1 3 31.1018 -1265.58 0 0 0 0 0
485 1 3 31.1018 -1260.84 0 0 0 0 0
486 1 3 31.1018 -1256.1 0 0 0 0 0
487 1 3 31.1018 -1251.36 0 0 0 0 0
488 1 3 31.1018 -1246.62 0 0 0 0 0
489 1 3 31.1018 -1241.88 0 0 0 0 0
490 1 3 31.1018 -1237.14 0 0 0 0 0
491 1 3 31.1018 -1232.4 0 0 0 0 0
492 1 3 31.1018 -1227.66 0 0 0 0 0
493 1 3 31.1018 -1222.92 0 0 0 0 0
494 1 3 31.1018 -1218.18 0 0 0 0 0
495 1 3 31.1018 -1213.44 0 0 0 0 0
496 1 3 31.1018 -1208.7 0 0 0 0 0
497 1 3 31.1018 -1203.96 0 0 0 0 0
498 1 3 31.1018 -1199.22 0 0 0 0 0
499 1 3 31.1018 -1194.48 0 0 0 0 0
500 1 3 31.1018 -1189.74 0 0 0 0 0
501 1 3 31.1018 -1185 0 0 0 0 0
502 1 3 31.1018 -1180.26 0 0 0 0 0
503 1 3 31.1018 -1175.52 0 0 0 0 0
504 1 3 31.1018 -1170.78 0 0 0 0 0
505 1 3 31.1018 -1166.04 0 0 0 0 0
506 1 3 31.1018 -1161.3 0 0 0 0 0
507 1 3 31.1018 -1156.56 0 0 0 0 0
508 1 3 31.1018 -1151.82 0 0 0 0 0
509 1 3 31.1018 -1147.08 0 0 0 0 0
510 1 3 31.1018 -1142.34 0 0 0 0 0
511 1 3 31.1018 -1137.6 0 0 0 0 0
512 1 3 31.1018 -1132.86 0 0 0 0 0
513 1 3 31.1018 -1128.12 0 0 0 0 0
514 1 3 31.1018 -1123.38 0 0 0 0 0
515 1 3 31.1018 -1118.64 0 0 0 0 0
516 1 3 31.1018 -1113.9 0 0 0 0 0
517 1 3 31.1018 -1109.16 0 0 0 0 0
518 1 3 31.1018 -1104.42 0 0 0 0 0
519 1 3 31.1018 -1099.68 0 0 0 0 0
520 1 3 31.1018 -1094.94 0 0 0 0 0
521 1 3 31.1018 -1090.2 0 0 0 0 0
522 1 3 31.1018 -1085.46 0 0 0 0 0
523 1 3 31.1018 -1080.72 0 0 0 0 0
524 1 3 31.1018 -1075.98 0 0 0 0 0
525 1 3 31.1018 -1071.24 0 0 0 0 0
526 1 3 31.1018 -1066.5 0 0 0 0 0
527 1 3 31.1018 -1061.76 0 0 0 0 0
528 1 3 31.1018 -1057.02 0 0 0 0 0
529 1 3 31.1018 -1052.28 0 0 0 0 0
530 1 3 31.1018 -1047.54 0 0 0 0 0
531 1 3 31.1018 -1042.8 0 0 0 0 0
532 1 3 31.1018 -1038.06 0 0 0 0 0
533 1 3 31.1018 -1033.32 0 0 0 0 0
534 1 3 31.1018 -1028.58 0 0 0 0 0
535 1 3 31.1018 -1023.84 0 0 0 0 0
536 1 3 31.1018 -1019.1 0 0 0 0 0
537 1 3 31.1018 -1014.36 0 0 0 0 0
538 1 3 31.1018 -1009.62 0 0 0 0 0
539 1 3 31.1018 -1004.88 0 0 0 0 0
540 1 3 31.1018 -1000.14 0 0 0 0 0
541 1 3 31.1018 -995.4 0 0 0 0 0
542 1 3 31.1018 -990.66 0 0 0 0 0
543 1 3 31.1018 -985.92 0 0 0 0 0
544 1 3 31.1018 -981.18 0 0 0 0 0
545 1 3 31.1018 -976.44 0 0 0 0 0
546 1 3 31.1018 -971.7 0 0 0 0 0
547 1 3 31.1018 -966.96 0 0 0 0 0
548 1 3 31.1018 -962.22 0 0 0 0 0
549 1 3 31.1018 -957.48 0 0 0 0 0
550 1 3 31.1018 -952.74 0 0 0 0 0
551 1 3 31.1018 -948 0 0 0 0 0
552 1 3 31.1018 -943.26 0 0 0 0 0
553 1 3 31.1018 -938.52 0 0 0 0 0
554 1 3 31.1018 -933.78 0 0 0 0 0
555 1 3 31.1018 -929.04 0 0 0 0 0
556 1 3 31.1018 -924.3 0 0 0 0 0
557 1 3 31.1018 -919.56 0 0 0 0 0
558 1 3 31.1018 -914.82 0 0 0 0 0
559 1 3 31.1018 -910.08 0 0 0 0 0
560 1 3 31.1018 -905.34 0 0 0 0 0
561 1 3 31.1018 -900.6 0 0 0 0 0
562 1 3 31.1018 -895.86 0 0 0 0 0
563 1 3 31.1018 -891.12 0 0 0 0 0
564 1 3 31.1018 -886.38 0 0 0 0 0
565 1 3 31.1018 -881.64 0 0 0 0 0
566 1 3 31.1018 -876.9 0 0 0 0 0
567 1 3 31.1018 -872.16 0 0 0 0 0
568 1 3 31.1018 -867.42 0 0 0 0 0
569 1 3 31.1018 -862.68 0 0 0 0 0
570 1 3 31.1018 -857.94 0 0 0 0 0
571 1 3 31.1018 -853.2 0 0 0 0 0
572 1 3 31.1018 -848.46 0 0 0 0 0
573 1 3 31.1018 -843.72 0 0 0 0 0
574 1 3 31.1018 -838.98 0 0 0 0 0
575 1 3 31.1018 -834.24 0 0 0 0 0
576 1 3 31.1018 -829.5 0 0 0 0 0
577 1 3 31.1018 -824.76 0 0 0 0 0
578 1 3 31.1018 -820.02 0 0 0 0 0
579 1 3 31.1018 -815.28 0 0 0 0 0
580 1 3 31.1018 -810.54 0 0 0 0 0
581 1 3 31.1018 -805.8 0 0 0 0 0
582 1 3 31.1018 -801.06 0 0 0 0 0
583 1 3 31.1018 -796.32 0 0 0 0 0
584 1 3 31.1018 -791.58 0 0 0 0 0
585 1 3 31.1018 -786.84 0 0 0 0 0
586 1 3 31.1018 -782.1 0 0 0 0 0
587 1 3 31.1018 -777.36 0 0 0 0 0
588 1 3 31.1018 -772.62 0 0 0 0 0
589 1 3 31.1018 -767.88 0 0 0 0 0
590 1 3 31.1018 -763.14 0 0 0 0 0
591 1 3 31.1018 -758.4 0 0 0 0 0
592 1 3 31.1018 -753.66 0 0 0 0 0
593 1 3 31.1018 -748.92 0 0 0 0 0
594 1 3 31.1018 -744.18 0 0 0 0 0
595 1 3 31.1018 -739.44 0 0 0 0 0
596 1 3 31.1018 -734.7 0 0 0 0 0
597 1 3 31.1018 -729.96 0 0 0 0 0
598 1 3 31.1018 -725.22 0 0 0 0 0
599 1 3 31.1018 -720.48 0 0 0 0 0
600 1 3 31.1018 -715.74 0 0 0 0 0
601 1 3 31.1018 -711 0 0 0 0 0
602 1 3 31.1018 -706.26 0 0 0 0 0
603 1 3 31.1018 -701.52 0 0 0 0 0
604 1 3 31.1018 -696.78 0 0 0 0 0
605 1 3 31.1018 -692.04 0 0 0 0 0
606 1 3 31.1018 -687.3 0 0 0 0 0
607 1 3 31.1018 -682.56 0 0 0 0 0
608 1 3 31.1018 -677.82 0 0 0 0 0
609 1 3 31.1018 -673.08 0 0 0 0 0
610 1 3 31.1018 -668.34 0 0 0 0 0
611 1 3 31.1018 -663.6 0 0 0 0 0
612 1 3 31.1018 -658.86 0 0 0 0 0
613 1 3 31.1018 -654.12 0 0 0 0 0
614 1 3 31.1018 -649.38 0 0 0 0 0
615 1 3 31.1018 -644.64 0 0 0 0 0
616 1 3 31.1018 -639.9 0 0 0 0 0
617 1 3 31.1018 -635.16 0 0 0 0 0
618 1 3 31.1018 -630.42 0 0 0 0 0
619 1 3 31.1018 -625.68 0 0 0 0 0
620 1 3 31.1018 -620.94 0 0 0 0 0
621 1 3 31.1018 -616.2 0 0 0 0 0
622 1 3 31.1018 -611.46 0 0 0 0 0
623 1 3 31.1018 -606.72 0 0 0 0 0
624 1 3 31.1018 -601.98 0 0 0 0 0
625 1 3 31.1018 -597.24 0 0 0 0 0
626 1 3 31.1018 -592.5 0 0 0 0 0
627 1 3 31.1018 -587.76 0 0 0 0 0
628 1 3 31.1018 -583.02 0 0 0 0 0
629 1 3 31.1018 -578.28 0 0 0 0 0
630 1 3 31.1018 -573.54 0 0 0 0 0
631 1 3 31.1018 -568.8 0 0 0 0 0
632 1 3 31.1018 -564.06 0 0 0 0 0
633 1 3 31.1018 -559.32 0 0 0 0 0
634 1 3 31.1018 -554.58 0 0 0 0 0
635 1 3 31.1018 -549.84 0 0 0 0 0
636 1 3 31.1018 -545.1 0 0 0 0 0
637 1 3 31.1018 -540.36 0 0 0 0 0
638 1 3 31.1018 -535.62 0 0 0 0 0
639 1 3 31.1018 -530.88 0 0 0 0 0
640 1 3 31.1018 -526.14 0 0 0 0 0
641 1 3 31.1018 -521.4 0 0 0 0 0
642 1 3 31.1018 -516.66 0 0 0 0 0
643 1 3 31.1018 -511.92 0 0 0 0 0
644 1 3 31.1018 -507.18 0 0 0 0 0
645 1 3 31.1018 -502.44 0 0 0 0 0
646 1 3 31.1018 -497.7 0 0 0 0 0
647 1 3 31.1018 -492.96 0 0 0 0 0
648 1 3 31.1018 -488.22 0 0 0 0 0
649 1 3 31.1018 -483.48 0 0 0 0 0
650 1 3 31.1018 -478.74 0 0 0 0 0
651 1 3 31.1018 -474 0 0 0 0 0
652 1 3 31.1018 -469.26 0 0 0 0 0
653 1 3 31.1018 -464.52 0 0 0 0 0
654 1 3 31.1018 -459.78 0 0 0 0 0
655 1 3 31.1018 -455.04 0 0 0 0 0
656 1 3 31.1018 -450.3 0 0 0 0 0
657 1 3 31.1018 -445.56 0 0 0 0 0
658 1 3 31.1018 -440.82 0 0 0 0 0
659 1 3 31.1018 -436.08 0 0 0 0 0
660 1 3 31.1018 -431.34 0 0 0 0 0
661 1 3 31.1018 -426.6 0 0 0 0 0
662 1 3 31.1018 -421.86 0 0 0 0 0
663 1 3 31.1018 -417.12 0 0 0 0 0
664 1 3 31.1018 -412.38 0 0 0 0 0
665 1 3 31.1018 -407.64 0 0 0 0 0
666 1 3 31.1018 -402.9 0 0 0 0 0
667 1 3 31.1018 -398.16 0 0 0 0 0
668 1 3 31.1018 -393.42 0 0 0 0 0
669 1 3 31.1018 -388.68 0 0 0 0 0
670 1 3 31.1018 -383.94 0 0 0 0 0
671 1 3 31.1018 -379.2 0 0 0 0 0
672 1 3 31.1018 -374.46 0 0 0 0 0
673 1 3 31.1018 -369.72 0 0 0 0 0
674 1 3 31.1018 -364.98 0 0 0 0 0
675 1 3 31.1018 -360.24 0 0 0 0 0
676 1 3 31.1018 -355.5 0 0 0 0 0
677 1 3 31.1018 -350.76 0 0 0 0 0
678 1 3 31.1018 -346.02 0 0 0 0 0
679 1 3 31.1018 -341.28 0 0 0 0 0
680 1 3 31.1018 -336.54 0 0 0 0 0
681 1 3 31.1018 -331.8 0 0 0 0 0
682 1 3 31.1018 -327.06 0 0 0 0 0
683 1 3 31.1018 -322.32 0 0 0 0 0
684 1 3 31.1018 -317.58 0 0 0 0 0
685 1 3 31.1018 -312.84 0 0 0 0 0
686 1 3 31.1018 -308.1 0 0 0 0 0
687 1 3 31.1018 -303.36 0 0 0 0 0
688 1 3 31.1018 -298.62 0 0 0 0 0
689 1 3 31.1018 -293.88 0 0 0 0 0
690 1 3 31.1018 -289.14 0 0 0 0 0
691 1 3 31.1018 -284.4 0 0 0 0 0
692 1 3 31.1018 -279.66 0 0 0 0 0
693 1 3 31.1018 -274.92 0 0 0 0 0
694 1 3 31.1018 -270.18 0 0 0 0 0
695 1 3 31.1018 -265.44 0 0 0 0 0
696 1 3 31.1018 -260.7 0 0 0 0 0
697 1 3 31.1018 -255.96 0 0 0 0 0
698 1 3 31.1018 -251.22 0 0 0 0 0
699 1 3 31.1018 -246.48 0 0 0 0 0
700 1 3 31.1018 -241.74 0 0 0 0 0
701 1 3 31.1018 -237 0 0 0 0 0
702 1 3 31.1018 -232.26 0 0 0 0 0
703 1 3 31.1018 -227.52 0 0 0 0 0
704 1 3 31.1018 -222.78 0 0 0 0 0
705 1 3 31.1018 -218.04 0 0 0 0 0
706 1 3 31.1018 -213.3 0 0 0 0 0
707 1 3 31.1018 -208.56 0 0 0 0 0
708 1 3 31.1018 -203.82 0 0 0 0 0
709 1 3 31.1018 -199.08 0 0 0 0 0
710 1 3 31.1018 -194.34 0 0 0 0 0
711 1 3 31.1018 -189.6 0 0 0 0 0
712 1 3 31.1018 -184.86 0 0 0 0 0
713 1 3 31.1018 -180.12 0 0 0 0 0
714 1 3 31.1018 -175.38 0 0 0 0 0
715 1 3 31.1018 -170.64 0 0 0 0 0
716 1 3 31.1018 -165.9 0 0 0 0 0
717 1 3 31.1018 -161.16 0 0 0 0 0
718 1 3 31.1018 -156.42 0 0 0 0 0
719 1 3 31.1018 -151.68 0 0 0 0 0
720 1 3 31.1018 -146.94 0 0 0 0 0
721 1 3 31.1018 -142.2 0 0 0 0 0
722 1 3 31.1018 -137.46 0 0 0 0 0
723 1 3 31.1018 -132.72 0 0 0 0 0
724 1 3 31.1018 -127.98 0 0 0 0 0
725 1 3 31.1018 -123.24 0 0 0 0 0
726 1 3 31.1018 -118.5 0 0 0 0 0
727 1 3 31.1018 -113.76 0 0 0 0 0
728 1 3 31.1018 -109.02 0 0 0 0 0
729 1 3 31.1018 -104.28 0 0 0 0 0
730 1 3 31.1018 -99.54 0 0 0 0 0
731 1 3 31.1018 -94.8 0 0 0 0 0
732 1 3 31.1018 -90.06 0 0 0 0 0
733 1 3 31.1018 -85.32 0 0 0 0 0
734 1 3 31.1018 -80.58 0 0 0 0 0
735 1 3 31.1018 -75.84 0 0 0 0 0
736 1 3 31.1018 -71.1 0 0 0 0 0
737 1 3 31.1018 -66.36 0 0 0 0 0
738 1 3 31.1018 -61.62 0 0 0 0 0
739 1 3 31.1018 -56.88 0 0 0 0 0
740 1 3 31.1018 -52.14 0 0 0 0 0
741 1 3 31.1018 -47.4 0 0 0 0 0
742 1 3 31.1018 -42.66 0 0 0 0 0
743 1 3 31.1018 -37.92 0 0 0 0 0
744 1 3 31.1018 -33.18 0 0 0 0 0
745 1 3 31.1018 -28.44 0 0 0 0 0
746 1 3 31.1018 -23.7 0 0 0 0 0
747 1 3 31.1018 -18.96 0 0 0 0 0
748 1 3 31.1018 -14.22 0 0 0 0 0
749 1 3 31.1018 -9.48 0 0 0 0 0
750 1 3 31.1018 -4.74 0 0 0 0 0
1501 2 3 31.1018 -1500 0 2.99508 0 0 -1000
1502 2 3 31.1018 -1497 0 2.99508 0 0 -1000
1503 2 3 31.1018 -1494 0 2.99508 0 0 -1000
1504 2 3 31.1018 -1491 0 2.99508 0 0 -1000
1505 2 3 31.1018 -1488 0 2.99508 0 0 -1000
1506 2 3 31.1018 -1485 0 2.99508 0 0 -1000
1507 2 3 31.1018 -1482 0 2.99508 0 0 -1000
1508 2 3 31.1018 -1479 0 2.99508 -334.195 0 6994.95
1509 2 3 31.1018 -1476 0 2.99508 0 0 -1000
1510 2 3 31.1018 -1473 0 2.99508 0 0 -1000
1511 2 3 31.1018 -1470 0 2.99508 0 0 -1000
1512 2 3 31.1018 -1467 0 2.99508 0 0 -1000
1513 2 3 31.1018 -1464 0 2.99508 0 0 -1000
1514 2 3 31.1018 -1461 0 2.99508 0 0 -1000
1515 2 3 31.1018 -1458 0 2.99508 0 0 -1000
1516 2 3 31.1018 -1455 0 2.99508 0 0 -1000
1517 2 3 31.1018 -1452 0 2.99508 0 0 -1000
1518 2 3 31.1018 -1449 0 2.99508 0 0 -1000
1519 2 3 31.1018 -1446 0 2.99508 0 0 -1000
1520 2 3 31.1018 -1443 0 2.99508 0 0 -1000
1521 2 3 31.1018 -1440 0 2.99508 0 0 -1000
1522 2 3 31.1018 -1437 0 2.99508 0 0 -1000
1523 2 3 31.1018 -1434 0 2.99508 0 0 -1000
1524 2 3 31.1018 -1431 0 2.99508 0 0 -1000
1525 2 3 31.1018 -1428 0 2.99508 0 0 -1000
1526 2 3 31.1018 -1425 0 2.99508 0 0 -1000
1527 2 3 31.1018 -1422 0 2.99508 1.41227e-12 0 20881.3
1528 2 3 31.1018 -1419 0 2.99508 0 0 -1000
1529 2 3 31.1018 -1416 0 2.99508 0 0 -1000
1530 2 3 31.1018 -1413 0 2.99508 0 0 -1000
1531 2 3 31.1018 -1410 0 2.99508 0 0 -1000
1532 2 3 31.1018 -1407 0 2.99508 0 0 -1000
1533 2 3 31.1018 -1404 0 2.99508 0 0 -1000
1534 2 3 31.1018 -1401 0 2.99508 0 0 -1000
1535 2 3 31.1018 -1398 0 2.99508 0 0 -1000
1536 2 3 31.1018 -1395 0 2.99508 0 0 -1000
1537 2 3 31.1018 -1392 0 2.99508 0 0 -1000
1538 2 3 31.1018 -1389 0 2.99508 0 0 -1000
1539 2 3 31.1018 -1386 0 2.99508 0 0 -1000
1540 2 3 31.1018 -1383 0 2.99508 0 0 -1000
1541 2 3 31.1018 -1380 0 2.99508 0 0 -1000
1542 2 3 31.1018 -1377 0 2.99508 0 0 -1000
1543 2 3 31.1018 -1374 0 2.99508 0 0 -1000
1544 2 3 31.1018 -1371 0 2.99508 0 0 -1000
1545 2 3 31.1018 -1368 0 2.99508 0 0 -1000
1546 2 3 31.1018 -1365 0 2.99508 334.195 0 6994.95
1547 2 3 31.1018 -1362 0 2.99508 0 0 -1000
1548 2 3 31.1018 -1359 0 2.99508 0 0 -1000
1549 2 3 31.1018 -1356 0 2.99508 0 0 -1000
1550 2 3 31.1018 -1353 0 2.99508 0 0 -1000
1551 2 3 31.1018 -1350 0 2.99508 0 0 -1000
1552 2 3 31.1018 -1347 0 2.99508 0 0 -1000
1553 2 3 31.1018 -1344 0 2.99508 0 0 -1000
1554 2 3 31.1018 -1341 0 2.99508 0 0 -1000
1555 2 3 31.1018 -1338 0 2.99508 0 0 -1000
1556 2 3 31.1018 -1335 0 2.99508 0 0 -1000
1557 2 3 31.1018 -1332 0 2.99508 -298.038 0 16993.5
1558 2 3 31.1018 -1329 0 2.99508 0 0 -1000
1559 2 3 31.1018 -1326 0 2.99508 0 0 -1000
1560 2 3 31.1018 -1323 0 2.99508 0 0 -1000
1561 2 3 31.1018 -1320 0 2.99508 0 0 -1000
1562 2 3 31.1018 -1317 0 2.99508 0 0 -1000
1563 2 3 31.1018 -1314 0 2.99508 0 0 -1000
1564 2 3 31.1018 -1311 0 2.99508 0 0 -1000
1565 2 3 31.1018 -1308 0 2.99508 0 0 -1000
1566 2 3 31.1018 -1305 0 2.99508 0 0 -1000
1567 2 3 31.1018 -1302 0 2.99508 0 0 -1000
1568 2 3 31.1018 -1299 0 2.99508 0 0 -1000
1569 2 3 31.1018 -1296 0 2.99508 0 0 -1000
1570 2 3 31.1018 -1293 0 2.99508 0 0 -1000
1571 2 3 31.1018 -1290 0 2.99508 0 0 -1000
1572 2 3 31.1018 -1287 0 2.99508 0 0 -1000
1573 2 3 31.1018 -1284 0 2.99508 0 0 -1000
1574 2 3 31.1018 -1281 0 2.99508 0 0 -1000
1575 2 3 31.1018 -1278 0 2.99508 0 0 -1000
1576 2 3 31.1018 -1275 0 2.99508 298.038 0 16993.5
1577 2 3 31.1018 -1272 0 2.99508 0 0 -1000
1578 2 3 31.1018 -1269 0 2.99508 0 0 -1000
1579 2 3 31.1018 -1266 0 2.99508 0 0 -1000
1580 2 3 31.1018 -1263 0 2.99508 0 0 -1000
1581 2 3 31.1018 -1260 0 2.99508 0 0 -1000
1582 2 3 31.1018 -1257 0 2.99508 0 0 -1000
1583 2 3 31.1018 -1254 0 2.99508 0 0 -1000
1584 2 3 31.1018 -1251 0 2.99508 0 0 -1000
1585 2 3 31.1018 -1248 0 2.99508 0 0 -1000
1586 2 3 31.1018 -1245 0 2.99508 0 0 -1000
1587 2 3 31.1018 -1242 0 2.99508 -334.195 0 6994.95
1588 2 3 31.1018 -1239 0 2.99508 0 0 -1000
1589 2 3 31.1018 -1236 0 2.99508 0 0 -1000
1590 2 3 31.1018 -1233 0 2.99508 0 0 -1000
1591 2 3 31.1018 -1230 0 2.99508 0 0 -1000