LAMMPS (23 Jun 2022 - Update 1)
  using 1 OpenMP thread(s) per MPI task
variable num index 0 1 2 3 4 5 6 7 8 9 10 11 12 13 14 15 16 17 18 19 20 21 22 23 24 25 26 27 28 29 30 31 32 33 34 35 36 37 38 39 40 41 42 43 44 45 46 47 48 49 50 51 52 53 54 55 56 57 58 59 60 61 62 63 64 65 66 67 68 69 70 71 72 73 74 75 76 77 78 79 80 81 82 83 84 85 86 87 88 89 90 91 92 93 94 95 96 97 98 99

label startloop

include granular.in
### Simulation of contact between two chain

##################### Simulation setup ####################

units micro                              # units
dimension	3                            # dimension
boundary	p p p                        # boundary condition p: periodic
atom_style	sphere                       # atom style
#processors * * 1

####################### Parameter ##################################

variable ind equal ${num}
variable ind equal 0

#variable lat0 equal 1                    #
variable lat1 equal 3+(100*0.01)+(v_ind*0.01)  # .491+(v_ind*0.001)       # Lattice distance of bottom chain
variable lat2 equal 3                    # Lattice distance of top chain
variable d1 equal 3                      # Diamter of particle at bottom chain
variable d2 equal 3                      # Diamter of particle at top chain
#variable d3 equal 1                      # Diamter of supporting particle

variable n2e1 equal 500*v_lat2             # Half length of top chain. 1500 is number of particles
variable n1e1 equal 1.5*v_n2e1*(v_lat1/v_lat2)             # Half length of bottom chain, which is 1.5 time larger than top chain
variable n1e2 equal -v_n1e1
variable n2e2 equal -v_n2e1
#variable lenspr equal -(v_n2e1+100)           # length of the spring connecting top chain and supporting particle
#variable lenspr1 equal -v_lenspr-0.1         # Position of supporting particle upper bound
#variable lenspr2 equal -v_lenspr+0.1         # Position of supporting particle lower bound

variable den equal 2.2 #grams/cm^3      # micrometer^3=10^-12 cm^3 Density of materials

variable V1 equal (1/6)*PI*(v_d1^3)     # Volume of particle 1
variable V2 equal (1/6)*PI*(v_d2^3)     # Volume of particle 2
#variable V3 equal (1/6)*PI*(v_d3^3)     # Volume of particle 3

variable mass1 equal v_den*v_V1  # Mass of particle 1 (picograms)
variable mass2 equal v_den*v_V2  # Mass of particle 2
#variable mass3 equal v_den*v_V3  # Mass of particle 3

# E GPa to picogram/(micrometer-microsecond^2)= 10^3 Pa= 10^-6 GPa
# Force unit(picogram-micrometer/microsecond^2)=10^-9 N= 1nN
# Spring stiffness (force/distance) 10^-3 N/m

variable K0 equal (1500/50)*(10^5)             # Spring stiffness conneting top chain and sup particle
variable E equal 100*(10^6)                    # Young's Modulus using for Hertz/material model
variable PR equal 0.3                          # Poisson's ratio using for Hertz/material model
variable Fn equal -1000                        # Force apply to each particles in top chain
variable dt equal 0.00001                      # Time step units microsecond
variable lgv equal 0.5                         #damping for langevin thermostat for slider


################### Creating the model #################################
lattice sc ${lat1}                                                               # Bottom chain type1
lattice sc 4                                                               
Lattice spacing in x,y,z = 4 4 4

region box block ${n1e2} ${n1e1} -100 100 -100 100 units box
region box block -3000 ${n1e1} -100 100 -100 100 units box
region box block -3000 3000 -100 100 -100 100 units box
region substrate block ${n1e2} ${n1e1} -0.5 0.5 0 0.5 units box
region substrate block -3000 ${n1e1} -0.5 0.5 0 0.5 units box
region substrate block -3000 3000 -0.5 0.5 0 0.5 units box

create_box 2 box
Created orthogonal box = (-3000 -100 -100) to (3000 100 100)
  4 by 1 by 1 MPI processor grid
create_atoms 1 region substrate
Created 1500 atoms
  using lattice units in orthogonal box = (-3000 -100 -100) to (3000 100 100)
  create_atoms CPU = 0.001 seconds

lattice sc ${lat2}                                                             # Top chain type2
lattice sc 3                                                             
Lattice spacing in x,y,z = 3 3 3

region slider1 block ${n2e2} ${n2e1} -0.1 0.1 5.9 6.1 units box
region slider1 block -1500 ${n2e1} -0.1 0.1 5.9 6.1 units box
region slider1 block -1500 1500 -0.1 0.1 5.9 6.1 units box

create_atoms 2 region slider1
Created 1001 atoms
  using lattice units in orthogonal box = (-3000 -100 -100) to (3000 100 100)
  create_atoms CPU = 0.001 seconds

#lattice sc ${lat0}                                                             # Supporting particle type3

#region support block ${lenspr1} ${lenspr2} -0.1 0.1 7.9 8.1 units box

#create_atoms 3 region support

set type 1 diameter ${d1}                    # Set mass and diameter for each particles type
set type 1 diameter 3                    
Setting atom values ...
  1500 settings made for diameter
set type 1 mass ${mass1}
set type 1 mass 31.101767270539
Setting atom values ...
  1500 settings made for mass
set type 2 diameter ${d2}
set type 2 diameter 3
Setting atom values ...
  1001 settings made for diameter
set type 2 mass ${mass2}
set type 2 mass 31.101767270539
Setting atom values ...
  1001 settings made for mass
#set type 3 diameter ${d3}
#set type 3 mass ${mass3}

group substrate region substrate           # Define gorup
1500 atoms in group substrate
group slider1 region slider1
1001 atoms in group slider1
#group support region support
#group substrate_slider union substrate slider1

########################## Potential ###################################
pair_style granular
pair_coeff 1 1 hertz/material 0.00000001 0.001 ${PR} tangential mindlin NULL 0.1 0.01 damping viscoelastic              ########### set E between each particle in same type is small to neglect their interaction
pair_coeff 1 1 hertz/material 0.00000001 0.001 0.3 tangential mindlin NULL 0.1 0.01 damping viscoelastic              
pair_coeff 2 2 hertz/material 0.00000001 0.001 ${PR} tangential mindlin NULL 0.1 0.01 damping viscoelastic
pair_coeff 2 2 hertz/material 0.00000001 0.001 0.3 tangential mindlin NULL 0.1 0.01 damping viscoelastic
#pair_coeff 3 3 hertz/material ${E} 0.001 ${PR} tangential mindlin NULL 0.1 0.01 damping viscoelastic
pair_coeff 1 2 hertz/material ${E} 0.001 ${PR} tangential mindlin NULL 0.1 0.01 damping viscoelastic
pair_coeff 1 2 hertz/material 100000000 0.001 ${PR} tangential mindlin NULL 0.1 0.01 damping viscoelastic
pair_coeff 1 2 hertz/material 100000000 0.001 0.3 tangential mindlin NULL 0.1 0.01 damping viscoelastic
#pair_coeff 1 3 hertz/material 0.00000001 0.001 ${PR} tangential mindlin NULL 0.1 0.01 damping viscoelastic
#pair_coeff 2 3 hertz/material 0.00000001 0.001 ${PR} tangential mindlin NULL 0.1 0.01 damping viscoelastic
comm_modify     vel yes
neigh_modify    delay 0 every 1 check yes

### Compute properties ###

compute 1 slider1 com                      # Compute the center of mass of top chain
#compute 2 support com                      # Compute the center of mass of supporting particle

variable p0 equal "step"

variable slider_z equal "c_1[3]"          # output the position of top chain in z-direction

#variable distance equal "c_2[1]-c_1[1]"   # Distance between COM of top chain and supporting particle

thermo 100000
thermo_style custom step lx ly lz press pxx pyy pzz ke pe temp c_1[1] c_1[2] c_1[3] #c_2[1] c_2[2] c_2[3] v_distance

############### Fix ##################


############## Equilibrium the system with apply force ########################

fix force_slider1 slider1 setforce NULL 0 NULL                                # Fix top chain not to move in y-direction

fix f_sub substrate freeze                                                    # Freeze the bottom chain

fix rigid_top slider1 rigid/nve group 1 slider1 langevin 0 0 ${lgv} 6987532   # NVE+langevin
fix rigid_top slider1 rigid/nve group 1 slider1 langevin 0 0 0.5 6987532   
  1 rigid bodies with 1001 atoms

fix add slider1 addforce 0 0 ${Fn} every 1                                    # Add force to top layer
fix add slider1 addforce 0 0 -1000 every 1                                    

timestep ${dt}
timestep 1e-05

# fix  nve_1 slider1 nve

dump 		D1 all custom 100000 Equi_${num}_*.dump id type diameter mass xu yu zu fx fy fz
dump 		D1 all custom 100000 Equi_0_*.dump id type diameter mass xu yu zu fx fy fz

run 3000000
Generated 0 of 1 mixed pair_coeff terms from geometric mixing rule
Neighbor list info ...
  update every 1 steps, delay 0 steps, check yes
  max neighbors/atom: 2000, page size: 100000
  master list distance cutoff = 3.1
  ghost atom cutoff = 3.1
  binsize = 1.55, bins = 3871 130 130
  1 neighbor lists, perpetual/occasional/extra = 1 0 0
  (1) pair granular, perpetual
      attributes: half, newton on, size, history
      pair build: half/size/bin/newton
      stencil: half/bin/3d
      bin: standard
Per MPI rank memory allocation (min/avg/max) = 80.51 | 80.51 | 80.52 Mbytes
   Step           Lx             Ly             Lz           Press           Pxx            Pyy            Pzz           KinEng         PotEng          Temp          c_1[1]         c_1[2]         c_1[3]    
         0   6000           200            200            0              0              0              0              0              0              0              1.1965779e-13  0              6            
    100000   6000           200            200            0.0034131151  -2.6926365e-35  0              0.010239345    590902.63      0              5.7065147e+10  1.1965779e-13  0              3.3252534    
    200000   6000           200            200            0.001253493    2.1442303e-40  0              0.0037604789   152306.09      0              1.4708632e+10  1.1965779e-13  0              3.07009      
    300000   6000           200            200            0.00019506075  1.0770617e-34  0              0.00058518226  6938.8263      0              6.7010218e+08  1.1965779e-13  0              3.0459293    
    400000   6000           200            200           -8.8305839e-05 -5.3852465e-35  0             -0.00026491752  2024.9443      0              1.9555463e+08  1.1965779e-13  0              3.0087317    
    500000   6000           200            200            0.0055796254  -1.3463196e-34  0              0.016738876    2206.2751      0              2.1306625e+08  1.1965779e-13  0              2.9981038    
    600000   6000           200            200            0.0074564561  -5.3852739e-35  0              0.022369368    40.13592       0              3876039.8      1.1965779e-13  0              2.9976729    
    700000   6000           200            200            0.0032218687  -2.6926312e-35  0              0.0096656061   14.853115      0              1434407.5      1.1965779e-13  0              2.9986709    
    800000   6000           200            200            0.0038438309  -1.2116891e-34  0              0.011531493    2.6657595      0              257439.97      1.1965779e-13  0              2.9985015    
    900000   6000           200            200            0.0042389511   1.346333e-35   0              0.012716853    0.63760218     0              61575.055      1.1965779e-13  0              2.9984009    
   1000000   6000           200            200            0.0042271243   2.0194895e-35  0              0.012681373    0.0026958923   0              260.34998      1.1965779e-13  0              2.9984044    
   1100000   6000           200            200            0.004171805    1.5357816e-41  0              0.012515415    0.013953506    0              1347.5298      1.1965779e-13  0              2.9984183    
   1200000   6000           200            200            0.004161494    2.0194849e-35  0              0.012484482    0.00035161284  0              33.956251      1.1965779e-13  0              2.9984209    
   1300000   6000           200            200            0.0041666532   3.3658192e-36  0              0.01249996     0.00013835435  0              13.361273      1.1965779e-13  0              2.9984196    
   1400000   6000           200            200            0.004169162    1.5979729e-41  0              0.012507486    2.5786697e-05  0              2.4902946      1.1965779e-13  0              2.998419     
   1500000   6000           200            200            0.0041690161   3.3658244e-36  0              0.012507048    2.2312172e-07  0              0.021547499    1.1965779e-13  0              2.998419     
   1600000   6000           200            200            0.0041686477  -1.0097402e-35  0              0.012505943    6.1492319e-07  0              0.059384881    1.1965779e-13  0              2.9984191    
   1700000   6000           200            200            0.004168587    3.7023889e-35  0              0.012505761    1.1534792e-08  0              0.0011139476   1.1965779e-13  0              2.9984191    
   1800000   6000           200            200            0.0041686232   1.7106434e-41  0              0.01250587     6.6946537e-09  0              0.00064652174  1.1965779e-13  0              2.9984191    
   1900000   6000           200            200            0.0041686393   2.0194856e-35  0              0.012505918    1.0386627e-09  0              0.00010030661  1.1965779e-13  0              2.9984191    
   2000000   6000           200            200            0.0041686379   6.7316299e-36  0              0.012505914    1.567391e-11   0              1.5136741e-06  1.1965779e-13  0              2.9984191    
   2100000   6000           200            200            0.0041686354  -2.3560629e-35  0              0.012505906    2.689622e-11   0              2.5974444e-06  1.1965779e-13  0              2.9984191    
   2200000   6000           200            200            0.0041686351  -3.3657899e-36  0              0.012505905    3.5681887e-13  0              3.4459012e-08  1.1965779e-13  0              2.9984191    
   2300000   6000           200            200            0.0041686353   1.6649372e-41  0              0.012505906    3.201705e-13   0              3.0919776e-08  1.1965779e-13  0              2.9984191    
   2400000   6000           200            200            0.0041686355   1.6690786e-41  0              0.012505906    4.1417547e-14  0              3.9998103e-09  1.1965779e-13  0              2.9984191    
   2500000   6000           200            200            0.0041686354   4.3755502e-35  0              0.012505906    9.2457901e-16  0              8.9289223e-11  1.1965779e-13  0              2.9984191    
   2600000   6000           200            200            0.0041686354  -6.7315965e-36  0              0.012505906    1.1559357e-15  0              1.11632e-10    1.1965779e-13  0              2.9984191    
   2700000   6000           200            200            0.0041686354  -2.3560629e-35  0              0.012505906    1.6731681e-19  0              1.615826e-14   1.1965779e-13  0              2.9984191    
   2800000   6000           200            200            0.0041686354   1.0097436e-35  0              0.012505906    1.4182824e-17  0              1.3696757e-12  1.1965779e-13  0              2.9984191    
   2900000   6000           200            200            0.0041686354   1.6527591e-41  0              0.012505906    2.7951726e-18  0              2.6993776e-13  1.1965779e-13  0              2.9984191    
   3000000   6000           200            200            0.0041686354  -1.1780306e-35  0              0.012505906    6.655735e-19   0              6.4276324e-14  1.1965779e-13  0              2.9984191    
Loop time of 321.627 on 4 procs for 3000000 steps with 2501 atoms

Performance: 8059012.740 ns/day, 0.000 hours/ns, 9327.561 timesteps/s
100.0% CPU use with 4 MPI tasks x 1 OpenMP threads

MPI task timing breakdown:
Section |  min time  |  avg time  |  max time  |%varavg| %total
---------------------------------------------------------------
Pair    | 12.037     | 47.642     | 82.686     | 505.4 | 14.81
Neigh   | 3.7875     | 3.8598     | 3.933      |   3.1 |  1.20
Comm    | 25.88      | 46.05      | 98.021     | 443.1 | 14.32
Output  | 0.27187    | 0.2722     | 0.27259    |   0.1 |  0.08
Modify  | 111.37     | 165.65     | 186.03     | 243.7 | 51.50
Other   |            | 58.15      |            |       | 18.08

Nlocal:         625.25 ave         875 max         375 min
Histogram: 2 0 0 0 0 0 0 0 0 2
Nghost:           2.75 ave           3 max           2 min
Histogram: 1 0 0 0 0 0 0 0 0 3
Neighs:         312.75 ave         625 max           0 min
Histogram: 2 0 0 0 0 0 0 0 0 2

Total # of neighbors = 1251
Ave neighs/atom = 0.50019992
Neighbor list builds = 168
Dangerous builds = 0

undump D1

############ Add spring between top chain to supp particle and then equilibrium  ###########

#fix sp1 support spring couple slider1 ${K0} ${lenspr} NULL NULL 0                                 # Add spring

#dump 		D2 all custom 100000 add_${num}*.dump id type diameter mass xu yu zu

#fix add1 all print 10 "${p0} ${distance} ${slider_z}" file add_distance_${num}.txt screen no      # out put step, distance(spring length), z-position of top chain

#run 1000000

#undump D2

#unfix add1

########## Pulling the supporting particle with constant velocity #############

#fix m1 support move linear 0.1 0 0 units box                                                      # apply constant velocity to supporting particles along x-direction V=0.1m/s

#fix move1 all print 100 "${p0} ${distance} ${slider_z}" file move_distance_${num}.txt screen no

#dump 		1 all custom 50000 move_${num}_*.dump id type diameter mass xu yu zu

#run 1000000

clear
  using 1 OpenMP thread(s) per MPI task

next num

jump SELF startloop

include granular.in
### Simulation of contact between two chain

##################### Simulation setup ####################

units micro                              # units
dimension	3                            # dimension
boundary	p p p                        # boundary condition p: periodic
atom_style	sphere                       # atom style
#processors * * 1

####################### Parameter ##################################

variable ind equal ${num}
variable ind equal 1

#variable lat0 equal 1                    #
variable lat1 equal 3+(100*0.01)+(v_ind*0.01)  # .491+(v_ind*0.001)       # Lattice distance of bottom chain
variable lat2 equal 3                    # Lattice distance of top chain
variable d1 equal 3                      # Diamter of particle at bottom chain
variable d2 equal 3                      # Diamter of particle at top chain
#variable d3 equal 1                      # Diamter of supporting particle

variable n2e1 equal 500*v_lat2             # Half length of top chain. 1500 is number of particles
variable n1e1 equal 1.5*v_n2e1*(v_lat1/v_lat2)             # Half length of bottom chain, which is 1.5 time larger than top chain
variable n1e2 equal -v_n1e1
variable n2e2 equal -v_n2e1
#variable lenspr equal -(v_n2e1+100)           # length of the spring connecting top chain and supporting particle
#variable lenspr1 equal -v_lenspr-0.1         # Position of supporting particle upper bound
#variable lenspr2 equal -v_lenspr+0.1         # Position of supporting particle lower bound

variable den equal 2.2 #grams/cm^3      # micrometer^3=10^-12 cm^3 Density of materials

variable V1 equal (1/6)*PI*(v_d1^3)     # Volume of particle 1
variable V2 equal (1/6)*PI*(v_d2^3)     # Volume of particle 2
#variable V3 equal (1/6)*PI*(v_d3^3)     # Volume of particle 3

variable mass1 equal v_den*v_V1  # Mass of particle 1 (picograms)
variable mass2 equal v_den*v_V2  # Mass of particle 2
#variable mass3 equal v_den*v_V3  # Mass of particle 3

# E GPa to picogram/(micrometer-microsecond^2)= 10^3 Pa= 10^-6 GPa
# Force unit(picogram-micrometer/microsecond^2)=10^-9 N= 1nN
# Spring stiffness (force/distance) 10^-3 N/m

variable K0 equal (1500/50)*(10^5)             # Spring stiffness conneting top chain and sup particle
variable E equal 100*(10^6)                    # Young's Modulus using for Hertz/material model
variable PR equal 0.3                          # Poisson's ratio using for Hertz/material model
variable Fn equal -1000                        # Force apply to each particles in top chain
variable dt equal 0.00001                      # Time step units microsecond
variable lgv equal 0.5                         #damping for langevin thermostat for slider


################### Creating the model #################################
lattice sc ${lat1}                                                               # Bottom chain type1
lattice sc 4.01                                                               
Lattice spacing in x,y,z = 4.01 4.01 4.01

region box block ${n1e2} ${n1e1} -100 100 -100 100 units box
region box block -3007.5 ${n1e1} -100 100 -100 100 units box
region box block -3007.5 3007.5 -100 100 -100 100 units box
region substrate block ${n1e2} ${n1e1} -0.5 0.5 0 0.5 units box
region substrate block -3007.5 ${n1e1} -0.5 0.5 0 0.5 units box
region substrate block -3007.5 3007.5 -0.5 0.5 0 0.5 units box

create_box 2 box
Created orthogonal box = (-3007.5 -100 -100) to (3007.5 100 100)
  4 by 1 by 1 MPI processor grid
create_atoms 1 region substrate
Created 1500 atoms
  using lattice units in orthogonal box = (-3007.5 -100 -100) to (3007.5 100 100)
  create_atoms CPU = 0.001 seconds

lattice sc ${lat2}                                                             # Top chain type2
lattice sc 3                                                             
Lattice spacing in x,y,z = 3 3 3

region slider1 block ${n2e2} ${n2e1} -0.1 0.1 5.9 6.1 units box
region slider1 block -1500 ${n2e1} -0.1 0.1 5.9 6.1 units box
region slider1 block -1500 1500 -0.1 0.1 5.9 6.1 units box

create_atoms 2 region slider1
Created 1001 atoms
  using lattice units in orthogonal box = (-3007.5 -100 -100) to (3007.5 100 100)
  create_atoms CPU = 0.001 seconds

#lattice sc ${lat0}                                                             # Supporting particle type3

#region support block ${lenspr1} ${lenspr2} -0.1 0.1 7.9 8.1 units box

#create_atoms 3 region support

set type 1 diameter ${d1}                    # Set mass and diameter for each particles type
set type 1 diameter 3                    
Setting atom values ...
  1500 settings made for diameter
set type 1 mass ${mass1}
set type 1 mass 31.101767270539
Setting atom values ...
  1500 settings made for mass
set type 2 diameter ${d2}
set type 2 diameter 3
Setting atom values ...
  1001 settings made for diameter
set type 2 mass ${mass2}
set type 2 mass 31.101767270539
Setting atom values ...
  1001 settings made for mass
#set type 3 diameter ${d3}
#set type 3 mass ${mass3}

group substrate region substrate           # Define gorup
1500 atoms in group substrate
group slider1 region slider1
1001 atoms in group slider1
#group support region support
#group substrate_slider union substrate slider1

########################## Potential ###################################
pair_style granular
pair_coeff 1 1 hertz/material 0.00000001 0.001 ${PR} tangential mindlin NULL 0.1 0.01 damping viscoelastic              ########### set E between each particle in same type is small to neglect their interaction
pair_coeff 1 1 hertz/material 0.00000001 0.001 0.3 tangential mindlin NULL 0.1 0.01 damping viscoelastic              
pair_coeff 2 2 hertz/material 0.00000001 0.001 ${PR} tangential mindlin NULL 0.1 0.01 damping viscoelastic
pair_coeff 2 2 hertz/material 0.00000001 0.001 0.3 tangential mindlin NULL 0.1 0.01 damping viscoelastic
#pair_coeff 3 3 hertz/material ${E} 0.001 ${PR} tangential mindlin NULL 0.1 0.01 damping viscoelastic
pair_coeff 1 2 hertz/material ${E} 0.001 ${PR} tangential mindlin NULL 0.1 0.01 damping viscoelastic
pair_coeff 1 2 hertz/material 100000000 0.001 ${PR} tangential mindlin NULL 0.1 0.01 damping viscoelastic
pair_coeff 1 2 hertz/material 100000000 0.001 0.3 tangential mindlin NULL 0.1 0.01 damping viscoelastic
#pair_coeff 1 3 hertz/material 0.00000001 0.001 ${PR} tangential mindlin NULL 0.1 0.01 damping viscoelastic
#pair_coeff 2 3 hertz/material 0.00000001 0.001 ${PR} tangential mindlin NULL 0.1 0.01 damping viscoelastic
comm_modify     vel yes
neigh_modify    delay 0 every 1 check yes

### Compute properties ###

compute 1 slider1 com                      # Compute the center of mass of top chain
#compute 2 support com                      # Compute the center of mass of supporting particle

variable p0 equal "step"

variable slider_z equal "c_1[3]"          # output the position of top chain in z-direction

#variable distance equal "c_2[1]-c_1[1]"   # Distance between COM of top chain and supporting particle

thermo 100000
thermo_style custom step lx ly lz press pxx pyy pzz ke pe temp c_1[1] c_1[2] c_1[3] #c_2[1] c_2[2] c_2[3] v_distance

############### Fix ##################


############## Equilibrium the system with apply force ########################

fix force_slider1 slider1 setforce NULL 0 NULL                                # Fix top chain not to move in y-direction

fix f_sub substrate freeze                                                    # Freeze the bottom chain

fix rigid_top slider1 rigid/nve group 1 slider1 langevin 0 0 ${lgv} 6987532   # NVE+langevin
fix rigid_top slider1 rigid/nve group 1 slider1 langevin 0 0 0.5 6987532   
  1 rigid bodies with 1001 atoms

fix add slider1 addforce 0 0 ${Fn} every 1                                    # Add force to top layer
fix add slider1 addforce 0 0 -1000 every 1                                    

timestep ${dt}
timestep 1e-05

# fix  nve_1 slider1 nve

dump 		D1 all custom 100000 Equi_${num}_*.dump id type diameter mass xu yu zu fx fy fz
dump 		D1 all custom 100000 Equi_1_*.dump id type diameter mass xu yu zu fx fy fz

run 3000000
Generated 0 of 1 mixed pair_coeff terms from geometric mixing rule
Neighbor list info ...
  update every 1 steps, delay 0 steps, check yes
  max neighbors/atom: 2000, page size: 100000
  master list distance cutoff = 3.1
  ghost atom cutoff = 3.1
  binsize = 1.55, bins = 3881 130 130
  1 neighbor lists, perpetual/occasional/extra = 1 0 0
  (1) pair granular, perpetual
      attributes: half, newton on, size, history
      pair build: half/size/bin/newton
      stencil: half/bin/3d
      bin: standard
Per MPI rank memory allocation (min/avg/max) = 80.72 | 80.72 | 80.73 Mbytes
   Step           Lx             Ly             Lz           Press           Pxx            Pyy            Pzz           KinEng         PotEng          Temp          c_1[1]         c_1[2]         c_1[3]    
         0   6015           200            200            0              0              0              0              0              0              0              1.1965779e-13  0              6            
    100000   6015           200            200            0.0033768458   8.1798678e-41  0              0.010130537    584185.12      0              5.6416418e+10  1.1965779e-13  0              3.3270137    
    200000   6015           200            200            0.0011880238   5.3718921e-35  0              0.0035640714   140814.51      0              1.3598857e+10  1.1965779e-13  0              3.0753482    
    300000   6015           200            200            6.7649457e-05  5.371883e-35   0              0.00020294837  955.4515       0              92270667       1.1965779e-13  0              3.0453705    
    400000   6015           200            200            0.00017909494 -1.6115516e-34  0              0.00053728481  6113.9064      0              5.9043732e+08  1.1965779e-13  0              3.0008542    
    500000   6015           200            200            0.00087841006  7.0245317e-05  0              0.0025649849   348.47136      0              33652870       1.1965779e-13  0              2.9978563    
    600000   6015           200            200            0.0036613577   0.0015888489   0              0.0093952243   128.37185      0              12397234       1.1965779e-13  0              2.9958117    
    700000   6015           200            200            0.0055577387   0.0023554402   0              0.014317776    2.604061       0              251481.57      1.1965779e-13  0              2.994811     
    800000   6015           200            200            0.0048310747   0.0021772451   0              0.012315979    3.6323969      0              350790.89      1.1965779e-13  0              2.9951838    
    900000   6015           200            200            0.0048155075   0.0021840386   0              0.012262484    0.19434779     0              18768.718      1.1965779e-13  0              2.9951971    
   1000000   6015           200            200            0.0049149926   0.0021977236   0              0.012547254    0.011364945    0              1097.545       1.1965779e-13  0              2.9951411    
   1100000   6015           200            200            0.0048837109   0.0021932502   0              0.012457882    0.0091997924   0              888.4501       1.1965779e-13  0              2.9951582    
   1200000   6015           200            200            0.0048811308   0.0021926634   0              0.012450729    0.00038914709  0              37.581041      1.1965779e-13  0              2.9951597    
   1300000   6015           200            200            0.0048861855   0.0021932544   0              0.012465302    3.4789346e-05  0              3.3597061      1.1965779e-13  0              2.9951569    
   1400000   6015           200            200            0.0048847214   0.0021930883   0              0.012461076    2.2682775e-05  0              2.19054        1.1965779e-13  0              2.9951577    
   1500000   6015           200            200            0.004884562    0.0021930684   0              0.012460618    8.1502578e-07  0              0.078709356    1.1965779e-13  0              2.9951578    
   1600000   6015           200            200            0.0048848163   0.002193098    0              0.012461351    1.0256802e-07  0              0.0099052857   1.1965779e-13  0              2.9951577    
   1700000   6015           200            200            0.0048847471   0.0021930901   0              0.012461151    5.5648561e-08  0              0.0053741397   1.1965779e-13  0              2.9951577    
   1800000   6015           200            200            0.0048847375   0.002193089    0              0.012461123    1.6746759e-09  0              0.00016172822  1.1965779e-13  0              2.9951577    
   1900000   6015           200            200            0.0048847502   0.0021930904   0              0.01246116     2.963669e-10   0              2.8620994e-05  1.1965779e-13  0              2.9951577    
   2000000   6015           200            200            0.004884747    0.0021930901   0              0.012461151    1.3583383e-10  0              1.3117859e-05  1.1965779e-13  0              2.9951577    
   2100000   6015           200            200            0.0048847464   0.00219309     0              0.012461149    3.3646473e-12  0              3.2493355e-07  1.1965779e-13  0              2.9951577    
   2200000   6015           200            200            0.0048847471   0.0021930901   0              0.012461151    8.4133805e-13  0              8.1250406e-08  1.1965779e-13  0              2.9951577    
   2300000   6015           200            200            0.0048847469   0.0021930901   0              0.012461151    3.3004366e-13  0              3.1873255e-08  1.1965779e-13  0              2.9951577    
   2400000   6015           200            200            0.0048847469   0.00219309     0              0.012461151    6.5559423e-15  0              6.3312598e-10  1.1965779e-13  0              2.9951577    
   2500000   6015           200            200            0.0048847469   0.0021930901   0              0.012461151    2.29981e-15    0              2.2209919e-10  1.1965779e-13  0              2.9951577    
   2600000   6015           200            200            0.0048847469   0.0021930901   0              0.012461151    7.8961557e-16  0              7.625542e-11   1.1965779e-13  0              2.9951577    
   2700000   6015           200            200            0.0048847469   0.00219309     0              0.012461151    1.1611285e-17  0              1.1213348e-12  1.1965779e-13  0              2.9951577    
   2800000   6015           200            200            0.0048847469   0.00219309     0              0.012461151    2.2362676e-18  0              2.1596272e-13  1.1965779e-13  0              2.9951577    
   2900000   6015           200            200            0.0048847469   0.00219309     0              0.012461151    7.5145587e-18  0              7.257023e-13   1.1965779e-13  0              2.9951577    
   3000000   6015           200            200            0.0048847469   0.0021930901   0              0.012461151    6.1327279e-18  0              5.9225496e-13  1.1965779e-13  0              2.9951577    
Loop time of 305.019 on 4 procs for 3000000 steps with 2501 atoms

Performance: 8497824.388 ns/day, 0.000 hours/ns, 9835.445 timesteps/s
100.0% CPU use with 4 MPI tasks x 1 OpenMP threads

MPI task timing breakdown:
Section |  min time  |  avg time  |  max time  |%varavg| %total
---------------------------------------------------------------
Pair    | 11.165     | 42.567     | 73.248     | 466.1 | 13.96
Neigh   | 3.6931     | 3.7631     | 3.8326     |   3.1 |  1.23
Comm    | 19.893     | 39.481     | 84.283     | 414.3 | 12.94
Output  | 0.27261    | 0.27295    | 0.27336    |   0.1 |  0.09
Modify  | 110.57     | 161.68     | 180.1      | 232.1 | 53.01
Other   |            | 57.26      |            |       | 18.77

Nlocal:         625.25 ave         876 max         375 min
Histogram: 2 0 0 0 0 0 0 0 0 2
Nghost:           1.75 ave           3 max           1 min
Histogram: 2 0 0 0 0 1 0 0 0 1
Neighs:         349.75 ave         700 max           0 min
Histogram: 2 0 0 0 0 0 0 0 0 2

Total # of neighbors = 1399
Ave neighs/atom = 0.55937625
Neighbor list builds = 164
Dangerous builds = 0

undump D1

############ Add spring between top chain to supp particle and then equilibrium  ###########

#fix sp1 support spring couple slider1 ${K0} ${lenspr} NULL NULL 0                                 # Add spring

#dump 		D2 all custom 100000 add_${num}*.dump id type diameter mass xu yu zu

#fix add1 all print 10 "${p0} ${distance} ${slider_z}" file add_distance_${num}.txt screen no      # out put step, distance(spring length), z-position of top chain

#run 1000000

#undump D2

#unfix add1

########## Pulling the supporting particle with constant velocity #############

#fix m1 support move linear 0.1 0 0 units box                                                      # apply constant velocity to supporting particles along x-direction V=0.1m/s

#fix move1 all print 100 "${p0} ${distance} ${slider_z}" file move_distance_${num}.txt screen no

#dump 		1 all custom 50000 move_${num}_*.dump id type diameter mass xu yu zu

#run 1000000

clear
  using 1 OpenMP thread(s) per MPI task

next num

jump SELF startloop

include granular.in
### Simulation of contact between two chain

##################### Simulation setup ####################

units micro                              # units
dimension	3                            # dimension
boundary	p p p                        # boundary condition p: periodic
atom_style	sphere                       # atom style
#processors * * 1

####################### Parameter ##################################

variable ind equal ${num}
variable ind equal 2

#variable lat0 equal 1                    #
variable lat1 equal 3+(100*0.01)+(v_ind*0.01)  # .491+(v_ind*0.001)       # Lattice distance of bottom chain
variable lat2 equal 3                    # Lattice distance of top chain
variable d1 equal 3                      # Diamter of particle at bottom chain
variable d2 equal 3                      # Diamter of particle at top chain
#variable d3 equal 1                      # Diamter of supporting particle

variable n2e1 equal 500*v_lat2             # Half length of top chain. 1500 is number of particles
variable n1e1 equal 1.5*v_n2e1*(v_lat1/v_lat2)             # Half length of bottom chain, which is 1.5 time larger than top chain
variable n1e2 equal -v_n1e1
variable n2e2 equal -v_n2e1
#variable lenspr equal -(v_n2e1+100)           # length of the spring connecting top chain and supporting particle
#variable lenspr1 equal -v_lenspr-0.1         # Position of supporting particle upper bound
#variable lenspr2 equal -v_lenspr+0.1         # Position of supporting particle lower bound

variable den equal 2.2 #grams/cm^3      # micrometer^3=10^-12 cm^3 Density of materials

variable V1 equal (1/6)*PI*(v_d1^3)     # Volume of particle 1
variable V2 equal (1/6)*PI*(v_d2^3)     # Volume of particle 2
#variable V3 equal (1/6)*PI*(v_d3^3)     # Volume of particle 3

variable mass1 equal v_den*v_V1  # Mass of particle 1 (picograms)
variable mass2 equal v_den*v_V2  # Mass of particle 2
#variable mass3 equal v_den*v_V3  # Mass of particle 3

# E GPa to picogram/(micrometer-microsecond^2)= 10^3 Pa= 10^-6 GPa
# Force unit(picogram-micrometer/microsecond^2)=10^-9 N= 1nN
# Spring stiffness (force/distance) 10^-3 N/m

variable K0 equal (1500/50)*(10^5)             # Spring stiffness conneting top chain and sup particle
variable E equal 100*(10^6)                    # Young's Modulus using for Hertz/material model
variable PR equal 0.3                          # Poisson's ratio using for Hertz/material model
variable Fn equal -1000                        # Force apply to each particles in top chain
variable dt equal 0.00001                      # Time step units microsecond
variable lgv equal 0.5                         #damping for langevin thermostat for slider


################### Creating the model #################################
lattice sc ${lat1}                                                               # Bottom chain type1
lattice sc 4.02                                                               
Lattice spacing in x,y,z = 4.02 4.02 4.02

region box block ${n1e2} ${n1e1} -100 100 -100 100 units box
region box block -3015 ${n1e1} -100 100 -100 100 units box
region box block -3015 3015 -100 100 -100 100 units box
region substrate block ${n1e2} ${n1e1} -0.5 0.5 0 0.5 units box
region substrate block -3015 ${n1e1} -0.5 0.5 0 0.5 units box
region substrate block -3015 3015 -0.5 0.5 0 0.5 units box

create_box 2 box
Created orthogonal box = (-3015 -100 -100) to (3015 100 100)
  4 by 1 by 1 MPI processor grid
create_atoms 1 region substrate
Created 1500 atoms
  using lattice units in orthogonal box = (-3015 -100 -100) to (3015 100 100)
  create_atoms CPU = 0.001 seconds

lattice sc ${lat2}                                                             # Top chain type2
lattice sc 3                                                             
Lattice spacing in x,y,z = 3 3 3

region slider1 block ${n2e2} ${n2e1} -0.1 0.1 5.9 6.1 units box
region slider1 block -1500 ${n2e1} -0.1 0.1 5.9 6.1 units box
region slider1 block -1500 1500 -0.1 0.1 5.9 6.1 units box

create_atoms 2 region slider1
Created 1001 atoms
  using lattice units in orthogonal box = (-3015 -100 -100) to (3015 100 100)
  create_atoms CPU = 0.001 seconds

#lattice sc ${lat0}                                                             # Supporting particle type3

#region support block ${lenspr1} ${lenspr2} -0.1 0.1 7.9 8.1 units box

#create_atoms 3 region support

set type 1 diameter ${d1}                    # Set mass and diameter for each particles type
set type 1 diameter 3                    
Setting atom values ...
  1500 settings made for diameter
set type 1 mass ${mass1}
set type 1 mass 31.101767270539
Setting atom values ...
  1500 settings made for mass
set type 2 diameter ${d2}
set type 2 diameter 3
Setting atom values ...
  1001 settings made for diameter
set type 2 mass ${mass2}
set type 2 mass 31.101767270539
Setting atom values ...
  1001 settings made for mass
#set type 3 diameter ${d3}
#set type 3 mass ${mass3}

group substrate region substrate           # Define gorup
1500 atoms in group substrate
group slider1 region slider1
1001 atoms in group slider1
#group support region support
#group substrate_slider union substrate slider1

########################## Potential ###################################
pair_style granular
pair_coeff 1 1 hertz/material 0.00000001 0.001 ${PR} tangential mindlin NULL 0.1 0.01 damping viscoelastic              ########### set E between each particle in same type is small to neglect their interaction
pair_coeff 1 1 hertz/material 0.00000001 0.001 0.3 tangential mindlin NULL 0.1 0.01 damping viscoelastic              
pair_coeff 2 2 hertz/material 0.00000001 0.001 ${PR} tangential mindlin NULL 0.1 0.01 damping viscoelastic
pair_coeff 2 2 hertz/material 0.00000001 0.001 0.3 tangential mindlin NULL 0.1 0.01 damping viscoelastic
#pair_coeff 3 3 hertz/material ${E} 0.001 ${PR} tangential mindlin NULL 0.1 0.01 damping viscoelastic
pair_coeff 1 2 hertz/material ${E} 0.001 ${PR} tangential mindlin NULL 0.1 0.01 damping viscoelastic
pair_coeff 1 2 hertz/material 100000000 0.001 ${PR} tangential mindlin NULL 0.1 0.01 damping viscoelastic
pair_coeff 1 2 hertz/material 100000000 0.001 0.3 tangential mindlin NULL 0.1 0.01 damping viscoelastic
#pair_coeff 1 3 hertz/material 0.00000001 0.001 ${PR} tangential mindlin NULL 0.1 0.01 damping viscoelastic
#pair_coeff 2 3 hertz/material 0.00000001 0.001 ${PR} tangential mindlin NULL 0.1 0.01 damping viscoelastic
comm_modify     vel yes
neigh_modify    delay 0 every 1 check yes

### Compute properties ###

compute 1 slider1 com                      # Compute the center of mass of top chain
#compute 2 support com                      # Compute the center of mass of supporting particle

variable p0 equal "step"

variable slider_z equal "c_1[3]"          # output the position of top chain in z-direction

#variable distance equal "c_2[1]-c_1[1]"   # Distance between COM of top chain and supporting particle

thermo 100000
thermo_style custom step lx ly lz press pxx pyy pzz ke pe temp c_1[1] c_1[2] c_1[3] #c_2[1] c_2[2] c_2[3] v_distance

############### Fix ##################


############## Equilibrium the system with apply force ########################

fix force_slider1 slider1 setforce NULL 0 NULL                                # Fix top chain not to move in y-direction

fix f_sub substrate freeze                                                    # Freeze the bottom chain

fix rigid_top slider1 rigid/nve group 1 slider1 langevin 0 0 ${lgv} 6987532   # NVE+langevin
fix rigid_top slider1 rigid/nve group 1 slider1 langevin 0 0 0.5 6987532   
  1 rigid bodies with 1001 atoms

fix add slider1 addforce 0 0 ${Fn} every 1                                    # Add force to top layer
fix add slider1 addforce 0 0 -1000 every 1                                    

timestep ${dt}
timestep 1e-05

# fix  nve_1 slider1 nve

dump 		D1 all custom 100000 Equi_${num}_*.dump id type diameter mass xu yu zu fx fy fz
dump 		D1 all custom 100000 Equi_2_*.dump id type diameter mass xu yu zu fx fy fz

run 3000000
Generated 0 of 1 mixed pair_coeff terms from geometric mixing rule
Neighbor list info ...
  update every 1 steps, delay 0 steps, check yes
  max neighbors/atom: 2000, page size: 100000
  master list distance cutoff = 3.1
  ghost atom cutoff = 3.1
  binsize = 1.55, bins = 3891 130 130
  1 neighbor lists, perpetual/occasional/extra = 1 0 0
  (1) pair granular, perpetual
      attributes: half, newton on, size, history
      pair build: half/size/bin/newton
      stencil: half/bin/3d
      bin: standard
Per MPI rank memory allocation (min/avg/max) = 80.85 | 80.86 | 80.87 Mbytes
   Step           Lx             Ly             Lz           Press           Pxx            Pyy            Pzz           KinEng         PotEng          Temp          c_1[1]         c_1[2]         c_1[3]    
         0   6030           200            200            0              0              0              0              0              0              0              1.1965779e-13  0              6            
    100000   6030           200            200            0.0033697737  -5.3584956e-35  0              0.010109321    584497.95      0              5.6446629e+10  1.1965779e-13  0              3.3270021    
    200000   6030           200            200            0.0011884631  -2.6791906e-35  0              0.0035653892   141434.09      0              1.3658692e+10  1.1965779e-13  0              3.0750895    
    300000   6030           200            200            7.564491e-05  -2.6792195e-35  0              0.00022693473  1189.4029      0              1.1486402e+08  1.1965779e-13  0              3.0455051    
    400000   6030           200            200            0.00034446571  4.1254295e-06  0              0.0010292717   8003.2445      0              7.7289607e+08  1.1965779e-13  0              2.9991307    
    500000   6030           200            200            0.0049720995   0.00098286549  0              0.013933433    1567.0194      0              1.5133152e+08  1.1965779e-13  0              2.9950979    
    600000   6030           200            200            0.0062595236   0.0014833538   0              0.017295217    42.285279      0              4083609.6      1.1965779e-13  0              2.9944478    
    700000   6030           200            200            0.0039636132   0.0011190395   0              0.0107718      6.2294384      0              601594.57      1.1965779e-13  0              2.9956621    
    800000   6030           200            200            0.0045995341   0.0011622383   0              0.012636364    3.5053935      0              338525.81      1.1965779e-13  0              2.9952974    
    900000   6030           200            200            0.0045675232   0.001160685    0              0.012541885    0.41483382     0              40061.681      1.1965779e-13  0              2.9953126    
   1000000   6030           200            200            0.0044999103   0.0011565502   0              0.012343181    0.0086998246   0              840.16679      1.1965779e-13  0              2.9953521    
   1100000   6030           200            200            0.0045406785   0.0011590135   0              0.012463022    0.0013384651   0              129.25938      1.1965779e-13  0              2.9953287    
   1200000   6030           200            200            0.0045279067   0.0011582588   0              0.012425461    0.0010388624   0              100.32589      1.1965779e-13  0              2.9953359    
   1300000   6030           200            200            0.004529269    0.0011583348   0              0.012429472    0.00015343516  0              14.817669      1.1965779e-13  0              2.9953352    
   1400000   6030           200            200            0.0045302588   0.001158396    0              0.012432381    5.3339953e-06  0              0.51511908     1.1965779e-13  0              2.9953346    
   1500000   6030           200            200            0.0045295434   0.0011583529   0              0.012430277    1.842204e-07   0              0.017790687    1.1965779e-13  0              2.995335     
   1600000   6030           200            200            0.0045297943   0.0011583678   0              0.012431015    2.9374251e-07  0              0.028367549    1.1965779e-13  0              2.9953349    
   1700000   6030           200            200            0.004529756    0.0011583656   0              0.012430902    5.4440368e-08  0              0.0052574611   1.1965779e-13  0              2.9953349    
   1800000   6030           200            200            0.0045297428   0.0011583647   0              0.012430864    2.7340503e-09  0              0.000264035    1.1965779e-13  0              2.9953349    
   1900000   6030           200            200            0.004529755    0.0011583655   0              0.0124309      1.1319416e-11  0              1.0931482e-06  1.1965779e-13  0              2.9953349    
   2000000   6030           200            200            0.0045297502   0.0011583652   0              0.012430885    7.8449534e-11  0              7.5760945e-06  1.1965779e-13  0              2.9953349    
   2100000   6030           200            200            0.0045297512   0.0011583653   0              0.012430888    1.8529323e-11  0              1.7894294e-06  1.1965779e-13  0              2.9953349    
   2200000   6030           200            200            0.0045297513   0.0011583653   0              0.012430889    1.2513412e-12  0              1.2084558e-07  1.1965779e-13  0              2.9953349    
   2300000   6030           200            200            0.0045297511   0.0011583653   0              0.012430888    3.9522783e-16  0              3.8168275e-11  1.1965779e-13  0              2.9953349    
   2400000   6030           200            200            0.0045297512   0.0011583653   0              0.012430888    1.9395092e-14  0              1.8730392e-09  1.1965779e-13  0              2.9953349    
   2500000   6030           200            200            0.0045297512   0.0011583653   0              0.012430888    6.0354936e-15  0              5.8286477e-10  1.1965779e-13  0              2.9953349    
   2600000   6030           200            200            0.0045297512   0.0011583653   0              0.012430888    5.2040408e-16  0              5.0256901e-11  1.1965779e-13  0              2.9953349    
   2700000   6030           200            200            0.0045297512   0.0011583653   0              0.012430888    2.8235367e-18  0              2.7267697e-13  1.1965779e-13  0              2.9953349    
   2800000   6030           200            200            0.0045297512   0.0011583653   0              0.012430888    1.0329704e-18  0              9.9756884e-14  1.1965779e-13  0              2.9953349    
   2900000   6030           200            200            0.0045297512   0.0011583653   0              0.012430888    1.5298491e-18  0              1.4774187e-13  1.1965779e-13  0              2.9953349    
   3000000   6030           200            200            0.0045297512   0.0011583653   0              0.012430888    3.8834868e-19  0              3.7503935e-14  1.1965779e-13  0              2.9953349    
Loop time of 303.06 on 4 procs for 3000000 steps with 2501 atoms

Performance: 8552750.731 ns/day, 0.000 hours/ns, 9899.017 timesteps/s
100.0% CPU use with 4 MPI tasks x 1 OpenMP threads

MPI task timing breakdown:
Section |  min time  |  avg time  |  max time  |%varavg| %total
---------------------------------------------------------------
Pair    | 11.482     | 41.485     | 72.724     | 461.3 | 13.69
Neigh   | 3.7011     | 3.7788     | 3.8559     |   3.4 |  1.25
Comm    | 17.374     | 23.758     | 28.384     |  96.1 |  7.84
Output  | 0.27359    | 0.27392    | 0.27427    |   0.1 |  0.09
Modify  | 175.46     | 176.89     | 178.21     |   7.4 | 58.37
Other   |            | 56.88      |            |       | 18.77

Nlocal:         625.25 ave         877 max         374 min
Histogram: 2 0 0 0 0 0 0 0 0 2
Nghost:           1.75 ave           3 max           1 min
Histogram: 2 0 0 0 0 1 0 0 0 1
Neighs:         350.75 ave         702 max           0 min
Histogram: 2 0 0 0 0 0 0 0 0 2

Total # of neighbors = 1403
Ave neighs/atom = 0.56097561
Neighbor list builds = 164
Dangerous builds = 0

undump D1

############ Add spring between top chain to supp particle and then equilibrium  ###########

#fix sp1 support spring couple slider1 ${K0} ${lenspr} NULL NULL 0                                 # Add spring

#dump 		D2 all custom 100000 add_${num}*.dump id type diameter mass xu yu zu

#fix add1 all print 10 "${p0} ${distance} ${slider_z}" file add_distance_${num}.txt screen no      # out put step, distance(spring length), z-position of top chain

#run 1000000

#undump D2

#unfix add1

########## Pulling the supporting particle with constant velocity #############

#fix m1 support move linear 0.1 0 0 units box                                                      # apply constant velocity to supporting particles along x-direction V=0.1m/s

#fix move1 all print 100 "${p0} ${distance} ${slider_z}" file move_distance_${num}.txt screen no

#dump 		1 all custom 50000 move_${num}_*.dump id type diameter mass xu yu zu

#run 1000000

clear
  using 1 OpenMP thread(s) per MPI task

next num

jump SELF startloop

include granular.in
### Simulation of contact between two chain

##################### Simulation setup ####################

units micro                              # units
dimension	3                            # dimension
boundary	p p p                        # boundary condition p: periodic
atom_style	sphere                       # atom style
#processors * * 1

####################### Parameter ##################################

variable ind equal ${num}
variable ind equal 3

#variable lat0 equal 1                    #
variable lat1 equal 3+(100*0.01)+(v_ind*0.01)  # .491+(v_ind*0.001)       # Lattice distance of bottom chain
variable lat2 equal 3                    # Lattice distance of top chain
variable d1 equal 3                      # Diamter of particle at bottom chain
variable d2 equal 3                      # Diamter of particle at top chain
#variable d3 equal 1                      # Diamter of supporting particle

variable n2e1 equal 500*v_lat2             # Half length of top chain. 1500 is number of particles
variable n1e1 equal 1.5*v_n2e1*(v_lat1/v_lat2)             # Half length of bottom chain, which is 1.5 time larger than top chain
variable n1e2 equal -v_n1e1
variable n2e2 equal -v_n2e1
#variable lenspr equal -(v_n2e1+100)           # length of the spring connecting top chain and supporting particle
#variable lenspr1 equal -v_lenspr-0.1         # Position of supporting particle upper bound
#variable lenspr2 equal -v_lenspr+0.1         # Position of supporting particle lower bound

variable den equal 2.2 #grams/cm^3      # micrometer^3=10^-12 cm^3 Density of materials

variable V1 equal (1/6)*PI*(v_d1^3)     # Volume of particle 1
variable V2 equal (1/6)*PI*(v_d2^3)     # Volume of particle 2
#variable V3 equal (1/6)*PI*(v_d3^3)     # Volume of particle 3

variable mass1 equal v_den*v_V1  # Mass of particle 1 (picograms)
variable mass2 equal v_den*v_V2  # Mass of particle 2
#variable mass3 equal v_den*v_V3  # Mass of particle 3

# E GPa to picogram/(micrometer-microsecond^2)= 10^3 Pa= 10^-6 GPa
# Force unit(picogram-micrometer/microsecond^2)=10^-9 N= 1nN
# Spring stiffness (force/distance) 10^-3 N/m

variable K0 equal (1500/50)*(10^5)             # Spring stiffness conneting top chain and sup particle
variable E equal 100*(10^6)                    # Young's Modulus using for Hertz/material model
variable PR equal 0.3                          # Poisson's ratio using for Hertz/material model
variable Fn equal -1000                        # Force apply to each particles in top chain
variable dt equal 0.00001                      # Time step units microsecond
variable lgv equal 0.5                         #damping for langevin thermostat for slider


################### Creating the model #################################
lattice sc ${lat1}                                                               # Bottom chain type1
lattice sc 4.03                                                               
Lattice spacing in x,y,z = 4.03 4.03 4.03

region box block ${n1e2} ${n1e1} -100 100 -100 100 units box
region box block -3022.5 ${n1e1} -100 100 -100 100 units box
region box block -3022.5 3022.5 -100 100 -100 100 units box
region substrate block ${n1e2} ${n1e1} -0.5 0.5 0 0.5 units box
region substrate block -3022.5 ${n1e1} -0.5 0.5 0 0.5 units box
region substrate block -3022.5 3022.5 -0.5 0.5 0 0.5 units box

create_box 2 box
Created orthogonal box = (-3022.5 -100 -100) to (3022.5 100 100)
  4 by 1 by 1 MPI processor grid
create_atoms 1 region substrate
Created 1500 atoms
  using lattice units in orthogonal box = (-3022.5 -100 -100) to (3022.5 100 100)
  create_atoms CPU = 0.001 seconds

lattice sc ${lat2}                                                             # Top chain type2
lattice sc 3                                                             
Lattice spacing in x,y,z = 3 3 3

region slider1 block ${n2e2} ${n2e1} -0.1 0.1 5.9 6.1 units box
region slider1 block -1500 ${n2e1} -0.1 0.1 5.9 6.1 units box
region slider1 block -1500 1500 -0.1 0.1 5.9 6.1 units box

create_atoms 2 region slider1
Created 1001 atoms
  using lattice units in orthogonal box = (-3022.5 -100 -100) to (3022.5 100 100)
  create_atoms CPU = 0.001 seconds

#lattice sc ${lat0}                                                             # Supporting particle type3

#region support block ${lenspr1} ${lenspr2} -0.1 0.1 7.9 8.1 units box

#create_atoms 3 region support

set type 1 diameter ${d1}                    # Set mass and diameter for each particles type
set type 1 diameter 3                    
Setting atom values ...
  1500 settings made for diameter
set type 1 mass ${mass1}
set type 1 mass 31.101767270539
Setting atom values ...
  1500 settings made for mass
set type 2 diameter ${d2}
set type 2 diameter 3
Setting atom values ...
  1001 settings made for diameter
set type 2 mass ${mass2}
set type 2 mass 31.101767270539
Setting atom values ...
  1001 settings made for mass
#set type 3 diameter ${d3}
#set type 3 mass ${mass3}

group substrate region substrate           # Define gorup
1500 atoms in group substrate
group slider1 region slider1
1001 atoms in group slider1
#group support region support
#group substrate_slider union substrate slider1

########################## Potential ###################################
pair_style granular
pair_coeff 1 1 hertz/material 0.00000001 0.001 ${PR} tangential mindlin NULL 0.1 0.01 damping viscoelastic              ########### set E between each particle in same type is small to neglect their interaction
pair_coeff 1 1 hertz/material 0.00000001 0.001 0.3 tangential mindlin NULL 0.1 0.01 damping viscoelastic              
pair_coeff 2 2 hertz/material 0.00000001 0.001 ${PR} tangential mindlin NULL 0.1 0.01 damping viscoelastic
pair_coeff 2 2 hertz/material 0.00000001 0.001 0.3 tangential mindlin NULL 0.1 0.01 damping viscoelastic
#pair_coeff 3 3 hertz/material ${E} 0.001 ${PR} tangential mindlin NULL 0.1 0.01 damping viscoelastic
pair_coeff 1 2 hertz/material ${E} 0.001 ${PR} tangential mindlin NULL 0.1 0.01 damping viscoelastic
pair_coeff 1 2 hertz/material 100000000 0.001 ${PR} tangential mindlin NULL 0.1 0.01 damping viscoelastic
pair_coeff 1 2 hertz/material 100000000 0.001 0.3 tangential mindlin NULL 0.1 0.01 damping viscoelastic
#pair_coeff 1 3 hertz/material 0.00000001 0.001 ${PR} tangential mindlin NULL 0.1 0.01 damping viscoelastic
#pair_coeff 2 3 hertz/material 0.00000001 0.001 ${PR} tangential mindlin NULL 0.1 0.01 damping viscoelastic
comm_modify     vel yes
neigh_modify    delay 0 every 1 check yes

### Compute properties ###

compute 1 slider1 com                      # Compute the center of mass of top chain
#compute 2 support com                      # Compute the center of mass of supporting particle

variable p0 equal "step"

variable slider_z equal "c_1[3]"          # output the position of top chain in z-direction

#variable distance equal "c_2[1]-c_1[1]"   # Distance between COM of top chain and supporting particle

thermo 100000
thermo_style custom step lx ly lz press pxx pyy pzz ke pe temp c_1[1] c_1[2] c_1[3] #c_2[1] c_2[2] c_2[3] v_distance

############### Fix ##################


############## Equilibrium the system with apply force ########################

fix force_slider1 slider1 setforce NULL 0 NULL                                # Fix top chain not to move in y-direction

fix f_sub substrate freeze                                                    # Freeze the bottom chain

fix rigid_top slider1 rigid/nve group 1 slider1 langevin 0 0 ${lgv} 6987532   # NVE+langevin
fix rigid_top slider1 rigid/nve group 1 slider1 langevin 0 0 0.5 6987532   
  1 rigid bodies with 1001 atoms

fix add slider1 addforce 0 0 ${Fn} every 1                                    # Add force to top layer
fix add slider1 addforce 0 0 -1000 every 1                                    

timestep ${dt}
timestep 1e-05

# fix  nve_1 slider1 nve

dump 		D1 all custom 100000 Equi_${num}_*.dump id type diameter mass xu yu zu fx fy fz
dump 		D1 all custom 100000 Equi_3_*.dump id type diameter mass xu yu zu fx fy fz

run 3000000
Generated 0 of 1 mixed pair_coeff terms from geometric mixing rule
Neighbor list info ...
  update every 1 steps, delay 0 steps, check yes
  max neighbors/atom: 2000, page size: 100000
  master list distance cutoff = 3.1
  ghost atom cutoff = 3.1
  binsize = 1.55, bins = 3900 130 130
  1 neighbor lists, perpetual/occasional/extra = 1 0 0
  (1) pair granular, perpetual
      attributes: half, newton on, size, history
      pair build: half/size/bin/newton
      stencil: half/bin/3d
      bin: standard
Per MPI rank memory allocation (min/avg/max) = 81.06 | 81.07 | 81.07 Mbytes
   Step           Lx             Ly             Lz           Press           Pxx            Pyy            Pzz           KinEng         PotEng          Temp          c_1[1]         c_1[2]         c_1[3]    
         0   6045           200            200            0              0              0              0              0              0              0              1.1965779e-13  0              6            
    100000   6045           200            200            0.0033613152   2.6560366e-41  0              0.010083946    584462.75      0              5.6443229e+10  1.1965779e-13  0              3.3271028    
    200000   6045           200            200            0.0011850655  -1.0690397e-34  0              0.0035551966   141345.21      0              1.3650109e+10  1.1965779e-13  0              3.0752695    
    300000   6045           200            200            7.5305757e-05  2.6726231e-35  0              0.00022591727  1184.7807      0              1.1441764e+08  1.1965779e-13  0              3.0455829    
    400000   6045           200            200            0.00039412703 -1.3092948e-05  0              0.0011954741   8172.9776      0              7.8928768e+08  1.1965779e-13  0              2.9990114    
    500000   6045           200            200            0.0060512562   0.00073961385  0              0.017414155    1433.1586      0              1.384042e+08   1.1965779e-13  0              2.994552     
    600000   6045           200            200            0.0040963317   0.00086096386  0              0.011428031    208.6853       0              20153332       1.1965779e-13  0              2.9955427    
    700000   6045           200            200            0.0049637143   0.00056919378  0              0.014321949    2.2524911      0              217529.47      1.1965779e-13  0              2.9950277    
    800000   6045           200            200            0.0042003348   0.00055615851  0              0.012044846    2.8757042      0              277714.93      1.1965779e-13  0              2.9954432    
    900000   6045           200            200            0.0042580794   0.00056841907  0              0.012205819    0.23795027     0              22979.534      1.1965779e-13  0              2.9954102    
   1000000   6045           200            200            0.0043501461   0.00057198062  0              0.012478458    0.023368952    0              2256.8061      1.1965779e-13  0              2.9953593    
   1100000   6045           200            200            0.0043284896   0.00057115668  0              0.012414312    0.0080219223   0              774.69984      1.1965779e-13  0              2.9953716    
   1200000   6045           200            200            0.0043194344   0.00057081949  0              0.012387484    4.5799596e-05  0              4.4229971      1.1965779e-13  0              2.9953765    
   1300000   6045           200            200            0.00432375     0.00057098541  0              0.012400264    0.00017203174  0              16.613594      1.1965779e-13  0              2.9953741    
   1400000   6045           200            200            0.0043243053   0.00057100536  0              0.012401911    1.2348036e-06  0              0.11924849     1.1965779e-13  0              2.9953738    
   1500000   6045           200            200            0.0043236378   0.00057097998  0              0.012399934    2.5492962e-06  0              0.24619278     1.1965779e-13  0              2.9953742    
   1600000   6045           200            200            0.004323666    0.00057098121  0              0.012400017    1.5691881e-07  0              0.015154095    1.1965779e-13  0              2.9953742    
   1700000   6045           200            200            0.0043237516   0.00057098444  0              0.01240027     2.3752747e-08  0              0.0022938703   1.1965779e-13  0              2.9953741    
   1800000   6045           200            200            0.0043237346   0.00057098378  0              0.01240022     5.9565008e-09  0              0.00057523621  1.1965779e-13  0              2.9953741    
   1900000   6045           200            200            0.0043237257   0.00057098344  0              0.012400194    7.8649146e-11  0              7.5953716e-06  1.1965779e-13  0              2.9953741    
   2000000   6045           200            200            0.0043237294   0.00057098359  0              0.012400204    1.3856389e-10  0              1.3381509e-05  1.1965779e-13  0              2.9953741    
   2100000   6045           200            200            0.00432373     0.00057098361  0              0.012400206    3.8516749e-13  0              3.7196719e-08  1.1965779e-13  0              2.9953741    
   2200000   6045           200            200            0.0043237294   0.00057098359  0              0.012400205    2.2244626e-12  0              2.1482267e-07  1.1965779e-13  0              2.9953741    
   2300000   6045           200            200            0.0043237294   0.00057098359  0              0.012400205    9.8317709e-14  0              9.4948206e-09  1.1965779e-13  0              2.9953741    
   2400000   6045           200            200            0.0043237295   0.00057098359  0              0.012400205    2.3273267e-14  0              2.2475656e-09  1.1965779e-13  0              2.9953741    
   2500000   6045           200            200            0.0043237295   0.00057098359  0              0.012400205    4.3662654e-15  0              4.2166266e-10  1.1965779e-13  0              2.9953741    
   2600000   6045           200            200            0.0043237295   0.00057098359  0              0.012400205    9.8677206e-17  0              9.5295382e-12  1.1965779e-13  0              2.9953741    
   2700000   6045           200            200            0.0043237295   0.00057098359  0              0.012400205    1.0791246e-16  0              1.0421413e-11  1.1965779e-13  0              2.9953741    
   2800000   6045           200            200            0.0043237295   0.00057098359  0              0.012400205    4.1531136e-19  0              4.0107799e-14  1.1965779e-13  0              2.9953741    
   2900000   6045           200            200            0.0043237295   0.00057098359  0              0.012400205    3.5058386e-18  0              3.385688e-13   1.1965779e-13  0              2.9953741    
   3000000   6045           200            200            0.0043237295   0.00057098359  0              0.012400205    2.2713182e-19  0              2.1934766e-14  1.1965779e-13  0              2.9953741    
Loop time of 301.193 on 4 procs for 3000000 steps with 2501 atoms

Performance: 8605775.520 ns/day, 0.000 hours/ns, 9960.388 timesteps/s
100.0% CPU use with 4 MPI tasks x 1 OpenMP threads

MPI task timing breakdown:
Section |  min time  |  avg time  |  max time  |%varavg| %total
---------------------------------------------------------------
Pair    | 11.168     | 40.171     | 69.956     | 454.1 | 13.34
Neigh   | 3.7005     | 3.7746     | 3.8485     |   3.3 |  1.25
Comm    | 18.29      | 38.772     | 80.602     | 393.9 | 12.87
Output  | 0.2732     | 0.27351    | 0.27387    |   0.1 |  0.09
Modify  | 112.45     | 161.06     | 178.03     | 221.2 | 53.47
Other   |            | 57.14      |            |       | 18.97

Nlocal:         625.25 ave         876 max         375 min
Histogram: 2 0 0 0 0 0 0 0 0 2
Nghost:           1.75 ave           3 max           1 min
Histogram: 2 0 0 0 0 1 0 0 0 1
Neighs:         346.75 ave         694 max           0 min
Histogram: 2 0 0 0 0 0 0 0 0 2

Total # of neighbors = 1387
Ave neighs/atom = 0.55457817
Neighbor list builds = 164
Dangerous builds = 0

undump D1

############ Add spring between top chain to supp particle and then equilibrium  ###########

#fix sp1 support spring couple slider1 ${K0} ${lenspr} NULL NULL 0                                 # Add spring

#dump 		D2 all custom 100000 add_${num}*.dump id type diameter mass xu yu zu

#fix add1 all print 10 "${p0} ${distance} ${slider_z}" file add_distance_${num}.txt screen no      # out put step, distance(spring length), z-position of top chain

#run 1000000

#undump D2

#unfix add1

########## Pulling the supporting particle with constant velocity #############

#fix m1 support move linear 0.1 0 0 units box                                                      # apply constant velocity to supporting particles along x-direction V=0.1m/s

#fix move1 all print 100 "${p0} ${distance} ${slider_z}" file move_distance_${num}.txt screen no

#dump 		1 all custom 50000 move_${num}_*.dump id type diameter mass xu yu zu

#run 1000000

clear
  using 1 OpenMP thread(s) per MPI task

next num

jump SELF startloop

include granular.in
### Simulation of contact between two chain

##################### Simulation setup ####################

units micro                              # units
dimension	3                            # dimension
boundary	p p p                        # boundary condition p: periodic
atom_style	sphere                       # atom style
#processors * * 1

####################### Parameter ##################################

variable ind equal ${num}
variable ind equal 4

#variable lat0 equal 1                    #
variable lat1 equal 3+(100*0.01)+(v_ind*0.01)  # .491+(v_ind*0.001)       # Lattice distance of bottom chain
variable lat2 equal 3                    # Lattice distance of top chain
variable d1 equal 3                      # Diamter of particle at bottom chain
variable d2 equal 3                      # Diamter of particle at top chain
#variable d3 equal 1                      # Diamter of supporting particle

variable n2e1 equal 500*v_lat2             # Half length of top chain. 1500 is number of particles
variable n1e1 equal 1.5*v_n2e1*(v_lat1/v_lat2)             # Half length of bottom chain, which is 1.5 time larger than top chain
variable n1e2 equal -v_n1e1
variable n2e2 equal -v_n2e1
#variable lenspr equal -(v_n2e1+100)           # length of the spring connecting top chain and supporting particle
#variable lenspr1 equal -v_lenspr-0.1         # Position of supporting particle upper bound
#variable lenspr2 equal -v_lenspr+0.1         # Position of supporting particle lower bound

variable den equal 2.2 #grams/cm^3      # micrometer^3=10^-12 cm^3 Density of materials

variable V1 equal (1/6)*PI*(v_d1^3)     # Volume of particle 1
variable V2 equal (1/6)*PI*(v_d2^3)     # Volume of particle 2
#variable V3 equal (1/6)*PI*(v_d3^3)     # Volume of particle 3

variable mass1 equal v_den*v_V1  # Mass of particle 1 (picograms)
variable mass2 equal v_den*v_V2  # Mass of particle 2
#variable mass3 equal v_den*v_V3  # Mass of particle 3

# E GPa to picogram/(micrometer-microsecond^2)= 10^3 Pa= 10^-6 GPa
# Force unit(picogram-micrometer/microsecond^2)=10^-9 N= 1nN
# Spring stiffness (force/distance) 10^-3 N/m

variable K0 equal (1500/50)*(10^5)             # Spring stiffness conneting top chain and sup particle
variable E equal 100*(10^6)                    # Young's Modulus using for Hertz/material model
variable PR equal 0.3                          # Poisson's ratio using for Hertz/material model
variable Fn equal -1000                        # Force apply to each particles in top chain
variable dt equal 0.00001                      # Time step units microsecond
variable lgv equal 0.5                         #damping for langevin thermostat for slider


################### Creating the model #################################
lattice sc ${lat1}                                                               # Bottom chain type1
lattice sc 4.04                                                               
Lattice spacing in x,y,z = 4.04 4.04 4.04

region box block ${n1e2} ${n1e1} -100 100 -100 100 units box
region box block -3030 ${n1e1} -100 100 -100 100 units box
region box block -3030 3030 -100 100 -100 100 units box
region substrate block ${n1e2} ${n1e1} -0.5 0.5 0 0.5 units box
region substrate block -3030 ${n1e1} -0.5 0.5 0 0.5 units box
region substrate block -3030 3030 -0.5 0.5 0 0.5 units box

create_box 2 box
Created orthogonal box = (-3030 -100 -100) to (3030 100 100)
  4 by 1 by 1 MPI processor grid
create_atoms 1 region substrate
Created 1500 atoms
  using lattice units in orthogonal box = (-3030 -100 -100) to (3030 100 100)
  create_atoms CPU = 0.001 seconds

lattice sc ${lat2}                                                             # Top chain type2
lattice sc 3                                                             
Lattice spacing in x,y,z = 3 3 3

region slider1 block ${n2e2} ${n2e1} -0.1 0.1 5.9 6.1 units box
region slider1 block -1500 ${n2e1} -0.1 0.1 5.9 6.1 units box
region slider1 block -1500 1500 -0.1 0.1 5.9 6.1 units box

create_atoms 2 region slider1
Created 1001 atoms
  using lattice units in orthogonal box = (-3030 -100 -100) to (3030 100 100)
  create_atoms CPU = 0.001 seconds

#lattice sc ${lat0}                                                             # Supporting particle type3

#region support block ${lenspr1} ${lenspr2} -0.1 0.1 7.9 8.1 units box

#create_atoms 3 region support

set type 1 diameter ${d1}                    # Set mass and diameter for each particles type
set type 1 diameter 3                    
Setting atom values ...
  1500 settings made for diameter
set type 1 mass ${mass1}
set type 1 mass 31.101767270539
Setting atom values ...
  1500 settings made for mass
set type 2 diameter ${d2}
set type 2 diameter 3
Setting atom values ...
  1001 settings made for diameter
set type 2 mass ${mass2}
set type 2 mass 31.101767270539
Setting atom values ...
  1001 settings made for mass
#set type 3 diameter ${d3}
#set type 3 mass ${mass3}

group substrate region substrate           # Define gorup
1500 atoms in group substrate
group slider1 region slider1
1001 atoms in group slider1
#group support region support
#group substrate_slider union substrate slider1

########################## Potential ###################################
pair_style granular
pair_coeff 1 1 hertz/material 0.00000001 0.001 ${PR} tangential mindlin NULL 0.1 0.01 damping viscoelastic              ########### set E between each particle in same type is small to neglect their interaction
pair_coeff 1 1 hertz/material 0.00000001 0.001 0.3 tangential mindlin NULL 0.1 0.01 damping viscoelastic              
pair_coeff 2 2 hertz/material 0.00000001 0.001 ${PR} tangential mindlin NULL 0.1 0.01 damping viscoelastic
pair_coeff 2 2 hertz/material 0.00000001 0.001 0.3 tangential mindlin NULL 0.1 0.01 damping viscoelastic
#pair_coeff 3 3 hertz/material ${E} 0.001 ${PR} tangential mindlin NULL 0.1 0.01 damping viscoelastic
pair_coeff 1 2 hertz/material ${E} 0.001 ${PR} tangential mindlin NULL 0.1 0.01 damping viscoelastic
pair_coeff 1 2 hertz/material 100000000 0.001 ${PR} tangential mindlin NULL 0.1 0.01 damping viscoelastic
pair_coeff 1 2 hertz/material 100000000 0.001 0.3 tangential mindlin NULL 0.1 0.01 damping viscoelastic
#pair_coeff 1 3 hertz/material 0.00000001 0.001 ${PR} tangential mindlin NULL 0.1 0.01 damping viscoelastic
#pair_coeff 2 3 hertz/material 0.00000001 0.001 ${PR} tangential mindlin NULL 0.1 0.01 damping viscoelastic
comm_modify     vel yes
neigh_modify    delay 0 every 1 check yes

### Compute properties ###

compute 1 slider1 com                      # Compute the center of mass of top chain
#compute 2 support com                      # Compute the center of mass of supporting particle

variable p0 equal "step"

variable slider_z equal "c_1[3]"          # output the position of top chain in z-direction

#variable distance equal "c_2[1]-c_1[1]"   # Distance between COM of top chain and supporting particle

thermo 100000
thermo_style custom step lx ly lz press pxx pyy pzz ke pe temp c_1[1] c_1[2] c_1[3] #c_2[1] c_2[2] c_2[3] v_distance

############### Fix ##################


############## Equilibrium the system with apply force ########################

fix force_slider1 slider1 setforce NULL 0 NULL                                # Fix top chain not to move in y-direction

fix f_sub substrate freeze                                                    # Freeze the bottom chain

fix rigid_top slider1 rigid/nve group 1 slider1 langevin 0 0 ${lgv} 6987532   # NVE+langevin
fix rigid_top slider1 rigid/nve group 1 slider1 langevin 0 0 0.5 6987532   
  1 rigid bodies with 1001 atoms

fix add slider1 addforce 0 0 ${Fn} every 1                                    # Add force to top layer
fix add slider1 addforce 0 0 -1000 every 1                                    

timestep ${dt}
timestep 1e-05

# fix  nve_1 slider1 nve

dump 		D1 all custom 100000 Equi_${num}_*.dump id type diameter mass xu yu zu fx fy fz
dump 		D1 all custom 100000 Equi_4_*.dump id type diameter mass xu yu zu fx fy fz

run 3000000
Generated 0 of 1 mixed pair_coeff terms from geometric mixing rule
Neighbor list info ...
  update every 1 steps, delay 0 steps, check yes
  max neighbors/atom: 2000, page size: 100000
  master list distance cutoff = 3.1
  ghost atom cutoff = 3.1
  binsize = 1.55, bins = 3910 130 130
  1 neighbor lists, perpetual/occasional/extra = 1 0 0
  (1) pair granular, perpetual
      attributes: half, newton on, size, history
      pair build: half/size/bin/newton
      stencil: half/bin/3d
      bin: standard
Per MPI rank memory allocation (min/avg/max) = 81.14 | 81.17 | 81.2 Mbytes
   Step           Lx             Ly             Lz           Press           Pxx            Pyy            Pzz           KinEng         PotEng          Temp          c_1[1]         c_1[2]         c_1[3]    
         0   6060           200            200            0              0              0              0              0              0              0              1.1965779e-13  0              6            
    100000   6060           200            200            0.0033522178  -4.1656007e-37  0              0.010056653    584278.9       0              5.6425474e+10  1.1965779e-13  0              3.3271084    
    200000   6060           200            200            0.0011805198  -1.0663892e-34  0              0.0035415593   141052.63      0              1.3621854e+10  1.1965779e-13  0              3.0753235    
    300000   6060           200            200            7.1517403e-05 -1.3329781e-35  0              0.00021455221  1078.3884      0              1.0414303e+08  1.1965779e-13  0              3.0454459    
[...]
   3000000   7470           200            200            0.0051289212   0.0053539077   0              0.010032856    5.2353556e-18  0              5.0660639e-13  1.1965779e-13  0              2.9948225    
Loop time of 292.084 on 4 procs for 3000000 steps with 2500 atoms

Performance: 8874157.463 ns/day, 0.000 hours/ns, 10271.016 timesteps/s
100.0% CPU use with 4 MPI tasks x 1 OpenMP threads

MPI task timing breakdown:
Section |  min time  |  avg time  |  max time  |%varavg| %total
---------------------------------------------------------------
Pair    | 10.379     | 36.167     | 61.697     | 423.3 | 12.38
Neigh   | 4.5945     | 4.6662     | 4.7394     |   2.9 |  1.60
Comm    | 25.473     | 51.396     | 76.511     | 345.0 | 17.60
Output  | 0.32982    | 0.33014    | 0.33048    |   0.1 |  0.11
Modify  | 108.39     | 143.08     | 177.44     | 284.9 | 48.99
Other   |            | 56.44      |            |       | 19.32

Nlocal:            625 ave         876 max         375 min
Histogram: 2 0 0 0 0 0 0 0 0 2
Nghost:            1.5 ave           4 max           0 min
Histogram: 2 0 0 0 0 1 0 0 0 1
Neighs:         331.25 ave         663 max           0 min
Histogram: 2 0 0 0 0 0 0 0 0 2

Total # of neighbors = 1325
Ave neighs/atom = 0.53
Neighbor list builds = 164
Dangerous builds = 0

undump D1

############ Add spring between top chain to supp particle and then equilibrium  ###########

#fix sp1 support spring couple slider1 ${K0} ${lenspr} NULL NULL 0                                 # Add spring

#dump 		D2 all custom 100000 add_${num}*.dump id type diameter mass xu yu zu

#fix add1 all print 10 "${p0} ${distance} ${slider_z}" file add_distance_${num}.txt screen no      # out put step, distance(spring length), z-position of top chain

#run 1000000

#undump D2

#unfix add1

########## Pulling the supporting particle with constant velocity #############

#fix m1 support move linear 0.1 0 0 units box                                                      # apply constant velocity to supporting particles along x-direction V=0.1m/s

#fix move1 all print 100 "${p0} ${distance} ${slider_z}" file move_distance_${num}.txt screen no

#dump 		1 all custom 50000 move_${num}_*.dump id type diameter mass xu yu zu

#run 1000000

clear
  using 1 OpenMP thread(s) per MPI task

next num

jump SELF startloop

include granular.in
### Simulation of contact between two chain

##################### Simulation setup ####################

units micro                              # units
dimension	3                            # dimension
boundary	p p p                        # boundary condition p: periodic
atom_style	sphere                       # atom style
#processors * * 1

####################### Parameter ##################################

variable ind equal ${num}
variable ind equal 99

#variable lat0 equal 1                    #
variable lat1 equal 3+(100*0.01)+(v_ind*0.01)  # .491+(v_ind*0.001)       # Lattice distance of bottom chain
variable lat2 equal 3                    # Lattice distance of top chain
variable d1 equal 3                      # Diamter of particle at bottom chain
variable d2 equal 3                      # Diamter of particle at top chain
#variable d3 equal 1                      # Diamter of supporting particle

variable n2e1 equal 500*v_lat2             # Half length of top chain. 1500 is number of particles
variable n1e1 equal 1.5*v_n2e1*(v_lat1/v_lat2)             # Half length of bottom chain, which is 1.5 time larger than top chain
variable n1e2 equal -v_n1e1
variable n2e2 equal -v_n2e1
#variable lenspr equal -(v_n2e1+100)           # length of the spring connecting top chain and supporting particle
#variable lenspr1 equal -v_lenspr-0.1         # Position of supporting particle upper bound
#variable lenspr2 equal -v_lenspr+0.1         # Position of supporting particle lower bound

variable den equal 2.2 #grams/cm^3      # micrometer^3=10^-12 cm^3 Density of materials

variable V1 equal (1/6)*PI*(v_d1^3)     # Volume of particle 1
variable V2 equal (1/6)*PI*(v_d2^3)     # Volume of particle 2
#variable V3 equal (1/6)*PI*(v_d3^3)     # Volume of particle 3

variable mass1 equal v_den*v_V1  # Mass of particle 1 (picograms)
variable mass2 equal v_den*v_V2  # Mass of particle 2
#variable mass3 equal v_den*v_V3  # Mass of particle 3

# E GPa to picogram/(micrometer-microsecond^2)= 10^3 Pa= 10^-6 GPa
# Force unit(picogram-micrometer/microsecond^2)=10^-9 N= 1nN
# Spring stiffness (force/distance) 10^-3 N/m

variable K0 equal (1500/50)*(10^5)             # Spring stiffness conneting top chain and sup particle
variable E equal 100*(10^6)                    # Young's Modulus using for Hertz/material model
variable PR equal 0.3                          # Poisson's ratio using for Hertz/material model
variable Fn equal -1000                        # Force apply to each particles in top chain
variable dt equal 0.00001                      # Time step units microsecond
variable lgv equal 0.5                         #damping for langevin thermostat for slider


################### Creating the model #################################
lattice sc ${lat1}                                                               # Bottom chain type1
lattice sc 4.99                                                               
Lattice spacing in x,y,z = 4.99 4.99 4.99

region box block ${n1e2} ${n1e1} -100 100 -100 100 units box
region box block -3742.5 ${n1e1} -100 100 -100 100 units box
region box block -3742.5 3742.5 -100 100 -100 100 units box
region substrate block ${n1e2} ${n1e1} -0.5 0.5 0 0.5 units box
region substrate block -3742.5 ${n1e1} -0.5 0.5 0 0.5 units box
region substrate block -3742.5 3742.5 -0.5 0.5 0 0.5 units box

create_box 2 box
Created orthogonal box = (-3742.5 -100 -100) to (3742.5 100 100)
  4 by 1 by 1 MPI processor grid
create_atoms 1 region substrate
Created 1500 atoms
  using lattice units in orthogonal box = (-3742.5 -100 -100) to (3742.5 100 100)
  create_atoms CPU = 0.001 seconds

lattice sc ${lat2}                                                             # Top chain type2
lattice sc 3                                                             
Lattice spacing in x,y,z = 3 3 3

region slider1 block ${n2e2} ${n2e1} -0.1 0.1 5.9 6.1 units box
region slider1 block -1500 ${n2e1} -0.1 0.1 5.9 6.1 units box
region slider1 block -1500 1500 -0.1 0.1 5.9 6.1 units box

create_atoms 2 region slider1
Created 1001 atoms
  using lattice units in orthogonal box = (-3742.5 -100 -100) to (3742.5 100 100)
  create_atoms CPU = 0.001 seconds

#lattice sc ${lat0}                                                             # Supporting particle type3

#region support block ${lenspr1} ${lenspr2} -0.1 0.1 7.9 8.1 units box

#create_atoms 3 region support

set type 1 diameter ${d1}                    # Set mass and diameter for each particles type
set type 1 diameter 3                    
Setting atom values ...
  1500 settings made for diameter
set type 1 mass ${mass1}
set type 1 mass 31.101767270539
Setting atom values ...
  1500 settings made for mass
set type 2 diameter ${d2}
set type 2 diameter 3
Setting atom values ...
  1001 settings made for diameter
set type 2 mass ${mass2}
set type 2 mass 31.101767270539
Setting atom values ...
  1001 settings made for mass
#set type 3 diameter ${d3}
#set type 3 mass ${mass3}

group substrate region substrate           # Define gorup
1500 atoms in group substrate
group slider1 region slider1
1001 atoms in group slider1
#group support region support
#group substrate_slider union substrate slider1

########################## Potential ###################################
pair_style granular
pair_coeff 1 1 hertz/material 0.00000001 0.001 ${PR} tangential mindlin NULL 0.1 0.01 damping viscoelastic              ########### set E between each particle in same type is small to neglect their interaction
pair_coeff 1 1 hertz/material 0.00000001 0.001 0.3 tangential mindlin NULL 0.1 0.01 damping viscoelastic              
pair_coeff 2 2 hertz/material 0.00000001 0.001 ${PR} tangential mindlin NULL 0.1 0.01 damping viscoelastic
pair_coeff 2 2 hertz/material 0.00000001 0.001 0.3 tangential mindlin NULL 0.1 0.01 damping viscoelastic
#pair_coeff 3 3 hertz/material ${E} 0.001 ${PR} tangential mindlin NULL 0.1 0.01 damping viscoelastic
pair_coeff 1 2 hertz/material ${E} 0.001 ${PR} tangential mindlin NULL 0.1 0.01 damping viscoelastic
pair_coeff 1 2 hertz/material 100000000 0.001 ${PR} tangential mindlin NULL 0.1 0.01 damping viscoelastic
pair_coeff 1 2 hertz/material 100000000 0.001 0.3 tangential mindlin NULL 0.1 0.01 damping viscoelastic
#pair_coeff 1 3 hertz/material 0.00000001 0.001 ${PR} tangential mindlin NULL 0.1 0.01 damping viscoelastic
#pair_coeff 2 3 hertz/material 0.00000001 0.001 ${PR} tangential mindlin NULL 0.1 0.01 damping viscoelastic
comm_modify     vel yes
neigh_modify    delay 0 every 1 check yes

### Compute properties ###

compute 1 slider1 com                      # Compute the center of mass of top chain
#compute 2 support com                      # Compute the center of mass of supporting particle

variable p0 equal "step"

variable slider_z equal "c_1[3]"          # output the position of top chain in z-direction

#variable distance equal "c_2[1]-c_1[1]"   # Distance between COM of top chain and supporting particle

thermo 100000
thermo_style custom step lx ly lz press pxx pyy pzz ke pe temp c_1[1] c_1[2] c_1[3] #c_2[1] c_2[2] c_2[3] v_distance

############### Fix ##################


############## Equilibrium the system with apply force ########################

fix force_slider1 slider1 setforce NULL 0 NULL                                # Fix top chain not to move in y-direction

fix f_sub substrate freeze                                                    # Freeze the bottom chain

fix rigid_top slider1 rigid/nve group 1 slider1 langevin 0 0 ${lgv} 6987532   # NVE+langevin
fix rigid_top slider1 rigid/nve group 1 slider1 langevin 0 0 0.5 6987532   
  1 rigid bodies with 1001 atoms

fix add slider1 addforce 0 0 ${Fn} every 1                                    # Add force to top layer
fix add slider1 addforce 0 0 -1000 every 1                                    

timestep ${dt}
timestep 1e-05

# fix  nve_1 slider1 nve

dump 		D1 all custom 100000 Equi_${num}_*.dump id type diameter mass xu yu zu fx fy fz
dump 		D1 all custom 100000 Equi_99_*.dump id type diameter mass xu yu zu fx fy fz

run 3000000
Generated 0 of 1 mixed pair_coeff terms from geometric mixing rule
Neighbor list info ...
  update every 1 steps, delay 0 steps, check yes
  max neighbors/atom: 2000, page size: 100000
  master list distance cutoff = 3.1
  ghost atom cutoff = 3.1
  binsize = 1.55, bins = 4830 130 130
  1 neighbor lists, perpetual/occasional/extra = 1 0 0
  (1) pair granular, perpetual
      attributes: half, newton on, size, history
      pair build: half/size/bin/newton
      stencil: half/bin/3d
      bin: standard
Per MPI rank memory allocation (min/avg/max) = 97.13 | 97.16 | 97.19 Mbytes
   Step           Lx             Ly             Lz           Press           Pxx            Pyy            Pzz           KinEng         PotEng          Temp          c_1[1]         c_1[2]         c_1[3]    
         0   7485           200            200            0              0              0              0              0              0              0              1.1965779e-13  0              6            
    100000   7485           200            200            0.0027058964   4.6039105e-41  0              0.0081176893   581648.19      0              5.6171419e+10  1.1965779e-13  0              3.3292771    
    200000   7485           200            200            0.00093647102 -4.3168486e-35  0              0.002809413    136611.48      0              1.3192959e+10  1.1965779e-13  0              3.0790857    
    300000   7485           200            200            2.8483006e-05  2.022046e-39   0              8.5449019e-05  272.74031      0              26339307       1.1965779e-13  0              3.0452087    
    400000   7485           200            200            8.3738744e-05  2.1584411e-34  0              0.00025121623  2230.524       0              2.1540804e+08  1.1965779e-13  0              3.004329     
    500000   7485           200            200            0.010858159    0.018095731    0              0.014478747    1273.6194      0              1.2299704e+08  1.1965779e-13  0              2.9937394    
    600000   7485           200            200            0.0050606214   0.0080844092   0              0.0070974548   78.486384      0              7579653.2      1.1965779e-13  0              2.9956672    
    700000   7485           200            200            0.0066875833   0.010371609    0              0.0096911407   26.014259      0              2512271        1.1965779e-13  0              2.9949089    
    800000   7485           200            200            0.0069565337   0.010326124    0              0.010543477    0.069890343    0              6749.5091      1.1965779e-13  0              2.9946956    
    900000   7485           200            200            0.0067289658   0.010253232    0              0.0099336658   0.40864736     0              39464.237      1.1965779e-13  0              2.9948529    
   1000000   7485           200            200            0.0067385572   0.01025778     0              0.0099578918   0.027942609    0              2698.4971      1.1965779e-13  0              2.9948455    
   1100000   7485           200            200            0.0067687221   0.010271604    0              0.010034562    0.0027406204   0              264.6695       1.1965779e-13  0              2.9948257    
   1200000   7485           200            200            0.0067612974   0.010268128    0              0.010015764    0.0011010409   0              106.33065      1.1965779e-13  0              2.9948307    
   1300000   7485           200            200            0.0067587377   0.010266976    0              0.010009237    1.074207e-07   0              0.010373922    1.1965779e-13  0              2.9948324    
   1400000   7485           200            200            0.0067602583   0.010267679    0              0.010013096    2.0622412e-05  0              1.991565       1.1965779e-13  0              2.9948314    
   1500000   7485           200            200            0.0067602952   0.010267692    0              0.010013194    7.6889241e-07  0              0.074254126    1.1965779e-13  0              2.9948314    
   1600000   7485           200            200            0.0067600826   0.010267595    0              0.010012653    1.8885066e-07  0              0.018237845    1.1965779e-13  0              2.9948315    
   1700000   7485           200            200            0.0067601208   0.010267613    0              0.01001275     4.2598596e-08  0              0.0041138675   1.1965779e-13  0              2.9948315    
   1800000   7485           200            200            0.0067601417   0.010267622    0              0.010012803    2.8034586e-10  0              2.7073797e-05  1.1965779e-13  0              2.9948315    
   1900000   7485           200            200            0.0067601323   0.010267618    0              0.010012779    9.7527934e-10  0              9.4185498e-05  1.1965779e-13  0              2.9948315    
   2000000   7485           200            200            0.0067601314   0.010267617    0              0.010012777    1.6615266e-11  0              1.6045834e-06  1.1965779e-13  0              2.9948315    
   2100000   7485           200            200            0.0067601329   0.010267618    0              0.010012781    1.145461e-11   0              1.1062043e-06  1.1965779e-13  0              2.9948315    
   2200000   7485           200            200            0.0067601327   0.010267618    0              0.01001278     1.5284549e-12  0              1.4760723e-07  1.1965779e-13  0              2.9948315    
   2300000   7485           200            200            0.0067601325   0.010267618    0              0.01001278     4.2607417e-14  0              4.1147193e-09  1.1965779e-13  0              2.9948315    
   2400000   7485           200            200            0.0067601326   0.010267618    0              0.01001278     4.3458458e-14  0              4.1969068e-09  1.1965779e-13  0              2.9948315    
   2500000   7485           200            200            0.0067601326   0.010267618    0              0.01001278     1.9293193e-16  0              1.8631985e-11  1.1965779e-13  0              2.9948315    
   2600000   7485           200            200            0.0067601326   0.010267618    0              0.01001278     6.3627302e-16  0              6.1446694e-11  1.1965779e-13  0              2.9948315    
   2700000   7485           200            200            0.0067601326   0.010267618    0              0.01001278     3.6341916e-17  0              3.5096421e-12  1.1965779e-13  0              2.9948315    
   2800000   7485           200            200            0.0067601326   0.010267618    0              0.01001278     7.6802023e-18  0              7.4169896e-13  1.1965779e-13  0              2.9948315    
   2900000   7485           200            200            0.0067601326   0.010267618    0              0.01001278     3.7485692e-18  0              3.6200999e-13  1.1965779e-13  0              2.9948315    
   3000000   7485           200            200            0.0067601326   0.010267618    0              0.01001278     4.4089185e-18  0              4.257818e-13   1.1965779e-13  0              2.9948315    
Loop time of 294.599 on 4 procs for 3000000 steps with 2501 atoms

Performance: 8798403.378 ns/day, 0.000 hours/ns, 10183.337 timesteps/s
100.0% CPU use with 4 MPI tasks x 1 OpenMP threads

MPI task timing breakdown:
Section |  min time  |  avg time  |  max time  |%varavg| %total
---------------------------------------------------------------
Pair    | 10.809     | 36.97      | 63.644     | 426.1 | 12.55
Neigh   | 4.5747     | 4.6486     | 4.7232     |   3.0 |  1.58
Comm    | 19.244     | 38.467     | 77.835     | 371.4 | 13.06
Output  | 0.27278    | 0.27311    | 0.27343    |   0.1 |  0.09
Modify  | 109.2      | 157.84     | 176.71     | 225.0 | 53.58
Other   |            | 56.4       |            |       | 19.14

Nlocal:         625.25 ave         876 max         375 min
Histogram: 2 0 0 0 0 0 0 0 0 2
Nghost:           1.75 ave           3 max           1 min
Histogram: 2 0 0 0 0 1 0 0 0 1
Neighs:         328.75 ave         658 max           0 min
Histogram: 2 0 0 0 0 0 0 0 0 2

Total # of neighbors = 1315
Ave neighs/atom = 0.52578968
Neighbor list builds = 164
Dangerous builds = 0

undump D1

############ Add spring between top chain to supp particle and then equilibrium  ###########

#fix sp1 support spring couple slider1 ${K0} ${lenspr} NULL NULL 0                                 # Add spring

#dump 		D2 all custom 100000 add_${num}*.dump id type diameter mass xu yu zu

#fix add1 all print 10 "${p0} ${distance} ${slider_z}" file add_distance_${num}.txt screen no      # out put step, distance(spring length), z-position of top chain

#run 1000000

#undump D2

#unfix add1

########## Pulling the supporting particle with constant velocity #############

#fix m1 support move linear 0.1 0 0 units box                                                      # apply constant velocity to supporting particles along x-direction V=0.1m/s

#fix move1 all print 100 "${p0} ${distance} ${slider_z}" file move_distance_${num}.txt screen no

#dump 		1 all custom 50000 move_${num}_*.dump id type diameter mass xu yu zu

#run 1000000

clear
  using 1 OpenMP thread(s) per MPI task

next num

jump SELF startloop
Total wall time: 8:16:05
