LAMMPS (23 Jun 2022 - Update 1)
  using 1 OpenMP thread(s) per MPI task
variable num index 0 1 2 3 4 5 6 7 8 9 10 11 12 13 14 15 16 17 18 19 20 21 22 23 24 25 26 27 28 29 30 31 32 33 34 35 36 37 38 39

label startloop

include granular.in
### Simulation of contact between two chain

##################### Simulation setup ####################

units micro                              # units
dimension	3                            # dimension
boundary	p p p                        # boundary condition p: periodic
atom_style	sphere                       # atom style
#processors * * 1

####################### Parameter ##################################

variable ind equal ${num}
variable ind equal 0

#variable lat0 equal 1                    #
variable lat1 equal 3           # Lattice distance of bottom chain
variable lat2 equal 3                    # Lattice distance of top chain
variable d1 equal 3                      # Diamter of particle at bottom chain
variable d2 equal 3                      # Diamter of particle at top chain
#variable d3 equal 1                      # Diamter of supporting particle

variable n2e1 equal 500*v_lat2              # Half length of top chain. 1500 is number of particles
variable n1e1 equal 1.5*v_n2e1*(v_lat1/v_lat2)              # Half length of bottom chain, which is 1.5 time larger than top chain
variable n1e2 equal -v_n1e1
variable n2e2 equal -v_n2e1
#variable lenspr equal -(v_n2e1+50)           # length of the spring connecting top chain and supporting particle
#variable lenspr1 equal -v_lenspr-0.1         # Position of supporting particle upper bound
#variable lenspr2 equal -v_lenspr+0.1         # Position of supporting particle lower bound

variable den equal 2.2 #grams/cm^3      # micrometer^3=10^-12 cm^3 Density of materials

variable V1 equal (1/6)*PI*(v_d1^3)     # Volume of particle 1
variable V2 equal (1/6)*PI*(v_d2^3)     # Volume of particle 2
#variable V3 equal (1/6)*PI*(v_d3^3)     # Volume of particle 3

variable mass1 equal v_den*v_V1  # Mass of particle 1 (picograms)
variable mass2 equal v_den*v_V2  # Mass of particle 2
#variable mass3 equal v_den*v_V3  # Mass of particle 3

# E GPa to picogram/(micrometer-microsecond^2)= 10^3 Pa= 10^-6 GPa
# Force unit(picogram-micrometer/microsecond^2)=10^-9 N= 1nN
# Spring stiffness (force/distance) 10^-3 N/m

#variable K0 equal (1500/50)*(10^5)             # Spring stiffness conneting top chain and sup particle
variable E equal 100*(10^6)                    # Young's Modulus using for Hertz/material model
variable PR equal 0.3                          # Poisson's ratio using for Hertz/material model
variable Fn equal -50-(v_ind*50)                       # Force apply to each particles in top chain
variable dt equal 0.00001                      # Time step units microsecond
variable lgv equal 0.5                         #damping for langevin thermostat for slider


################### Creating the model #################################
lattice sc ${lat1}                                                               # Bottom chain type1
lattice sc 3                                                               
Lattice spacing in x,y,z = 3 3 3

region box block ${n1e2} ${n1e1} -50 50 -50 50 units box
region box block -2250 ${n1e1} -50 50 -50 50 units box
region box block -2250 2250 -50 50 -50 50 units box
region substrate block ${n1e2} ${n1e1} -0.1 0.1 0 0.1 units box
region substrate block -2250 ${n1e1} -0.1 0.1 0 0.1 units box
region substrate block -2250 2250 -0.1 0.1 0 0.1 units box

create_box 2 box
Created orthogonal box = (-2250 -50 -50) to (2250 50 50)
  4 by 1 by 1 MPI processor grid
create_atoms 1 region substrate
Created 1500 atoms
  using lattice units in orthogonal box = (-2250 -50 -50) to (2250 50 50)
  create_atoms CPU = 0.003 seconds

lattice sc ${lat2}                                                             # Top chain type2
lattice sc 3                                                             
Lattice spacing in x,y,z = 3 3 3

region slider1 block ${n2e2} ${n2e1} -0.1 0.1 5.9 6.1 units box
region slider1 block -1500 ${n2e1} -0.1 0.1 5.9 6.1 units box
region slider1 block -1500 1500 -0.1 0.1 5.9 6.1 units box

create_atoms 2 region slider1
Created 1001 atoms
  using lattice units in orthogonal box = (-2250 -50 -50) to (2250 50 50)
  create_atoms CPU = 0.001 seconds

#lattice sc ${lat0}                                                             # Supporting particle type3

#region support block ${lenspr1} ${lenspr2} -0.1 0.1 7.9 8.1 units box

#create_atoms 3 region support

set type 1 diameter ${d1}                    # Set mass and diameter for each particles type
set type 1 diameter 3                    
Setting atom values ...
  1500 settings made for diameter
set type 1 mass ${mass1}
set type 1 mass 31.101767270539
Setting atom values ...
  1500 settings made for mass
set type 2 diameter ${d2}
set type 2 diameter 3
Setting atom values ...
  1001 settings made for diameter
set type 2 mass ${mass2}
set type 2 mass 31.101767270539
Setting atom values ...
  1001 settings made for mass
#set type 3 diameter ${d3}
#set type 3 mass ${mass3}

group substrate region substrate           # Define gorup
1500 atoms in group substrate
group slider1 region slider1
1001 atoms in group slider1
#group support region support
group substrate_slider union substrate slider1
2501 atoms in group substrate_slider

########################## Potential ###################################
pair_style granular
pair_coeff 1 1 hertz/material 0.00000001 0.001 ${PR} tangential mindlin NULL 0.1 0.01 damping viscoelastic              ########### set E between each particle in same type is small to neglect their interaction
pair_coeff 1 1 hertz/material 0.00000001 0.001 0.3 tangential mindlin NULL 0.1 0.01 damping viscoelastic              
pair_coeff 2 2 hertz/material 0.00000001 0.001 ${PR} tangential mindlin NULL 0.1 0.01 damping viscoelastic
pair_coeff 2 2 hertz/material 0.00000001 0.001 0.3 tangential mindlin NULL 0.1 0.01 damping viscoelastic
#pair_coeff 3 3 hertz/material ${E} 0.001 ${PR} tangential mindlin NULL 0.1 0.01 damping viscoelastic
pair_coeff 1 2 hertz/material ${E} 0.001 ${PR} tangential mindlin NULL 0.1 0.01 damping viscoelastic
pair_coeff 1 2 hertz/material 100000000 0.001 ${PR} tangential mindlin NULL 0.1 0.01 damping viscoelastic
pair_coeff 1 2 hertz/material 100000000 0.001 0.3 tangential mindlin NULL 0.1 0.01 damping viscoelastic
#pair_coeff 1 3 hertz/material 0.00000001 0.001 ${PR} tangential mindlin NULL 0.1 0.01 damping viscoelastic
#pair_coeff 2 3 hertz/material 0.00000001 0.001 ${PR} tangential mindlin NULL 0.1 0.01 damping viscoelastic
comm_modify     vel yes
neigh_modify    delay 0 every 1 check yes

### Compute properties ###

compute 1 slider1 com                      # Compute the center of mass of top chain
#compute 2 support com                      # Compute the center of mass of supporting particle

variable p0 equal "step"

variable slider_z equal "c_1[3]"          # output the position of top chain in z-direction

#variable distance equal "c_2[1]-c_1[1]"   # Distance between COM of top chain and supporting particle

thermo 100000
thermo_style custom step lx ly lz press pxx pyy pzz ke pe temp c_1[1] c_1[2] c_1[3] #c_2[1] c_2[2] c_2[3] v_distance

############### Fix ##################


############## Equilibrium the system with apply force ########################

fix force_slider1 slider1 setforce NULL 0 NULL                                # Fix top chain not to move in y-direction

fix f_sub substrate freeze                                                    # Freeze the bottom chain

fix rigid_top slider1 rigid/nve group 1 slider1 langevin 0 0 ${lgv} 6987532   # NVE+langevin
fix rigid_top slider1 rigid/nve group 1 slider1 langevin 0 0 0.5 6987532   
  1 rigid bodies with 1001 atoms

fix add slider1 addforce 0 0 ${Fn} every 1                                    # Add force to top layer
fix add slider1 addforce 0 0 -50 every 1                                    

timestep ${dt}
timestep 1e-05

# fix  nve_1 slider1 nve

dump 		D1 all custom 100000 Equi_${num}_*.dump id type diameter mass xu yu zu
dump 		D1 all custom 100000 Equi_0_*.dump id type diameter mass xu yu zu

run 3000000
Generated 0 of 1 mixed pair_coeff terms from geometric mixing rule
Neighbor list info ...
  update every 1 steps, delay 0 steps, check yes
  max neighbors/atom: 2000, page size: 100000
  master list distance cutoff = 3.1
  ghost atom cutoff = 3.1
  binsize = 1.55, bins = 2904 65 65
  1 neighbor lists, perpetual/occasional/extra = 1 0 0
  (1) pair granular, perpetual
      attributes: half, newton on, size, history
      pair build: half/size/bin/newton
      stencil: half/bin/3d
      bin: standard
Per MPI rank memory allocation (min/avg/max) = 26.4 | 26.4 | 26.41 Mbytes
   Step           Lx             Ly             Lz           Press           Pxx            Pyy            Pzz           KinEng         PotEng          Temp          c_1[1]         c_1[2]         c_1[3]    
         0   4500           100            100            0              0              0              0              0              0              0             -5.9828895e-14  0              6            
    100000   4500           100            100            0.0018885251   0              0              0.0056655752   7519.6195      0              7.2619103e+08 -5.9828895e-14  0              5.5437025    
    200000   4500           100            100            0.0018857982   0              0              0.0056573945   9692.6663      0              9.3604834e+08 -5.9828895e-14  0              4.7869199    
    300000   4500           100            100            0.0016236604   0              0              0.0048709813   10007.911      0              9.6649245e+08 -5.9828895e-14  0              3.9894717    
    400000   4500           100            100            0.0013298812   0              0              0.0039896436   10050.962      0              9.7064995e+08 -5.9828895e-14  0              3.1865202    
    500000   4500           100            100            0.00067666873 -1.4024194e-37  0              0.0020300062   3190.1571      0              3.0808254e+08 -5.9828895e-14  0              3.0144719    
    600000   4500           100            100           -0.00017282703  1.2998224e-44  0             -0.00051848109  251.28268      0              24267083      -5.9828895e-14  0              3.0123225    
    700000   4500           100            100            5.2731032e-05 -2.8048388e-37  0              0.00015819309  22.278533      0              2151501.2     -5.9828895e-14  0              3.0043546    
    800000   4500           100            100            8.1458475e-05  1.4024194e-37  0              0.00024437543  52.942475      0              5112805.3     -5.9828895e-14  0              3.0000082    
    900000   4500           100            100            2.5282386e-05  2.9913797e-46  0              7.5847158e-05  5.1741787      0              499685.14     -5.9828895e-14  0              3.0000757    
   1000000   4500           100            100            0.0016140174  -7.0120969e-38  0              0.0048420521   1.5355912      0              148296.4      -5.9828895e-14  0              2.9998913    
   1100000   4500           100            100            0.00098485674 -1.4024194e-37  0              0.0029545702   0.22531896     0              21759.692     -5.9828895e-14  0              2.999921     
   1200000   4500           100            100            0.0012835016   2.1912803e-38  0              0.0038505048   5.3248903e-05  0              5.1423979     -5.9828895e-14  0              2.9999061    
   1300000   4500           100            100            0.0011152432   2.1912803e-39  0              0.0033457295   0.0043916059   0              424.10986     -5.9828895e-14  0              2.9999146    
   1400000   4500           100            100            0.0010896806  -1.0956401e-39  0              0.0032690418   4.3459486e-06  0              0.41970061    -5.9828895e-14  0              2.9999158    
   1500000   4500           100            100            0.0011110908   2.1912803e-39  0              0.0033332723   7.8032724e-05  0              7.535842      -5.9828895e-14  0              2.9999147    
   1600000   4500           100            100            0.001115188    1.0956401e-39  0              0.003345564    2.930399e-07   0              0.028299696   -5.9828895e-14  0              2.9999145    
   1700000   4500           100            100            0.0011124263   7.9284582e-51  0              0.0033372789   1.3689169e-06  0              0.1322002     -5.9828895e-14  0              2.9999147    
   1800000   4500           100            100            0.0011117953   3.6752726e-51  0              0.003335386    1.1546628e-08  0              0.0011150906  -5.9828895e-14  0              2.9999147    
   1900000   4500           100            100            0.0011121472   2.5679066e-41  0              0.0033364415   2.3677784e-08  0              0.0022866309  -5.9828895e-14  0              2.9999147    
   2000000   4500           100            100            0.0011122424   4.7879832e-52  0              0.0033367271   3.6118504e-10  0              3.4880666e-05 -5.9828895e-14  0              2.9999147    
   2100000   4500           100            100            0.001112198   -3.4238755e-41  0              0.0033365939   4.037073e-10   0              3.8987161e-05 -5.9828895e-14  0              2.9999147    
   2200000   4500           100            100            0.0011121839  -1.3695502e-40  0              0.0033365516   9.9163937e-12  0              9.5765433e-07 -5.9828895e-14  0              2.9999147    
   2300000   4500           100            100            0.0011121894   2.0543253e-40  0              0.0033365682   6.7782623e-12  0              6.5459606e-07 -5.9828895e-14  0              2.9999147    
   2400000   4500           100            100            0.0011121915   3.4737323e-57  0              0.0033365744   2.5041798e-13  0              2.4183576e-08 -5.9828895e-14  0              2.9999147    
   2500000   4500           100            100            0.0011121908  -1.3695502e-40  0              0.0033365723   1.1202599e-13  0              1.0818668e-08 -5.9828895e-14  0              2.9999147    
   2600000   4500           100            100            0.0011121905  -6.8477509e-41  0              0.0033365714   5.914535e-15   0              5.7118345e-10 -5.9828895e-14  0              2.9999147    
   2700000   4500           100            100            0.0011121906   1.477566e-58   0              0.0033365717   1.8025227e-15  0              1.7407474e-10 -5.9828895e-14  0              2.9999147    
   2800000   4500           100            100            0.0011121906   6.8477509e-41  0              0.0033365718   1.5678e-16     0              1.514069e-11  -5.9828895e-14  0              2.9999147    
   2900000   4500           100            100            0.0011121906   1.6242001e-60  0              0.0033365718   3.0655595e-17  0              2.9604979e-12 -5.9828895e-14  0              2.9999147    
   3000000   4500           100            100            0.0011121906  -1.3695502e-40  0              0.0033365718   7.3582928e-18  0              7.1061125e-13 -5.9828895e-14  0              2.9999147    
Loop time of 337.354 on 4 procs for 3000000 steps with 2501 atoms

Performance: 7683319.747 ns/day, 0.000 hours/ns, 8892.731 timesteps/s
100.0% CPU use with 4 MPI tasks x 1 OpenMP threads

MPI task timing breakdown:
Section |  min time  |  avg time  |  max time  |%varavg| %total
---------------------------------------------------------------
Pair    | 69.619     | 103.45     | 138.87     | 314.2 | 30.66
Neigh   | 0.26934    | 0.27107    | 0.27403    |   0.3 |  0.08
Comm    | 23.425     | 56.827     | 91.763     | 400.3 | 16.84
Output  | 0.1958     | 0.196      | 0.19623    |   0.0 |  0.06
Modify  | 119.49     | 139.33     | 156.38     | 139.4 | 41.30
Other   |            | 37.28      |            |       | 11.05

Nlocal:         625.25 ave         750 max         500 min
Histogram: 2 0 0 0 0 0 0 0 0 2
Nghost:           5.25 ave           6 max           4 min
Histogram: 1 0 0 0 0 1 0 0 0 2
Neighs:         875.25 ave        1125 max         625 min
Histogram: 2 0 0 0 0 0 0 0 0 2

Total # of neighbors = 3501
Ave neighs/atom = 1.3998401
Neighbor list builds = 64
Dangerous builds = 0

undump D1

############ Add spring between top chain to supp particle and then equilibrium  ###########

#fix sp1 support spring couple slider1 ${K0} ${lenspr} NULL NULL 0                                 # Add spring

#dump 		D2 all custom 100000 add_${num}*.dump id type diameter mass xu yu zu

#fix add1 all print 10 "${p0} ${distance} ${slider_z}" file add_distance_${num}.txt screen no      # out put step, distance(spring length), z-position of top chain

#run 1000000

#undump D2

#unfix add1

########## Pulling the supporting particle with constant velocity #############

#fix m1 support move linear 0.1 0 0 units box                                                      # apply constant velocity to supporting particles along x-direction V=0.1m/s

#fix move1 all print 100 "${p0} ${distance} ${slider_z}" file move_distance_${num}.txt screen no

#dump 		1 all custom 50000 move_${num}_*.dump id type diameter mass xu yu zu

#run 10000000

clear
  using 1 OpenMP thread(s) per MPI task

next num

jump SELF startloop

include granular.in
### Simulation of contact between two chain

##################### Simulation setup ####################

units micro                              # units
dimension	3                            # dimension
boundary	p p p                        # boundary condition p: periodic
atom_style	sphere                       # atom style
#processors * * 1

####################### Parameter ##################################

variable ind equal ${num}
variable ind equal 1

#variable lat0 equal 1                    #
variable lat1 equal 3           # Lattice distance of bottom chain
variable lat2 equal 3                    # Lattice distance of top chain
variable d1 equal 3                      # Diamter of particle at bottom chain
variable d2 equal 3                      # Diamter of particle at top chain
#variable d3 equal 1                      # Diamter of supporting particle

variable n2e1 equal 500*v_lat2              # Half length of top chain. 1500 is number of particles
variable n1e1 equal 1.5*v_n2e1*(v_lat1/v_lat2)              # Half length of bottom chain, which is 1.5 time larger than top chain
variable n1e2 equal -v_n1e1
variable n2e2 equal -v_n2e1
#variable lenspr equal -(v_n2e1+50)           # length of the spring connecting top chain and supporting particle
#variable lenspr1 equal -v_lenspr-0.1         # Position of supporting particle upper bound
#variable lenspr2 equal -v_lenspr+0.1         # Position of supporting particle lower bound

variable den equal 2.2 #grams/cm^3      # micrometer^3=10^-12 cm^3 Density of materials

variable V1 equal (1/6)*PI*(v_d1^3)     # Volume of particle 1
variable V2 equal (1/6)*PI*(v_d2^3)     # Volume of particle 2
#variable V3 equal (1/6)*PI*(v_d3^3)     # Volume of particle 3

variable mass1 equal v_den*v_V1  # Mass of particle 1 (picograms)
variable mass2 equal v_den*v_V2  # Mass of particle 2
#variable mass3 equal v_den*v_V3  # Mass of particle 3

# E GPa to picogram/(micrometer-microsecond^2)= 10^3 Pa= 10^-6 GPa
# Force unit(picogram-micrometer/microsecond^2)=10^-9 N= 1nN
# Spring stiffness (force/distance) 10^-3 N/m

#variable K0 equal (1500/50)*(10^5)             # Spring stiffness conneting top chain and sup particle
variable E equal 100*(10^6)                    # Young's Modulus using for Hertz/material model
variable PR equal 0.3                          # Poisson's ratio using for Hertz/material model
variable Fn equal -50-(v_ind*50)                       # Force apply to each particles in top chain
variable dt equal 0.00001                      # Time step units microsecond
variable lgv equal 0.5                         #damping for langevin thermostat for slider


################### Creating the model #################################
lattice sc ${lat1}                                                               # Bottom chain type1
lattice sc 3                                                               
Lattice spacing in x,y,z = 3 3 3

region box block ${n1e2} ${n1e1} -50 50 -50 50 units box
region box block -2250 ${n1e1} -50 50 -50 50 units box
region box block -2250 2250 -50 50 -50 50 units box
region substrate block ${n1e2} ${n1e1} -0.1 0.1 0 0.1 units box
region substrate block -2250 ${n1e1} -0.1 0.1 0 0.1 units box
region substrate block -2250 2250 -0.1 0.1 0 0.1 units box

create_box 2 box
Created orthogonal box = (-2250 -50 -50) to (2250 50 50)
  4 by 1 by 1 MPI processor grid
create_atoms 1 region substrate
Created 1500 atoms
  using lattice units in orthogonal box = (-2250 -50 -50) to (2250 50 50)
  create_atoms CPU = 0.001 seconds

lattice sc ${lat2}                                                             # Top chain type2
lattice sc 3                                                             
Lattice spacing in x,y,z = 3 3 3

region slider1 block ${n2e2} ${n2e1} -0.1 0.1 5.9 6.1 units box
region slider1 block -1500 ${n2e1} -0.1 0.1 5.9 6.1 units box
region slider1 block -1500 1500 -0.1 0.1 5.9 6.1 units box

create_atoms 2 region slider1
Created 1001 atoms
  using lattice units in orthogonal box = (-2250 -50 -50) to (2250 50 50)
  create_atoms CPU = 0.001 seconds

#lattice sc ${lat0}                                                             # Supporting particle type3

#region support block ${lenspr1} ${lenspr2} -0.1 0.1 7.9 8.1 units box

#create_atoms 3 region support

set type 1 diameter ${d1}                    # Set mass and diameter for each particles type
set type 1 diameter 3                    
Setting atom values ...
  1500 settings made for diameter
set type 1 mass ${mass1}
set type 1 mass 31.101767270539
Setting atom values ...
  1500 settings made for mass
set type 2 diameter ${d2}
set type 2 diameter 3
Setting atom values ...
  1001 settings made for diameter
set type 2 mass ${mass2}
set type 2 mass 31.101767270539
Setting atom values ...
  1001 settings made for mass
#set type 3 diameter ${d3}
#set type 3 mass ${mass3}

group substrate region substrate           # Define gorup
1500 atoms in group substrate
group slider1 region slider1
1001 atoms in group slider1
#group support region support
group substrate_slider union substrate slider1
2501 atoms in group substrate_slider

########################## Potential ###################################
pair_style granular
pair_coeff 1 1 hertz/material 0.00000001 0.001 ${PR} tangential mindlin NULL 0.1 0.01 damping viscoelastic              ########### set E between each particle in same type is small to neglect their interaction
pair_coeff 1 1 hertz/material 0.00000001 0.001 0.3 tangential mindlin NULL 0.1 0.01 damping viscoelastic              
pair_coeff 2 2 hertz/material 0.00000001 0.001 ${PR} tangential mindlin NULL 0.1 0.01 damping viscoelastic
pair_coeff 2 2 hertz/material 0.00000001 0.001 0.3 tangential mindlin NULL 0.1 0.01 damping viscoelastic
#pair_coeff 3 3 hertz/material ${E} 0.001 ${PR} tangential mindlin NULL 0.1 0.01 damping viscoelastic
pair_coeff 1 2 hertz/material ${E} 0.001 ${PR} tangential mindlin NULL 0.1 0.01 damping viscoelastic
pair_coeff 1 2 hertz/material 100000000 0.001 ${PR} tangential mindlin NULL 0.1 0.01 damping viscoelastic
pair_coeff 1 2 hertz/material 100000000 0.001 0.3 tangential mindlin NULL 0.1 0.01 damping viscoelastic
#pair_coeff 1 3 hertz/material 0.00000001 0.001 ${PR} tangential mindlin NULL 0.1 0.01 damping viscoelastic
#pair_coeff 2 3 hertz/material 0.00000001 0.001 ${PR} tangential mindlin NULL 0.1 0.01 damping viscoelastic
comm_modify     vel yes
neigh_modify    delay 0 every 1 check yes

### Compute properties ###

compute 1 slider1 com                      # Compute the center of mass of top chain
#compute 2 support com                      # Compute the center of mass of supporting particle

variable p0 equal "step"

variable slider_z equal "c_1[3]"          # output the position of top chain in z-direction

#variable distance equal "c_2[1]-c_1[1]"   # Distance between COM of top chain and supporting particle

thermo 100000
thermo_style custom step lx ly lz press pxx pyy pzz ke pe temp c_1[1] c_1[2] c_1[3] #c_2[1] c_2[2] c_2[3] v_distance

############### Fix ##################


############## Equilibrium the system with apply force ########################

fix force_slider1 slider1 setforce NULL 0 NULL                                # Fix top chain not to move in y-direction

fix f_sub substrate freeze                                                    # Freeze the bottom chain

fix rigid_top slider1 rigid/nve group 1 slider1 langevin 0 0 ${lgv} 6987532   # NVE+langevin
fix rigid_top slider1 rigid/nve group 1 slider1 langevin 0 0 0.5 6987532   
  1 rigid bodies with 1001 atoms

fix add slider1 addforce 0 0 ${Fn} every 1                                    # Add force to top layer
fix add slider1 addforce 0 0 -100 every 1                                    

timestep ${dt}
timestep 1e-05

# fix  nve_1 slider1 nve

dump 		D1 all custom 100000 Equi_${num}_*.dump id type diameter mass xu yu zu
dump 		D1 all custom 100000 Equi_1_*.dump id type diameter mass xu yu zu

run 3000000
Generated 0 of 1 mixed pair_coeff terms from geometric mixing rule
Neighbor list info ...
  update every 1 steps, delay 0 steps, check yes
  max neighbors/atom: 2000, page size: 100000
  master list distance cutoff = 3.1
  ghost atom cutoff = 3.1
  binsize = 1.55, bins = 2904 65 65
  1 neighbor lists, perpetual/occasional/extra = 1 0 0
  (1) pair granular, perpetual
      attributes: half, newton on, size, history
      pair build: half/size/bin/newton
      stencil: half/bin/3d
      bin: standard
Per MPI rank memory allocation (min/avg/max) = 26.4 | 26.4 | 26.41 Mbytes
   Step           Lx             Ly             Lz           Press           Pxx            Pyy            Pzz           KinEng         PotEng          Temp          c_1[1]         c_1[2]         c_1[3]    
         0   4500           100            100            0              0              0              0              0              0              0             -5.9828895e-14  0              6            
    100000   4500           100            100            0.0037073091   0              0              0.011121927    30078.478      0              2.9047641e+09 -5.9828895e-14  0              5.0874051    
    200000   4500           100            100            0.0031757872   0              0              0.0095273615   38770.665      0              3.7441934e+09 -5.9828895e-14  0              3.5738397    
    300000   4500           100            100            0.0011288619   2.2438711e-36  0              0.0033865856   7700.1842      0              7.4362868e+08 -5.9828895e-14  0              3.128336     
    400000   4500           100            100            0.00063320066 -2.2438708e-36  0              0.001899602    2808.8079      0              2.7125456e+08 -5.9828895e-14  0              3.019687     
    500000   4500           100            100            0.00038259748 -1.1219354e-36  0              0.0011477924   1091.647       0              1.0542345e+08 -5.9828895e-14  0              3.0003158    
    600000   4500           100            100            0.0001047926   7.012097e-38   0              0.00031437779  87.066608      0              8408269.8     -5.9828895e-14  0              3.0018098    
    700000   4500           100            100            0.0067385517   2.8048389e-37  0              0.020215655    44.371811      0              4285111.9     -5.9828895e-14  0              2.9997185    
    800000   4500           100            100            0.00032484886 -5.6096775e-37  0              0.00097454657  5.4895407      0              530140.55     -5.9828895e-14  0              2.9999605    
    900000   4500           100            100            0.0017072809   1.7629864e-45  0              0.0051218428   1.1075769      0              106961.84     -5.9828895e-14  0              2.999887     
   1000000   4500           100            100            0.0019501109   2.6295364e-38  0              0.0058503326   0.11261341     0              10875.397     -5.9828895e-14  0              2.9998761    
   1100000   4500           100            100            0.0021443497   3.2869204e-39  0              0.0064330492   0.018694266    0              1805.3584     -5.9828895e-14  0              2.9998679    
   1200000   4500           100            100            0.0022062549  -4.3825606e-39  0              0.0066187648   0.0029997196   0              289.69145     -5.9828895e-14  0              2.9998653    
   1300000   4500           100            100            0.0022222298   4.0512336e-49  0              0.0066666894   0.0004388208   0              42.378172     -5.9828895e-14  0              2.9998647    
   1400000   4500           100            100            0.0022252549  -4.3825606e-39  0              0.0066757646   5.87114e-05    0              5.6699268     -5.9828895e-14  0              2.9998645    
   1500000   4500           100            100            0.0022252787   4.4018241e-50  0              0.0066758361   7.1854222e-06  0              0.69391664    -5.9828895e-14  0              2.9998645    
   1600000   4500           100            100            0.0022248912  -9.5868513e-40  0              0.0066746735   7.9767242e-07  0              0.077033492   -5.9828895e-14  0              2.9998645    
   1700000   4500           100            100            0.0022246106   2.7391004e-40  0              0.0066738319   7.8676761e-08  0              0.0075980384  -5.9828895e-14  0              2.9998646    
   1800000   4500           100            100            0.0022244616   1.0956401e-39  0              0.0066733849   6.5970228e-09  0              0.00063709325 -5.9828895e-14  0              2.9998646    
   1900000   4500           100            100            0.0022243925   2.7391004e-40  0              0.0066731776   4.2393507e-10  0              4.0940614e-05 -5.9828895e-14  0              2.9998646    
   2000000   4500           100            100            0.002224363    2.7391004e-40  0              0.006673089    1.4929354e-11  0              1.4417701e-06 -5.9828895e-14  0              2.9998646    
   2100000   4500           100            100            0.0022243511   2.7391004e-40  0              0.0066730534   7.1767427e-17  0              6.9307844e-12 -5.9828895e-14  0              2.9998646    
   2200000   4500           100            100            0.0022243466   4.6810757e-54  0              0.0066730397   2.6153693e-13  0              2.5257365e-08 -5.9828895e-14  0              2.9998646    
   2300000   4500           100            100            0.0022243449   5.4782007e-40  0              0.0066730347   1.3478191e-13  0              1.3016272e-08 -5.9828895e-14  0              2.9998646    
   2400000   4500           100            100            0.0022243443   8.3878304e-56  0              0.0066730329   3.8089591e-14  0              3.6784201e-09 -5.9828895e-14  0              2.9998646    
   2500000   4500           100            100            0.0022243441   1.58988e-57    0              0.0066730323   8.2763305e-15  0              7.9926876e-10 -5.9828895e-14  0              2.9998646    
   2600000   4500           100            100            0.002224344   -5.4782007e-40  0              0.0066730321   1.4505233e-15  0              1.4008116e-10 -5.9828895e-14  0              2.9998646    
   2700000   4500           100            100            0.002224344   -2.7391004e-40  0              0.0066730321   2.2439123e-16  0              2.1670099e-11 -5.9828895e-14  0              2.9998646    
   2800000   4500           100            100            0.002224344   -5.4782007e-40  0              0.0066730321   1.3367152e-18  0              1.2909038e-13 -5.9828895e-14  0              2.9998646    
   2900000   4500           100            100            0.002224344   -2.7391004e-40  0              0.0066730321   5.961366e-18   0              5.7570606e-13 -5.9828895e-14  0              2.9998646    
   3000000   4500           100            100            0.002224344   -2.7391004e-40  0              0.0066730321   8.7510544e-21  0              8.451142e-16  -5.9828895e-14  0              2.9998646    
Loop time of 330.215 on 4 procs for 3000000 steps with 2501 atoms

Performance: 7849421.355 ns/day, 0.000 hours/ns, 9084.978 timesteps/s
100.0% CPU use with 4 MPI tasks x 1 OpenMP threads

MPI task timing breakdown:
Section |  min time  |  avg time  |  max time  |%varavg| %total
---------------------------------------------------------------
Pair    | 65.548     | 100.7      | 136.64     | 331.2 | 30.50
Neigh   | 0.30229    | 0.30659    | 0.31097    |   0.6 |  0.09
Comm    | 23.639     | 57.864     | 93.061     | 417.7 | 17.52
Output  | 0.19421    | 0.19439    | 0.1946     |   0.0 |  0.06
Modify  | 114.51     | 132.95     | 151.96     | 144.2 | 40.26
Other   |            | 38.2       |            |       | 11.57

Nlocal:         625.25 ave         750 max         500 min
Histogram: 2 0 0 0 0 0 0 0 0 2
Nghost:           5.25 ave           6 max           4 min
Histogram: 1 0 0 0 0 1 0 0 0 2
Neighs:         875.25 ave        1125 max         625 min
Histogram: 2 0 0 0 0 0 0 0 0 2

Total # of neighbors = 3501
Ave neighs/atom = 1.3998401
Neighbor list builds = 72
Dangerous builds = 0

undump D1

############ Add spring between top chain to supp particle and then equilibrium  ###########

#fix sp1 support spring couple slider1 ${K0} ${lenspr} NULL NULL 0                                 # Add spring

#dump 		D2 all custom 100000 add_${num}*.dump id type diameter mass xu yu zu

#fix add1 all print 10 "${p0} ${distance} ${slider_z}" file add_distance_${num}.txt screen no      # out put step, distance(spring length), z-position of top chain

#run 1000000

#undump D2

#unfix add1

########## Pulling the supporting particle with constant velocity #############

#fix m1 support move linear 0.1 0 0 units box                                                      # apply constant velocity to supporting particles along x-direction V=0.1m/s

#fix move1 all print 100 "${p0} ${distance} ${slider_z}" file move_distance_${num}.txt screen no

#dump 		1 all custom 50000 move_${num}_*.dump id type diameter mass xu yu zu

#run 10000000

clear
  using 1 OpenMP thread(s) per MPI task

next num

jump SELF startloop

include granular.in
### Simulation of contact between two chain

##################### Simulation setup ####################

units micro                              # units
dimension	3                            # dimension
boundary	p p p                        # boundary condition p: periodic
atom_style	sphere                       # atom style
#processors * * 1

####################### Parameter ##################################

variable ind equal ${num}
variable ind equal 2

#variable lat0 equal 1                    #
variable lat1 equal 3           # Lattice distance of bottom chain
variable lat2 equal 3                    # Lattice distance of top chain
variable d1 equal 3                      # Diamter of particle at bottom chain
variable d2 equal 3                      # Diamter of particle at top chain
#variable d3 equal 1                      # Diamter of supporting particle

variable n2e1 equal 500*v_lat2              # Half length of top chain. 1500 is number of particles
variable n1e1 equal 1.5*v_n2e1*(v_lat1/v_lat2)              # Half length of bottom chain, which is 1.5 time larger than top chain
variable n1e2 equal -v_n1e1
variable n2e2 equal -v_n2e1
#variable lenspr equal -(v_n2e1+50)           # length of the spring connecting top chain and supporting particle
#variable lenspr1 equal -v_lenspr-0.1         # Position of supporting particle upper bound
#variable lenspr2 equal -v_lenspr+0.1         # Position of supporting particle lower bound

variable den equal 2.2 #grams/cm^3      # micrometer^3=10^-12 cm^3 Density of materials

variable V1 equal (1/6)*PI*(v_d1^3)     # Volume of particle 1
variable V2 equal (1/6)*PI*(v_d2^3)     # Volume of particle 2
#variable V3 equal (1/6)*PI*(v_d3^3)     # Volume of particle 3

variable mass1 equal v_den*v_V1  # Mass of particle 1 (picograms)
variable mass2 equal v_den*v_V2  # Mass of particle 2
#variable mass3 equal v_den*v_V3  # Mass of particle 3

# E GPa to picogram/(micrometer-microsecond^2)= 10^3 Pa= 10^-6 GPa
# Force unit(picogram-micrometer/microsecond^2)=10^-9 N= 1nN
# Spring stiffness (force/distance) 10^-3 N/m

#variable K0 equal (1500/50)*(10^5)             # Spring stiffness conneting top chain and sup particle
variable E equal 100*(10^6)                    # Young's Modulus using for Hertz/material model
variable PR equal 0.3                          # Poisson's ratio using for Hertz/material model
variable Fn equal -50-(v_ind*50)                       # Force apply to each particles in top chain
variable dt equal 0.00001                      # Time step units microsecond
variable lgv equal 0.5                         #damping for langevin thermostat for slider


################### Creating the model #################################
lattice sc ${lat1}                                                               # Bottom chain type1
lattice sc 3                                                               
Lattice spacing in x,y,z = 3 3 3

region box block ${n1e2} ${n1e1} -50 50 -50 50 units box
region box block -2250 ${n1e1} -50 50 -50 50 units box
region box block -2250 2250 -50 50 -50 50 units box
region substrate block ${n1e2} ${n1e1} -0.1 0.1 0 0.1 units box
region substrate block -2250 ${n1e1} -0.1 0.1 0 0.1 units box
region substrate block -2250 2250 -0.1 0.1 0 0.1 units box

create_box 2 box
Created orthogonal box = (-2250 -50 -50) to (2250 50 50)
  4 by 1 by 1 MPI processor grid
create_atoms 1 region substrate
Created 1500 atoms
  using lattice units in orthogonal box = (-2250 -50 -50) to (2250 50 50)
  create_atoms CPU = 0.001 seconds

lattice sc ${lat2}                                                             # Top chain type2
lattice sc 3                                                             
Lattice spacing in x,y,z = 3 3 3

region slider1 block ${n2e2} ${n2e1} -0.1 0.1 5.9 6.1 units box
region slider1 block -1500 ${n2e1} -0.1 0.1 5.9 6.1 units box
region slider1 block -1500 1500 -0.1 0.1 5.9 6.1 units box

create_atoms 2 region slider1
Created 1001 atoms
  using lattice units in orthogonal box = (-2250 -50 -50) to (2250 50 50)
  create_atoms CPU = 0.001 seconds

#lattice sc ${lat0}                                                             # Supporting particle type3

#region support block ${lenspr1} ${lenspr2} -0.1 0.1 7.9 8.1 units box

#create_atoms 3 region support

set type 1 diameter ${d1}                    # Set mass and diameter for each particles type
set type 1 diameter 3                    
Setting atom values ...
  1500 settings made for diameter
set type 1 mass ${mass1}
set type 1 mass 31.101767270539
Setting atom values ...
  1500 settings made for mass
set type 2 diameter ${d2}
set type 2 diameter 3
Setting atom values ...
  1001 settings made for diameter
set type 2 mass ${mass2}
set type 2 mass 31.101767270539
Setting atom values ...
  1001 settings made for mass
#set type 3 diameter ${d3}
#set type 3 mass ${mass3}

group substrate region substrate           # Define gorup
1500 atoms in group substrate
group slider1 region slider1
1001 atoms in group slider1
#group support region support
group substrate_slider union substrate slider1
2501 atoms in group substrate_slider

########################## Potential ###################################
pair_style granular
pair_coeff 1 1 hertz/material 0.00000001 0.001 ${PR} tangential mindlin NULL 0.1 0.01 damping viscoelastic              ########### set E between each particle in same type is small to neglect their interaction
pair_coeff 1 1 hertz/material 0.00000001 0.001 0.3 tangential mindlin NULL 0.1 0.01 damping viscoelastic              
pair_coeff 2 2 hertz/material 0.00000001 0.001 ${PR} tangential mindlin NULL 0.1 0.01 damping viscoelastic
pair_coeff 2 2 hertz/material 0.00000001 0.001 0.3 tangential mindlin NULL 0.1 0.01 damping viscoelastic
#pair_coeff 3 3 hertz/material ${E} 0.001 ${PR} tangential mindlin NULL 0.1 0.01 damping viscoelastic
pair_coeff 1 2 hertz/material ${E} 0.001 ${PR} tangential mindlin NULL 0.1 0.01 damping viscoelastic
pair_coeff 1 2 hertz/material 100000000 0.001 ${PR} tangential mindlin NULL 0.1 0.01 damping viscoelastic
pair_coeff 1 2 hertz/material 100000000 0.001 0.3 tangential mindlin NULL 0.1 0.01 damping viscoelastic
#pair_coeff 1 3 hertz/material 0.00000001 0.001 ${PR} tangential mindlin NULL 0.1 0.01 damping viscoelastic
#pair_coeff 2 3 hertz/material 0.00000001 0.001 ${PR} tangential mindlin NULL 0.1 0.01 damping viscoelastic
comm_modify     vel yes
neigh_modify    delay 0 every 1 check yes

### Compute properties ###

compute 1 slider1 com                      # Compute the center of mass of top chain
#compute 2 support com                      # Compute the center of mass of supporting particle

variable p0 equal "step"

variable slider_z equal "c_1[3]"          # output the position of top chain in z-direction

#variable distance equal "c_2[1]-c_1[1]"   # Distance between COM of top chain and supporting particle

thermo 100000
thermo_style custom step lx ly lz press pxx pyy pzz ke pe temp c_1[1] c_1[2] c_1[3] #c_2[1] c_2[2] c_2[3] v_distance

############### Fix ##################


############## Equilibrium the system with apply force ########################

fix force_slider1 slider1 setforce NULL 0 NULL                                # Fix top chain not to move in y-direction

fix f_sub substrate freeze                                                    # Freeze the bottom chain

fix rigid_top slider1 rigid/nve group 1 slider1 langevin 0 0 ${lgv} 6987532   # NVE+langevin
fix rigid_top slider1 rigid/nve group 1 slider1 langevin 0 0 0.5 6987532   
  1 rigid bodies with 1001 atoms

fix add slider1 addforce 0 0 ${Fn} every 1                                    # Add force to top layer
fix add slider1 addforce 0 0 -150 every 1                                    

timestep ${dt}
timestep 1e-05

# fix  nve_1 slider1 nve

dump 		D1 all custom 100000 Equi_${num}_*.dump id type diameter mass xu yu zu
dump 		D1 all custom 100000 Equi_2_*.dump id type diameter mass xu yu zu

run 3000000
Generated 0 of 1 mixed pair_coeff terms from geometric mixing rule
Neighbor list info ...
  update every 1 steps, delay 0 steps, check yes
  max neighbors/atom: 2000, page size: 100000
  master list distance cutoff = 3.1
  ghost atom cutoff = 3.1
  binsize = 1.55, bins = 2904 65 65
  1 neighbor lists, perpetual/occasional/extra = 1 0 0
  (1) pair granular, perpetual
      attributes: half, newton on, size, history
      pair build: half/size/bin/newton
      stencil: half/bin/3d
      bin: standard
Per MPI rank memory allocation (min/avg/max) = 26.4 | 26.4 | 26.41 Mbytes
   Step           Lx             Ly             Lz           Press           Pxx            Pyy            Pzz           KinEng         PotEng          Temp          c_1[1]         c_1[2]         c_1[3]    
         0   4500           100            100            0              0              0              0              0              0              0             -5.9828895e-14  0              6            
    100000   4500           100            100            0.005456352    0              0              0.016369056    67676.576      0              6.5357193e+09 -5.9828895e-14  0              4.6311076    
    200000   4500           100            100           -0.00054805657  2.2438712e-36  0             -0.0016441697   2223.6775      0              2.1474686e+08 -5.9828895e-14  0              3.3323878    
    300000   4500           100            100            0.0015684175  -3.5060485e-38  0              0.0047052524   14737.031      0              1.423197e+09  -5.9828895e-14  0              3.0084958    
    400000   4500           100            100           -0.00029017186  1.8856999e-43  0             -0.00087051559  725.99602      0              70111499      -5.9828895e-14  0              3.0204263    
    500000   4500           100            100            9.1598502e-05  8.3120506e-45  0              0.00027479551  66.577997      0              6429626.4     -5.9828895e-14  0              3.0061593    
    600000   4500           100            100           -4.3524685e-05  1.9581906e-44  0             -0.00013057406  15.504018      0              1497267.1     -5.9828895e-14  0              3.0012813    
    700000   4500           100            100            0.011651408    5.609678e-37   0              0.034954224    3.3690621      0              325359.9      -5.9828895e-14  0              2.999592     
    800000   4500           100            100            0.0028804935   1.4024194e-37  0              0.0086414805   6.1997321      0              598725.75     -5.9828895e-14  0              2.9998401    
    900000   4500           100            100            0.0028604209   1.5917161e-46  0              0.0085812626   0.66822978     0              64532.849     -5.9828895e-14  0              2.9998402    
   1000000   4500           100            100            0.003416545   -1.7530242e-38  0              0.010249635    0.11014238     0              10636.763     -5.9828895e-14  0              2.9998198    
   1100000   4500           100            100            0.0034564601   1.7530242e-38  0              0.01036938     0.0040535905   0              391.46676     -5.9828895e-14  0              2.9998183    
   1200000   4500           100            100            0.0033850414  -4.3825606e-39  0              0.010155124    0.00017600676  0              16.997473     -5.9828895e-14  0              2.9998208    
   1300000   4500           100            100            0.0033442772   9.380259e-50   0              0.010032831    0.00022568581  0              21.79512      -5.9828895e-14  0              2.9998222    
   1400000   4500           100            100            0.0033338136  -2.1912803e-39  0              0.010001441    3.1339406e-05  0              3.0265355     -5.9828895e-14  0              2.9998226    
   1500000   4500           100            100            0.0033341214   1.8458841e-50  0              0.010002364    5.4397386e-07  0              0.052533102   -5.9828895e-14  0              2.9998226    
   1600000   4500           100            100            0.0033356725  -1.0956401e-39  0              0.010007017    1.4984293e-07  0              0.014470758   -5.9828895e-14  0              2.9998226    
   1700000   4500           100            100            0.0033363925   1.3880035e-50  0              0.010009177    8.3286071e-08  0              0.0080431726  -5.9828895e-14  0              2.9998225    
   1800000   4500           100            100            0.0033365382   1.2701347e-51  0              0.010009615    8.0641834e-09  0              0.00077878111 -5.9828895e-14  0              2.9998225    
   1900000   4500           100            100            0.0033365134   6.8477509e-41  0              0.01000954     2.9694531e-11  0              2.8676853e-06 -5.9828895e-14  0              2.9998225    
   2000000   4500           100            100            0.0033364817   7.1485421e-53  0              0.010009445    8.7234136e-11  0              8.4244485e-06 -5.9828895e-14  0              2.9998225    
   2100000   4500           100            100            0.0033364695   2.7937726e-58  0              0.010009408    2.8215934e-11  0              2.7248929e-06 -5.9828895e-14  0              2.9998225    
   2200000   4500           100            100            0.0033364677   3.8347405e-39  0              0.010009403    1.8405538e-12  0              1.7774751e-07 -5.9828895e-14  0              2.9998225    
   2300000   4500           100            100            0.0033364685  -6.8477509e-40  0              0.010009405    2.0162777e-15  0              1.9471767e-10 -5.9828895e-14  0              2.9998225    
   2400000   4500           100            100            0.0033364691   1.3695502e-40  0              0.010009407    4.134318e-14   0              3.9926284e-09 -5.9828895e-14  0              2.9998225    
   2500000   4500           100            100            0.0033364693   2.7391004e-40  0              0.010009408    8.7755565e-15  0              8.4748043e-10 -5.9828895e-14  0              2.9998225    
   2600000   4500           100            100            0.0033364693   5.3197748e-58  0              0.010009408    3.7993531e-16  0              3.6691433e-11 -5.9828895e-14  0              2.9998225    
   2700000   4500           100            100            0.0033364693   1.3695502e-40  0              0.010009408    9.6935904e-19  0              9.3613758e-14 -5.9828895e-14  0              2.9998225    
   2800000   4500           100            100            0.0033364693   5.6388754e-60  0              0.010009408    3.7654487e-19  0              3.6364008e-14 -5.9828895e-14  0              2.9998225    
   2900000   4500           100            100            0.0033364693  -5.4782007e-40  0              0.010009408    2.371037e-18   0              2.2897778e-13 -5.9828895e-14  0              2.9998225    
   3000000   4500           100            100            0.0033364693   5.4782007e-40  0              0.010009408    7.3989651e-18  0              7.1453909e-13 -5.9828895e-14  0              2.9998225    
Loop time of 327.684 on 4 procs for 3000000 steps with 2501 atoms

Performance: 7910066.441 ns/day, 0.000 hours/ns, 9155.169 timesteps/s
100.0% CPU use with 4 MPI tasks x 1 OpenMP threads

MPI task timing breakdown:
Section |  min time  |  avg time  |  max time  |%varavg| %total
---------------------------------------------------------------
Pair    | 67.771     | 102.35     | 136.51     | 333.4 | 31.23
Neigh   | 0.33777    | 0.34272    | 0.34803    |   0.6 |  0.10
Comm    | 24.046     | 57.546     | 90.996     | 438.3 | 17.56
Output  | 0.19437    | 0.19453    | 0.19475    |   0.0 |  0.06
Modify  | 112.92     | 130.13     | 148.61     | 151.1 | 39.71
Other   |            | 37.12      |            |       | 11.33

Nlocal:         625.25 ave         750 max         500 min
Histogram: 2 0 0 0 0 0 0 0 0 2
Nghost:           5.25 ave           6 max           4 min
Histogram: 1 0 0 0 0 1 0 0 0 2
Neighs:         875.25 ave        1125 max         625 min
Histogram: 2 0 0 0 0 0 0 0 0 2

Total # of neighbors = 3501
Ave neighs/atom = 1.3998401
Neighbor list builds = 80
Dangerous builds = 0

undump D1

############ Add spring between top chain to supp particle and then equilibrium  ###########

#fix sp1 support spring couple slider1 ${K0} ${lenspr} NULL NULL 0                                 # Add spring

#dump 		D2 all custom 100000 add_${num}*.dump id type diameter mass xu yu zu

#fix add1 all print 10 "${p0} ${distance} ${slider_z}" file add_distance_${num}.txt screen no      # out put step, distance(spring length), z-position of top chain

#run 1000000

#undump D2

#unfix add1

########## Pulling the supporting particle with constant velocity #############

#fix m1 support move linear 0.1 0 0 units box                                                      # apply constant velocity to supporting particles along x-direction V=0.1m/s

#fix move1 all print 100 "${p0} ${distance} ${slider_z}" file move_distance_${num}.txt screen no

#dump 		1 all custom 50000 move_${num}_*.dump id type diameter mass xu yu zu

#run 10000000

clear
  using 1 OpenMP thread(s) per MPI task

next num

jump SELF startloop

include granular.in
### Simulation of contact between two chain

##################### Simulation setup ####################

units micro                              # units
dimension	3                            # dimension
boundary	p p p                        # boundary condition p: periodic
atom_style	sphere                       # atom style
#processors * * 1

####################### Parameter ##################################

variable ind equal ${num}
variable ind equal 3

#variable lat0 equal 1                    #
variable lat1 equal 3           # Lattice distance of bottom chain
variable lat2 equal 3                    # Lattice distance of top chain
variable d1 equal 3                      # Diamter of particle at bottom chain
variable d2 equal 3                      # Diamter of particle at top chain
#variable d3 equal 1                      # Diamter of supporting particle

variable n2e1 equal 500*v_lat2              # Half length of top chain. 1500 is number of particles
variable n1e1 equal 1.5*v_n2e1*(v_lat1/v_lat2)              # Half length of bottom chain, which is 1.5 time larger than top chain
variable n1e2 equal -v_n1e1
variable n2e2 equal -v_n2e1
#variable lenspr equal -(v_n2e1+50)           # length of the spring connecting top chain and supporting particle
#variable lenspr1 equal -v_lenspr-0.1         # Position of supporting particle upper bound
#variable lenspr2 equal -v_lenspr+0.1         # Position of supporting particle lower bound

variable den equal 2.2 #grams/cm^3      # micrometer^3=10^-12 cm^3 Density of materials

variable V1 equal (1/6)*PI*(v_d1^3)     # Volume of particle 1
variable V2 equal (1/6)*PI*(v_d2^3)     # Volume of particle 2
#variable V3 equal (1/6)*PI*(v_d3^3)     # Volume of particle 3

variable mass1 equal v_den*v_V1  # Mass of particle 1 (picograms)
variable mass2 equal v_den*v_V2  # Mass of particle 2
#variable mass3 equal v_den*v_V3  # Mass of particle 3

# E GPa to picogram/(micrometer-microsecond^2)= 10^3 Pa= 10^-6 GPa
# Force unit(picogram-micrometer/microsecond^2)=10^-9 N= 1nN
# Spring stiffness (force/distance) 10^-3 N/m

#variable K0 equal (1500/50)*(10^5)             # Spring stiffness conneting top chain and sup particle
variable E equal 100*(10^6)                    # Young's Modulus using for Hertz/material model
variable PR equal 0.3                          # Poisson's ratio using for Hertz/material model
variable Fn equal -50-(v_ind*50)                       # Force apply to each particles in top chain
variable dt equal 0.00001                      # Time step units microsecond
variable lgv equal 0.5                         #damping for langevin thermostat for slider


################### Creating the model #################################
lattice sc ${lat1}                                                               # Bottom chain type1
lattice sc 3                                                               
Lattice spacing in x,y,z = 3 3 3

region box block ${n1e2} ${n1e1} -50 50 -50 50 units box
region box block -2250 ${n1e1} -50 50 -50 50 units box
region box block -2250 2250 -50 50 -50 50 units box
region substrate block ${n1e2} ${n1e1} -0.1 0.1 0 0.1 units box
region substrate block -2250 ${n1e1} -0.1 0.1 0 0.1 units box
region substrate block -2250 2250 -0.1 0.1 0 0.1 units box

create_box 2 box
Created orthogonal box = (-2250 -50 -50) to (2250 50 50)
  4 by 1 by 1 MPI processor grid
create_atoms 1 region substrate
Created 1500 atoms
  using lattice units in orthogonal box = (-2250 -50 -50) to (2250 50 50)
  create_atoms CPU = 0.001 seconds

lattice sc ${lat2}                                                             # Top chain type2
lattice sc 3                                                             
Lattice spacing in x,y,z = 3 3 3

region slider1 block ${n2e2} ${n2e1} -0.1 0.1 5.9 6.1 units box
region slider1 block -1500 ${n2e1} -0.1 0.1 5.9 6.1 units box
region slider1 block -1500 1500 -0.1 0.1 5.9 6.1 units box

create_atoms 2 region slider1
Created 1001 atoms
  using lattice units in orthogonal box = (-2250 -50 -50) to (2250 50 50)
  create_atoms CPU = 0.001 seconds

#lattice sc ${lat0}                                                             # Supporting particle type3

#region support block ${lenspr1} ${lenspr2} -0.1 0.1 7.9 8.1 units box

#create_atoms 3 region support

set type 1 diameter ${d1}                    # Set mass and diameter for each particles type
set type 1 diameter 3                    
Setting atom values ...
  1500 settings made for diameter
set type 1 mass ${mass1}
set type 1 mass 31.101767270539
Setting atom values ...
  1500 settings made for mass
set type 2 diameter ${d2}
set type 2 diameter 3
Setting atom values ...
  1001 settings made for diameter
set type 2 mass ${mass2}
set type 2 mass 31.101767270539
Setting atom values ...
  1001 settings made for mass
#set type 3 diameter ${d3}
#set type 3 mass ${mass3}

group substrate region substrate           # Define gorup
1500 atoms in group substrate
group slider1 region slider1
1001 atoms in group slider1
#group support region support
group substrate_slider union substrate slider1
2501 atoms in group substrate_slider

########################## Potential ###################################
pair_style granular
pair_coeff 1 1 hertz/material 0.00000001 0.001 ${PR} tangential mindlin NULL 0.1 0.01 damping viscoelastic              ########### set E between each particle in same type is small to neglect their interaction
pair_coeff 1 1 hertz/material 0.00000001 0.001 0.3 tangential mindlin NULL 0.1 0.01 damping viscoelastic              
pair_coeff 2 2 hertz/material 0.00000001 0.001 ${PR} tangential mindlin NULL 0.1 0.01 damping viscoelastic
pair_coeff 2 2 hertz/material 0.00000001 0.001 0.3 tangential mindlin NULL 0.1 0.01 damping viscoelastic
#pair_coeff 3 3 hertz/material ${E} 0.001 ${PR} tangential mindlin NULL 0.1 0.01 damping viscoelastic
pair_coeff 1 2 hertz/material ${E} 0.001 ${PR} tangential mindlin NULL 0.1 0.01 damping viscoelastic
pair_coeff 1 2 hertz/material 100000000 0.001 ${PR} tangential mindlin NULL 0.1 0.01 damping viscoelastic
pair_coeff 1 2 hertz/material 100000000 0.001 0.3 tangential mindlin NULL 0.1 0.01 damping viscoelastic
#pair_coeff 1 3 hertz/material 0.00000001 0.001 ${PR} tangential mindlin NULL 0.1 0.01 damping viscoelastic
#pair_coeff 2 3 hertz/material 0.00000001 0.001 ${PR} tangential mindlin NULL 0.1 0.01 damping viscoelastic
comm_modify     vel yes
neigh_modify    delay 0 every 1 check yes

### Compute properties ###

compute 1 slider1 com                      # Compute the center of mass of top chain
#compute 2 support com                      # Compute the center of mass of supporting particle

variable p0 equal "step"

variable slider_z equal "c_1[3]"          # output the position of top chain in z-direction

#variable distance equal "c_2[1]-c_1[1]"   # Distance between COM of top chain and supporting particle

thermo 100000
thermo_style custom step lx ly lz press pxx pyy pzz ke pe temp c_1[1] c_1[2] c_1[3] #c_2[1] c_2[2] c_2[3] v_distance

############### Fix ##################


############## Equilibrium the system with apply force ########################

fix force_slider1 slider1 setforce NULL 0 NULL                                # Fix top chain not to move in y-direction

fix f_sub substrate freeze                                                    # Freeze the bottom chain

fix rigid_top slider1 rigid/nve group 1 slider1 langevin 0 0 ${lgv} 6987532   # NVE+langevin
fix rigid_top slider1 rigid/nve group 1 slider1 langevin 0 0 0.5 6987532   
  1 rigid bodies with 1001 atoms

fix add slider1 addforce 0 0 ${Fn} every 1                                    # Add force to top layer
fix add slider1 addforce 0 0 -200 every 1                                    

timestep ${dt}
timestep 1e-05

# fix  nve_1 slider1 nve

dump 		D1 all custom 100000 Equi_${num}_*.dump id type diameter mass xu yu zu
dump 		D1 all custom 100000 Equi_3_*.dump id type diameter mass xu yu zu

run 3000000
Generated 0 of 1 mixed pair_coeff terms from geometric mixing rule
Neighbor list info ...
  update every 1 steps, delay 0 steps, check yes
  max neighbors/atom: 2000, page size: 100000
  master list distance cutoff = 3.1
  ghost atom cutoff = 3.1
  binsize = 1.55, bins = 2904 65 65
  1 neighbor lists, perpetual/occasional/extra = 1 0 0
  (1) pair granular, perpetual
      attributes: half, newton on, size, history
      pair build: half/size/bin/newton
      stencil: half/bin/3d
      bin: standard
Per MPI rank memory allocation (min/avg/max) = 26.4 | 26.4 | 26.41 Mbytes
   Step           Lx             Ly             Lz           Press           Pxx            Pyy            Pzz           KinEng         PotEng          Temp          c_1[1]         c_1[2]         c_1[3]    
         0   4500           100            100            0              0              0              0              0              0              0             -5.9828895e-14  0              6            
    100000   4500           100            100            0.0071356539   0              0              0.021406962    120313.91      0              1.1619056e+10 -5.9828895e-14  0              4.1748102    
    200000   4500           100            100            0.0023517094  -5.6096771e-37  0              0.0070551281   26513.175      0              2.5604526e+09 -5.9828895e-14  0              3.2544472    
    300000   4500           100            100            0.001452647    5.4324687e-44  0              0.0043579411   12766.626      0              1.2329094e+09 -5.9828895e-14  0              3.0251154    
    400000   4500           100            100           -0.00052037818  1.1219356e-36  0             -0.0015611345   2513.9081      0              2.4277525e+08 -5.9828895e-14  0              3.0079176    
    500000   4500           100            100           -0.00026045073  8.2534678e-44  0             -0.0007813522   587.82566      0              56767995      -5.9828895e-14  0              3.0020092    
    600000   4500           100            100            0.018019224   -1.1219354e-36  0              0.054057673    135.36061      0              13072159      -5.9828895e-14  0              2.9994563    
    700000   4500           100            100            0.0053907612   1.4024194e-37  0              0.016172284    40.057097      0              3868427.7     -5.9828895e-14  0              2.9997578    
    800000   4500           100            100            0.0021047767  -1.4024194e-37  0              0.0063143302   1.0243113      0              98920.65      -5.9828895e-14  0              2.999869     
    900000   4500           100            100            0.005477531    1.4024194e-37  0              0.016432593    0.022094308    0              2133.7101     -5.9828895e-14  0              2.999753     
   1000000   4500           100            100            0.0043858382   7.1927861e-47  0              0.013157514    0.097963564    0              9460.6198     -5.9828895e-14  0              2.9997871    
   1100000   4500           100            100            0.0043240508   3.5060485e-38  0              0.012972152    0.0022301964   0              215.37641     -5.9828895e-14  0              2.999789     
   1200000   4500           100            100            0.0044791466   2.1912803e-39  0              0.01343744     0.0011181209   0              107.98012     -5.9828895e-14  0              2.999784     
   1300000   4500           100            100            0.0044598426   1.7991667e-49  0              0.013379528    0.0001499871   0              14.48468      -5.9828895e-14  0              2.9997846    
   1400000   4500           100            100            0.0044424951   1.0956401e-39  0              0.013327485    5.31719e-06    0              0.51349615    -5.9828895e-14  0              2.9997852    
   1500000   4500           100            100            0.0044481341   5.1830536e-50  0              0.013344402    4.1715876e-06  0              0.40286207    -5.9828895e-14  0              2.999785     
   1600000   4500           100            100            0.0044494587   4.3825606e-39  0              0.013348376    2.6803492e-09  0              0.00025884894 -5.9828895e-14  0              2.999785     
   1700000   4500           100            100            0.0044484717  -2.1912803e-39  0              0.013345415    6.9588732e-08  0              0.0067203817  -5.9828895e-14  0              2.999785     
   1800000   4500           100            100            0.0044484687   8.7027263e-51  0              0.013345406    2.8521293e-09  0              0.00027543824 -5.9828895e-14  0              2.999785     
   1900000   4500           100            100            0.0044486011   1.219681e-51   0              0.013345803    6.6763604e-10  0              6.447551e-05  -5.9828895e-14  0              2.999785     
   2000000   4500           100            100            0.0044485781  -2.1912803e-39  0              0.013345734    1.366464e-10   0              1.3196331e-05 -5.9828895e-14  0              2.999785     
   2100000   4500           100            100            0.0044485645  -4.3825606e-39  0              0.013345693    1.9389086e-12  0              1.8724592e-07 -5.9828895e-14  0              2.999785     
   2200000   4500           100            100            0.00444857     1.0956401e-39  0              0.01334571     3.2685945e-12  0              3.1565746e-07 -5.9828895e-14  0              2.999785     
   2300000   4500           100            100            0.0044485708   2.2510761e-55  0              0.013345712    1.756006e-14   0              1.6958249e-09 -5.9828895e-14  0              2.999785     
   2400000   4500           100            100            0.0044485699  -1.0956401e-39  0              0.01334571     4.742646e-14   0              4.5801081e-09 -5.9828895e-14  0              2.999785     
   2500000   4500           100            100            0.00444857     2.1912803e-39  0              0.01334571     3.1867955e-15  0              3.077579e-10  -5.9828895e-14  0              2.999785     
   2600000   4500           100            100            0.0044485701  -1.0956401e-39  0              0.01334571     3.8111715e-16  0              3.6805566e-11 -5.9828895e-14  0              2.999785     
   2700000   4500           100            100            0.0044485701  -2.1912803e-39  0              0.01334571     1.368712e-16   0              1.3218041e-11 -5.9828895e-14  0              2.999785     
   2800000   4500           100            100            0.0044485701   5.0916716e-62  0              0.01334571     2.8612185e-18  0              2.76316e-13   -5.9828895e-14  0              2.999785     
   2900000   4500           100            100            0.0044485701   4.8367689e-59  0              0.01334571     5.2803094e-18  0              5.0993449e-13 -5.9828895e-14  0              2.999785     
   3000000   4500           100            100            0.0044485701  -2.1912803e-39  0              0.01334571     3.3776829e-18  0              3.2619244e-13 -5.9828895e-14  0              2.999785     
Loop time of 328.537 on 4 procs for 3000000 steps with 2501 atoms

Performance: 7889525.577 ns/day, 0.000 hours/ns, 9131.395 timesteps/s
100.0% CPU use with 4 MPI tasks x 1 OpenMP threads

MPI task timing breakdown:
Section |  min time  |  avg time  |  max time  |%varavg| %total
---------------------------------------------------------------
Pair    | 67.053     | 102.29     | 138.66     | 335.9 | 31.13
Neigh   | 0.36682    | 0.37118    | 0.37589    |   0.5 |  0.11
Comm    | 23.676     | 58.505     | 93.693     | 427.2 | 17.81
Output  | 0.19741    | 0.19758    | 0.1978     |   0.0 |  0.06
Modify  | 112.48     | 130.29     | 147.49     | 142.5 | 39.66
Other   |            | 36.88      |            |       | 11.23

Nlocal:         625.25 ave         750 max         500 min
Histogram: 2 0 0 0 0 0 0 0 0 2
Nghost:           5.25 ave           6 max           4 min
Histogram: 1 0 0 0 0 1 0 0 0 2
Neighs:         875.25 ave        1125 max         625 min
Histogram: 2 0 0 0 0 0 0 0 0 2

Total # of neighbors = 3501
Ave neighs/atom = 1.3998401
Neighbor list builds = 88
Dangerous builds = 0

undump D1

############ Add spring between top chain to supp particle and then equilibrium  ###########

#fix sp1 support spring couple slider1 ${K0} ${lenspr} NULL NULL 0                                 # Add spring

#dump 		D2 all custom 100000 add_${num}*.dump id type diameter mass xu yu zu

#fix add1 all print 10 "${p0} ${distance} ${slider_z}" file add_distance_${num}.txt screen no      # out put step, distance(spring length), z-position of top chain

#run 1000000

#undump D2

#unfix add1

########## Pulling the supporting particle with constant velocity #############

#fix m1 support move linear 0.1 0 0 units box                                                      # apply constant velocity to supporting particles along x-direction V=0.1m/s

#fix move1 all print 100 "${p0} ${distance} ${slider_z}" file move_distance_${num}.txt screen no

#dump 		1 all custom 50000 move_${num}_*.dump id type diameter mass xu yu zu

#run 10000000

clear
  using 1 OpenMP thread(s) per MPI task

next num

jump SELF startloop

include granular.in
### Simulation of contact between two chain

##################### Simulation setup ####################

units micro                              # units
dimension	3                            # dimension
boundary	p p p                        # boundary condition p: periodic
atom_style	sphere                       # atom style
#processors * * 1

####################### Parameter ##################################

variable ind equal ${num}
variable ind equal 4

#variable lat0 equal 1                    #
variable lat1 equal 3           # Lattice distance of bottom chain
variable lat2 equal 3                    # Lattice distance of top chain
variable d1 equal 3                      # Diamter of particle at bottom chain
variable d2 equal 3                      # Diamter of particle at top chain
#variable d3 equal 1                      # Diamter of supporting particle

variable n2e1 equal 500*v_lat2              # Half length of top chain. 1500 is number of particles
variable n1e1 equal 1.5*v_n2e1*(v_lat1/v_lat2)              # Half length of bottom chain, which is 1.5 time larger than top chain
variable n1e2 equal -v_n1e1
variable n2e2 equal -v_n2e1
#variable lenspr equal -(v_n2e1+50)           # length of the spring connecting top chain and supporting particle
#variable lenspr1 equal -v_lenspr-0.1         # Position of supporting particle upper bound
#variable lenspr2 equal -v_lenspr+0.1         # Position of supporting particle lower bound

variable den equal 2.2 #grams/cm^3      # micrometer^3=10^-12 cm^3 Density of materials

variable V1 equal (1/6)*PI*(v_d1^3)     # Volume of particle 1
variable V2 equal (1/6)*PI*(v_d2^3)     # Volume of particle 2
#variable V3 equal (1/6)*PI*(v_d3^3)     # Volume of particle 3

variable mass1 equal v_den*v_V1  # Mass of particle 1 (picograms)
variable mass2 equal v_den*v_V2  # Mass of particle 2
#variable mass3 equal v_den*v_V3  # Mass of particle 3

# E GPa to picogram/(micrometer-microsecond^2)= 10^3 Pa= 10^-6 GPa
# Force unit(picogram-micrometer/microsecond^2)=10^-9 N= 1nN
# Spring stiffness (force/distance) 10^-3 N/m

#variable K0 equal (1500/50)*(10^5)             # Spring stiffness conneting top chain and sup particle
variable E equal 100*(10^6)                    # Young's Modulus using for Hertz/material model
variable PR equal 0.3                          # Poisson's ratio using for Hertz/material model
variable Fn equal -50-(v_ind*50)                       # Force apply to each particles in top chain
variable dt equal 0.00001                      # Time step units microsecond
variable lgv equal 0.5                         #damping for langevin thermostat for slider


################### Creating the model #################################
lattice sc ${lat1}                                                               # Bottom chain type1
lattice sc 3                                                               
Lattice spacing in x,y,z = 3 3 3

region box block ${n1e2} ${n1e1} -50 50 -50 50 units box
region box block -2250 ${n1e1} -50 50 -50 50 units box
region box block -2250 2250 -50 50 -50 50 units box
region substrate block ${n1e2} ${n1e1} -0.1 0.1 0 0.1 units box
region substrate block -2250 ${n1e1} -0.1 0.1 0 0.1 units box
region substrate block -2250 2250 -0.1 0.1 0 0.1 units box

create_box 2 box
Created orthogonal box = (-2250 -50 -50) to (2250 50 50)
  4 by 1 by 1 MPI processor grid
create_atoms 1 region substrate
Created 1500 atoms
  using lattice units in orthogonal box = (-2250 -50 -50) to (2250 50 50)
  create_atoms CPU = 0.001 seconds

lattice sc ${lat2}                                                             # Top chain type2
lattice sc 3                                                             
Lattice spacing in x,y,z = 3 3 3

region slider1 block ${n2e2} ${n2e1} -0.1 0.1 5.9 6.1 units box
region slider1 block -1500 ${n2e1} -0.1 0.1 5.9 6.1 units box
region slider1 block -1500 1500 -0.1 0.1 5.9 6.1 units box

create_atoms 2 region slider1
Created 1001 atoms
  using lattice units in orthogonal box = (-2250 -50 -50) to (2250 50 50)
  create_atoms CPU = 0.001 seconds

#lattice sc ${lat0}                                                             # Supporting particle type3

#region support block ${lenspr1} ${lenspr2} -0.1 0.1 7.9 8.1 units box

#create_atoms 3 region support

set type 1 diameter ${d1}                    # Set mass and diameter for each particles type
set type 1 diameter 3                    
Setting atom values ...
  1500 settings made for diameter
set type 1 mass ${mass1}
set type 1 mass 31.101767270539
Setting atom values ...
  1500 settings made for mass
set type 2 diameter ${d2}
set type 2 diameter 3
Setting atom values ...
  1001 settings made for diameter
set type 2 mass ${mass2}
set type 2 mass 31.101767270539
Setting atom values ...
  1001 settings made for mass
#set type 3 diameter ${d3}
#set type 3 mass ${mass3}

group substrate region substrate           # Define gorup
1500 atoms in group substrate
group slider1 region slider1
1001 atoms in group slider1
#group support region support
group substrate_slider union substrate slider1
2501 atoms in group substrate_slider

########################## Potential ###################################
pair_style granular
pair_coeff 1 1 hertz/material 0.00000001 0.001 ${PR} tangential mindlin NULL 0.1 0.01 damping viscoelastic              ########### set E between each particle in same type is small to neglect their interaction
pair_coeff 1 1 hertz/material 0.00000001 0.001 0.3 tangential mindlin NULL 0.1 0.01 damping viscoelastic              
pair_coeff 2 2 hertz/material 0.00000001 0.001 ${PR} tangential mindlin NULL 0.1 0.01 damping viscoelastic
pair_coeff 2 2 hertz/material 0.00000001 0.001 0.3 tangential mindlin NULL 0.1 0.01 damping viscoelastic
#pair_coeff 3 3 hertz/material ${E} 0.001 ${PR} tangential mindlin NULL 0.1 0.01 damping viscoelastic
pair_coeff 1 2 hertz/material ${E} 0.001 ${PR} tangential mindlin NULL 0.1 0.01 damping viscoelastic
pair_coeff 1 2 hertz/material 100000000 0.001 ${PR} tangential mindlin NULL 0.1 0.01 damping viscoelastic
pair_coeff 1 2 hertz/material 100000000 0.001 0.3 tangential mindlin NULL 0.1 0.01 damping viscoelastic
#pair_coeff 1 3 hertz/material 0.00000001 0.001 ${PR} tangential mindlin NULL 0.1 0.01 damping viscoelastic
#pair_coeff 2 3 hertz/material 0.00000001 0.001 ${PR} tangential mindlin NULL 0.1 0.01 damping viscoelastic
comm_modify     vel yes
neigh_modify    delay 0 every 1 check yes

### Compute properties ###

compute 1 slider1 com                      # Compute the center of mass of top chain
#compute 2 support com                      # Compute the center of mass of supporting particle

variable p0 equal "step"

variable slider_z equal "c_1[3]"          # output the position of top chain in z-direction

#variable distance equal "c_2[1]-c_1[1]"   # Distance between COM of top chain and supporting particle

thermo 100000
thermo_style custom step lx ly lz press pxx pyy pzz ke pe temp c_1[1] c_1[2] c_1[3] #c_2[1] c_2[2] c_2[3] v_distance

############### Fix ##################


############## Equilibrium the system with apply force ########################

fix force_slider1 slider1 setforce NULL 0 NULL                                # Fix top chain not to move in y-direction

fix f_sub substrate freeze                                                    # Freeze the bottom chain

fix rigid_top slider1 rigid/nve group 1 slider1 langevin 0 0 ${lgv} 6987532   # NVE+langevin
fix rigid_top slider1 rigid/nve group 1 slider1 langevin 0 0 0.5 6987532   
  1 rigid bodies with 1001 atoms

fix add slider1 addforce 0 0 ${Fn} every 1                                    # Add force to top layer
fix add slider1 addforce 0 0 -250 every 1                                    

timestep ${dt}
timestep 1e-05

# fix  nve_1 slider1 nve

dump 		D1 all custom 100000 Equi_${num}_*.dump id type diameter mass xu yu zu
dump 		D1 all custom 100000 Equi_4_*.dump id type diameter mass xu yu zu

run 3000000
Generated 0 of 1 mixed pair_coeff terms from geometric mixing rule
Neighbor list info ...
  update every 1 steps, delay 0 steps, check yes
  max neighbors/atom: 2000, page size: 100000
  master list distance cutoff = 3.1
  ghost atom cutoff = 3.1
  binsize = 1.55, bins = 2904 65 65
  1 neighbor lists, perpetual/occasional/extra = 1 0 0
  (1) pair granular, perpetual
      attributes: half, newton on, size, history
      pair build: half/size/bin/newton
      stencil: half/bin/3d
      bin: standard
Per MPI rank memory allocation (min/avg/max) = 26.4 | 26.4 | 26.41 Mbytes
   Step           Lx             Ly             Lz           Press           Pxx            Pyy            Pzz           KinEng         PotEng          Temp          c_1[1]         c_1[2]         c_1[3]    
         0   4500           100            100            0              0              0              0              0              0              0             -5.9828895e-14  0              6            
    100000   4500           100            100            0.0087452147   0              0              0.026235644    187990.49      0              1.8154776e+10 -5.9828895e-14  0              3.7185127    
    200000   4500           100            100           -0.0016948414   1.7083627e-43  0             -0.0050845241   39611.18       0              3.8253642e+09 -5.9828895e-14  0              3.1009473    
    300000   4500           100            100            0.00074025696  2.8129172e-43  0              0.0022207709   3665.9009      0              3.5402647e+08 -5.9828895e-14  0              3.0650849    
    400000   4500           100            100            0.00029965252  3.1287229e-44  0              0.00089895755  675.12875      0              65199102      -5.9828895e-14  0              3.01661      
    500000   4500           100            100           -0.00034422002  3.3658067e-36  0             -0.0010326601   1051.7685      0              1.0157227e+08 -5.9828895e-14  0              3.0001272    
    600000   4500           100            100           -0.00013095069  2.8048388e-37  0             -0.00039285208  143.72472      0              13879905      -5.9828895e-14  0              3.0002285    
[...]
   2900000   4500           100            100            0.04336248     9.9320794e-56  0              0.13008744     5.8591031e-18  0              5.6583024e-13 -5.9828895e-14  0              2.9990188    
   3000000   4500           100            100            0.04336248    -7.0120969e-38  0              0.13008744     5.2601822e-18  0              5.0799074e-13 -5.9828895e-14  0              2.9990188    
Loop time of 311.633 on 4 procs for 3000000 steps with 2501 atoms

Performance: 8317477.151 ns/day, 0.000 hours/ns, 9626.710 timesteps/s
100.0% CPU use with 4 MPI tasks x 1 OpenMP threads

MPI task timing breakdown:
Section |  min time  |  avg time  |  max time  |%varavg| %total
---------------------------------------------------------------
Pair    | 61.257     | 92.532     | 124        | 324.3 | 29.69
Neigh   | 1.0774     | 1.0912     | 1.1049     |   0.9 |  0.35
Comm    | 24.031     | 55.13      | 86.577     | 414.4 | 17.69
Output  | 0.19213    | 0.1923     | 0.19247    |   0.0 |  0.06
Modify  | 109.78     | 126.84     | 143.78     | 148.8 | 40.70
Other   |            | 35.85      |            |       | 11.50

Nlocal:         625.25 ave         750 max         500 min
Histogram: 2 0 0 0 0 0 0 0 0 2
Nghost:           5.25 ave           6 max           4 min
Histogram: 1 0 0 0 0 1 0 0 0 2
Neighs:         875.25 ave        1125 max         625 min
Histogram: 2 0 0 0 0 0 0 0 0 2

Total # of neighbors = 3501
Ave neighs/atom = 1.3998401
Neighbor list builds = 240
Dangerous builds = 0

undump D1

############ Add spring between top chain to supp particle and then equilibrium  ###########

#fix sp1 support spring couple slider1 ${K0} ${lenspr} NULL NULL 0                                 # Add spring

#dump 		D2 all custom 100000 add_${num}*.dump id type diameter mass xu yu zu

#fix add1 all print 10 "${p0} ${distance} ${slider_z}" file add_distance_${num}.txt screen no      # out put step, distance(spring length), z-position of top chain

#run 1000000

#undump D2

#unfix add1

########## Pulling the supporting particle with constant velocity #############

#fix m1 support move linear 0.1 0 0 units box                                                      # apply constant velocity to supporting particles along x-direction V=0.1m/s

#fix move1 all print 100 "${p0} ${distance} ${slider_z}" file move_distance_${num}.txt screen no

#dump 		1 all custom 50000 move_${num}_*.dump id type diameter mass xu yu zu

#run 10000000

clear
  using 1 OpenMP thread(s) per MPI task

next num

jump SELF startloop

include granular.in
### Simulation of contact between two chain

##################### Simulation setup ####################

units micro                              # units
dimension	3                            # dimension
boundary	p p p                        # boundary condition p: periodic
atom_style	sphere                       # atom style
#processors * * 1

####################### Parameter ##################################

variable ind equal ${num}
variable ind equal 39

#variable lat0 equal 1                    #
variable lat1 equal 3           # Lattice distance of bottom chain
variable lat2 equal 3                    # Lattice distance of top chain
variable d1 equal 3                      # Diamter of particle at bottom chain
variable d2 equal 3                      # Diamter of particle at top chain
#variable d3 equal 1                      # Diamter of supporting particle

variable n2e1 equal 500*v_lat2              # Half length of top chain. 1500 is number of particles
variable n1e1 equal 1.5*v_n2e1*(v_lat1/v_lat2)              # Half length of bottom chain, which is 1.5 time larger than top chain
variable n1e2 equal -v_n1e1
variable n2e2 equal -v_n2e1
#variable lenspr equal -(v_n2e1+50)           # length of the spring connecting top chain and supporting particle
#variable lenspr1 equal -v_lenspr-0.1         # Position of supporting particle upper bound
#variable lenspr2 equal -v_lenspr+0.1         # Position of supporting particle lower bound

variable den equal 2.2 #grams/cm^3      # micrometer^3=10^-12 cm^3 Density of materials

variable V1 equal (1/6)*PI*(v_d1^3)     # Volume of particle 1
variable V2 equal (1/6)*PI*(v_d2^3)     # Volume of particle 2
#variable V3 equal (1/6)*PI*(v_d3^3)     # Volume of particle 3

variable mass1 equal v_den*v_V1  # Mass of particle 1 (picograms)
variable mass2 equal v_den*v_V2  # Mass of particle 2
#variable mass3 equal v_den*v_V3  # Mass of particle 3

# E GPa to picogram/(micrometer-microsecond^2)= 10^3 Pa= 10^-6 GPa
# Force unit(picogram-micrometer/microsecond^2)=10^-9 N= 1nN
# Spring stiffness (force/distance) 10^-3 N/m

#variable K0 equal (1500/50)*(10^5)             # Spring stiffness conneting top chain and sup particle
variable E equal 100*(10^6)                    # Young's Modulus using for Hertz/material model
variable PR equal 0.3                          # Poisson's ratio using for Hertz/material model
variable Fn equal -50-(v_ind*50)                       # Force apply to each particles in top chain
variable dt equal 0.00001                      # Time step units microsecond
variable lgv equal 0.5                         #damping for langevin thermostat for slider


################### Creating the model #################################
lattice sc ${lat1}                                                               # Bottom chain type1
lattice sc 3                                                               
Lattice spacing in x,y,z = 3 3 3

region box block ${n1e2} ${n1e1} -50 50 -50 50 units box
region box block -2250 ${n1e1} -50 50 -50 50 units box
region box block -2250 2250 -50 50 -50 50 units box
region substrate block ${n1e2} ${n1e1} -0.1 0.1 0 0.1 units box
region substrate block -2250 ${n1e1} -0.1 0.1 0 0.1 units box
region substrate block -2250 2250 -0.1 0.1 0 0.1 units box

create_box 2 box
Created orthogonal box = (-2250 -50 -50) to (2250 50 50)
  4 by 1 by 1 MPI processor grid
create_atoms 1 region substrate
Created 1500 atoms
  using lattice units in orthogonal box = (-2250 -50 -50) to (2250 50 50)
  create_atoms CPU = 0.001 seconds

lattice sc ${lat2}                                                             # Top chain type2
lattice sc 3                                                             
Lattice spacing in x,y,z = 3 3 3

region slider1 block ${n2e2} ${n2e1} -0.1 0.1 5.9 6.1 units box
region slider1 block -1500 ${n2e1} -0.1 0.1 5.9 6.1 units box
region slider1 block -1500 1500 -0.1 0.1 5.9 6.1 units box

create_atoms 2 region slider1
Created 1001 atoms
  using lattice units in orthogonal box = (-2250 -50 -50) to (2250 50 50)
  create_atoms CPU = 0.000 seconds

#lattice sc ${lat0}                                                             # Supporting particle type3

#region support block ${lenspr1} ${lenspr2} -0.1 0.1 7.9 8.1 units box

#create_atoms 3 region support

set type 1 diameter ${d1}                    # Set mass and diameter for each particles type
set type 1 diameter 3                    
Setting atom values ...
  1500 settings made for diameter
set type 1 mass ${mass1}
set type 1 mass 31.101767270539
Setting atom values ...
  1500 settings made for mass
set type 2 diameter ${d2}
set type 2 diameter 3
Setting atom values ...
  1001 settings made for diameter
set type 2 mass ${mass2}
set type 2 mass 31.101767270539
Setting atom values ...
  1001 settings made for mass
#set type 3 diameter ${d3}
#set type 3 mass ${mass3}

group substrate region substrate           # Define gorup
1500 atoms in group substrate
group slider1 region slider1
1001 atoms in group slider1
#group support region support
group substrate_slider union substrate slider1
2501 atoms in group substrate_slider

########################## Potential ###################################
pair_style granular
pair_coeff 1 1 hertz/material 0.00000001 0.001 ${PR} tangential mindlin NULL 0.1 0.01 damping viscoelastic              ########### set E between each particle in same type is small to neglect their interaction
pair_coeff 1 1 hertz/material 0.00000001 0.001 0.3 tangential mindlin NULL 0.1 0.01 damping viscoelastic              
pair_coeff 2 2 hertz/material 0.00000001 0.001 ${PR} tangential mindlin NULL 0.1 0.01 damping viscoelastic
pair_coeff 2 2 hertz/material 0.00000001 0.001 0.3 tangential mindlin NULL 0.1 0.01 damping viscoelastic
#pair_coeff 3 3 hertz/material ${E} 0.001 ${PR} tangential mindlin NULL 0.1 0.01 damping viscoelastic
pair_coeff 1 2 hertz/material ${E} 0.001 ${PR} tangential mindlin NULL 0.1 0.01 damping viscoelastic
pair_coeff 1 2 hertz/material 100000000 0.001 ${PR} tangential mindlin NULL 0.1 0.01 damping viscoelastic
pair_coeff 1 2 hertz/material 100000000 0.001 0.3 tangential mindlin NULL 0.1 0.01 damping viscoelastic
#pair_coeff 1 3 hertz/material 0.00000001 0.001 ${PR} tangential mindlin NULL 0.1 0.01 damping viscoelastic
#pair_coeff 2 3 hertz/material 0.00000001 0.001 ${PR} tangential mindlin NULL 0.1 0.01 damping viscoelastic
comm_modify     vel yes
neigh_modify    delay 0 every 1 check yes

### Compute properties ###

compute 1 slider1 com                      # Compute the center of mass of top chain
#compute 2 support com                      # Compute the center of mass of supporting particle

variable p0 equal "step"

variable slider_z equal "c_1[3]"          # output the position of top chain in z-direction

#variable distance equal "c_2[1]-c_1[1]"   # Distance between COM of top chain and supporting particle

thermo 100000
thermo_style custom step lx ly lz press pxx pyy pzz ke pe temp c_1[1] c_1[2] c_1[3] #c_2[1] c_2[2] c_2[3] v_distance

############### Fix ##################


############## Equilibrium the system with apply force ########################

fix force_slider1 slider1 setforce NULL 0 NULL                                # Fix top chain not to move in y-direction

fix f_sub substrate freeze                                                    # Freeze the bottom chain

fix rigid_top slider1 rigid/nve group 1 slider1 langevin 0 0 ${lgv} 6987532   # NVE+langevin
fix rigid_top slider1 rigid/nve group 1 slider1 langevin 0 0 0.5 6987532   
  1 rigid bodies with 1001 atoms

fix add slider1 addforce 0 0 ${Fn} every 1                                    # Add force to top layer
fix add slider1 addforce 0 0 -2000 every 1                                    

timestep ${dt}
timestep 1e-05

# fix  nve_1 slider1 nve

dump 		D1 all custom 100000 Equi_${num}_*.dump id type diameter mass xu yu zu
dump 		D1 all custom 100000 Equi_39_*.dump id type diameter mass xu yu zu

run 3000000
Generated 0 of 1 mixed pair_coeff terms from geometric mixing rule
Neighbor list info ...
  update every 1 steps, delay 0 steps, check yes
  max neighbors/atom: 2000, page size: 100000
  master list distance cutoff = 3.1
  ghost atom cutoff = 3.1
  binsize = 1.55, bins = 2904 65 65
  1 neighbor lists, perpetual/occasional/extra = 1 0 0
  (1) pair granular, perpetual
      attributes: half, newton on, size, history
      pair build: half/size/bin/newton
      stencil: half/bin/3d
      bin: standard
Per MPI rank memory allocation (min/avg/max) = 26.4 | 26.4 | 26.41 Mbytes
   Step           Lx             Ly             Lz           Press           Pxx            Pyy            Pzz           KinEng         PotEng          Temp          c_1[1]         c_1[2]         c_1[3]    
         0   4500           100            100            0              0              0              0              0              0              0             -5.9828895e-14  0              6            
    100000   4500           100            100            0.0099373728  -2.2438704e-36  0              0.029812119    226115.66      0              2.1836632e+10 -5.9828895e-14  0              3.7479832    
    200000   4500           100            100            1.8420813     -3.3658061e-36  0              5.526244       38612.199      0              3.7288898e+09 -5.9828895e-14  0              2.9880175    
    300000   4500           100            100           -0.00063187234  4.4877442e-36  0             -0.001895617    3703.1861      0              3.576272e+08  -5.9828895e-14  0              3.0485945    
    400000   4500           100            100           -0.0011077034  -4.4877405e-36  0             -0.0033231103   14003.065      0              1.3523158e+09 -5.9828895e-14  0              3.0042955    
    500000   4500           100            100           -0.0003152581   9.5500194e-43  0             -0.0009457743   869.91105      0              84009783      -5.9828895e-14  0              3.0013744    
    600000   4500           100            100            0.070053146   -2.2438702e-36  0              0.21015944     543.55139      0              52492303      -5.9828895e-14  0              2.9986524    
    700000   4500           100            100            0.054706437    4.4877442e-36  0              0.16411931     65.085319      0              6285474.2     -5.9828895e-14  0              2.9988556    
    800000   4500           100            100            0.043304037    1.192843e-44   0              0.12991211     12.529197      0              1209980.2     -5.9828895e-14  0              2.9990191    
    900000   4500           100            100            0.044487354    2.8048388e-37  0              0.13346206     1.7091794      0              165060.31     -5.9828895e-14  0              2.9990021    
   1000000   4500           100            100            0.044562234    1.6829033e-36  0              0.1336867      0.22228639     0              21466.828     -5.9828895e-14  0              2.9990007    
   1100000   4500           100            100            0.044407401    8.4145163e-37  0              0.1332222      0.028094479    0              2713.1637     -5.9828895e-14  0              2.9990031    
   1200000   4500           100            100            0.044510107    1.4024194e-37  0              0.13353032     0.0034574252   0              333.89338     -5.9828895e-14  0              2.9990015    
   1300000   4500           100            100            0.044456866   -7.0120969e-38  0              0.1333706      0.00041257664  0              39.843699     -5.9828895e-14  0              2.9990024    
   1400000   4500           100            100            0.044481761   -2.8048388e-37  0              0.13344528     4.7644791e-05  0              4.6011929     -5.9828895e-14  0              2.999002     
   1500000   4500           100            100            0.044470828    3.7710315e-49  0              0.13341248     5.2965398e-06  0              0.5115019     -5.9828895e-14  0              2.9990021    
   1600000   4500           100            100            0.044475432    2.5917414e-50  0              0.1334263      5.6295913e-07  0              0.054366563   -5.9828895e-14  0              2.9990021    
   1700000   4500           100            100            0.044473553    2.1036291e-37  0              0.13342066     5.6583903e-08  0              0.0054644683  -5.9828895e-14  0              2.9990021    
   1800000   4500           100            100            0.044474301   -1.4024194e-37  0              0.1334229      5.2844101e-09  0              0.00051033051 -5.9828895e-14  0              2.9990021    
   1900000   4500           100            100            0.044474009   -7.0120969e-38  0              0.13342203     4.4457356e-10  0              4.2933732e-05 -5.9828895e-14  0              2.9990021    
   2000000   4500           100            100            0.044474121    2.2326042e-52  0              0.13342236     3.1681822e-11  0              3.0596036e-06 -5.9828895e-14  0              2.9990021    
   2100000   4500           100            100            0.044474079   -7.0120969e-38  0              0.13342224     1.6413239e-12  0              1.5850732e-07 -5.9828895e-14  0              2.9990021    
   2200000   4500           100            100            0.044474095   -9.8169357e-37  0              0.13342228     3.3588382e-14  0              3.2437256e-09 -5.9828895e-14  0              2.9990021    
   2300000   4500           100            100            0.044474089   -1.4024194e-37  0              0.13342227     1.1743602e-15  0              1.134113e-10  -5.9828895e-14  0              2.9990021    
   2400000   4500           100            100            0.044474091   -7.0120969e-38  0              0.13342227     2.4669219e-15  0              2.3823766e-10 -5.9828895e-14  0              2.9990021    
   2500000   4500           100            100            0.04447409     2.1632414e-58  0              0.13342227     9.5979131e-16  0              9.2689774e-11 -5.9828895e-14  0              2.9990021    
   2600000   4500           100            100            0.04447409    -1.4024194e-37  0              0.13342227     2.1957498e-16  0              2.120498e-11  -5.9828895e-14  0              2.9990021    
   2700000   4500           100            100            0.04447409     2.8048388e-37  0              0.13342227     2.938649e-17   0              2.8379369e-12 -5.9828895e-14  0              2.9990021    
   2800000   4500           100            100            0.04447409     2.8048388e-37  0              0.13342227     3.480881e-18   0              3.3615857e-13 -5.9828895e-14  0              2.9990021    
   2900000   4500           100            100            0.04447409     6.6746056e-56  0              0.13342227     1.812845e-20   0              1.7507159e-15 -5.9828895e-14  0              2.9990021    
   3000000   4500           100            100            0.04447409     6.8263002e-56  0              0.13342227     8.417447e-19   0              8.1289678e-14 -5.9828895e-14  0              2.9990021    
Loop time of 311 on 4 procs for 3000000 steps with 2501 atoms

Performance: 8334415.898 ns/day, 0.000 hours/ns, 9646.315 timesteps/s
100.0% CPU use with 4 MPI tasks x 1 OpenMP threads

MPI task timing breakdown:
Section |  min time  |  avg time  |  max time  |%varavg| %total
---------------------------------------------------------------
Pair    | 61.315     | 92.629     | 123.92     | 323.6 | 29.78
Neigh   | 0.99691    | 1.0085     | 1.0204     |   0.9 |  0.32
Comm    | 23.713     | 54.724     | 86.426     | 415.6 | 17.60
Output  | 0.18625    | 0.1864     | 0.18657    |   0.0 |  0.06
Modify  | 109.07     | 126.51     | 143.48     | 149.4 | 40.68
Other   |            | 35.94      |            |       | 11.56

Nlocal:         625.25 ave         750 max         500 min
Histogram: 2 0 0 0 0 0 0 0 0 2
Nghost:           5.25 ave           6 max           4 min
Histogram: 1 0 0 0 0 1 0 0 0 2
Neighs:         875.25 ave        1125 max         625 min
Histogram: 2 0 0 0 0 0 0 0 0 2

Total # of neighbors = 3501
Ave neighs/atom = 1.3998401
Neighbor list builds = 240
Dangerous builds = 0

undump D1

############ Add spring between top chain to supp particle and then equilibrium  ###########

#fix sp1 support spring couple slider1 ${K0} ${lenspr} NULL NULL 0                                 # Add spring

#dump 		D2 all custom 100000 add_${num}*.dump id type diameter mass xu yu zu

#fix add1 all print 10 "${p0} ${distance} ${slider_z}" file add_distance_${num}.txt screen no      # out put step, distance(spring length), z-position of top chain

#run 1000000

#undump D2

#unfix add1

########## Pulling the supporting particle with constant velocity #############

#fix m1 support move linear 0.1 0 0 units box                                                      # apply constant velocity to supporting particles along x-direction V=0.1m/s

#fix move1 all print 100 "${p0} ${distance} ${slider_z}" file move_distance_${num}.txt screen no

#dump 		1 all custom 50000 move_${num}_*.dump id type diameter mass xu yu zu

#run 10000000

clear
  using 1 OpenMP thread(s) per MPI task

next num

jump SELF startloop
Total wall time: 3:31:45
