ITEM: TIMESTEP
400000
ITEM: NUMBER OF ATOMS
5000
ITEM: BOX BOUNDS pp pp pp
-8.1000000000000000e+03 8.1000000000000000e+03
-1.0000000000000000e+02 1.0000000000000000e+02
-1.0000000000000000e+02 1.0000000000000000e+02
ITEM: ATOMS id type diameter mass xu yu zu fx fy fz
1 1 3 31.1018 -8094.60000000000036 0 0 0 0 0
2 1 3 31.1018 -8089.20000000000073 0 0 0 0 0
3 1 3 31.1018 -8083.80000000000018 0 0 0 0 0
4 1 3 31.1018 -8078.40000000000055 0 0 0 0 0
5 1 3 31.1018 -8073.00000000000091 0 0 0 0 0
6 1 3 31.1018 -8067.60000000000036 0 0 0 0 0
7 1 3 31.1018 -8062.20000000000073 0 0 0 0 0
8 1 3 31.1018 -8056.80000000000018 0 0 0 0 0
9 1 3 31.1018 -8051.40000000000055 0 0 0 0 0
10 1 3 31.1018 -8046.00000000000091 0 0 0 0 0
11 1 3 31.1018 -8040.60000000000036 0 0 0 0 0
12 1 3 31.1018 -8035.20000000000073 0 0 0 0 0
13 1 3 31.1018 -8029.80000000000018 0 0 0 0 0
14 1 3 31.1018 -8024.40000000000055 0 0 0 0 0
15 1 3 31.1018 -8019.00000000000091 0 0 0 0 0
16 1 3 31.1018 -8013.60000000000036 0 0 0 0 0
17 1 3 31.1018 -8008.20000000000073 0 0 0 0 0
18 1 3 31.1018 -8002.80000000000018 0 0 0 0 0
19 1 3 31.1018 -7997.40000000000055 0 0 0 0 0
20 1 3 31.1018 -7992.00000000000091 0 0 0 0 0
21 1 3 31.1018 -7986.60000000000036 0 0 0 0 0
22 1 3 31.1018 -7981.20000000000073 0 0 0 0 0
23 1 3 31.1018 -7975.80000000000018 0 0 0 0 0
24 1 3 31.1018 -7970.40000000000055 0 0 0 0 0
25 1 3 31.1018 -7965.00000000000091 0 0 0 0 0
26 1 3 31.1018 -7959.60000000000036 0 0 0 0 0
27 1 3 31.1018 -7954.20000000000073 0 0 0 0 0
28 1 3 31.1018 -7948.80000000000018 0 0 0 0 0
29 1 3 31.1018 -7943.40000000000055 0 0 0 0 0
30 1 3 31.1018 -7938.00000000000091 0 0 0 0 0
31 1 3 31.1018 -7932.60000000000036 0 0 0 0 0
32 1 3 31.1018 -7927.20000000000073 0 0 0 0 0
33 1 3 31.1018 -7921.80000000000018 0 0 0 0 0
34 1 3 31.1018 -7916.40000000000055 0 0 0 0 0
35 1 3 31.1018 -7911.00000000000091 0 0 0 0 0
36 1 3 31.1018 -7905.60000000000036 0 0 0 0 0
37 1 3 31.1018 -7900.20000000000073 0 0 0 0 0
38 1 3 31.1018 -7894.80000000000018 0 0 0 0 0
39 1 3 31.1018 -7889.40000000000055 0 0 0 0 0
40 1 3 31.1018 -7884.00000000000091 0 0 0 0 0
41 1 3 31.1018 -7878.60000000000036 0 0 0 0 0
42 1 3 31.1018 -7873.20000000000073 0 0 0 0 0
43 1 3 31.1018 -7867.80000000000018 0 0 0 0 0
44 1 3 31.1018 -7862.40000000000055 0 0 0 0 0
45 1 3 31.1018 -7857.00000000000091 0 0 0 0 0
46 1 3 31.1018 -7851.60000000000036 0 0 0 0 0
47 1 3 31.1018 -7846.20000000000073 0 0 0 0 0
48 1 3 31.1018 -7840.80000000000018 0 0 0 0 0
49 1 3 31.1018 -7835.40000000000055 0 0 0 0 0
50 1 3 31.1018 -7830.00000000000091 0 0 0 0 0
51 1 3 31.1018 -7824.60000000000036 0 0 0 0 0
52 1 3 31.1018 -7819.20000000000073 0 0 0 0 0
53 1 3 31.1018 -7813.80000000000018 0 0 0 0 0
54 1 3 31.1018 -7808.40000000000055 0 0 0 0 0
55 1 3 31.1018 -7803.00000000000091 0 0 0 0 0
56 1 3 31.1018 -7797.60000000000036 0 0 0 0 0
57 1 3 31.1018 -7792.20000000000073 0 0 0 0 0
58 1 3 31.1018 -7786.80000000000018 0 0 0 0 0
59 1 3 31.1018 -7781.40000000000055 0 0 0 0 0
60 1 3 31.1018 -7776.00000000000091 0 0 0 0 0
61 1 3 31.1018 -7770.60000000000036 0 0 0 0 0
62 1 3 31.1018 -7765.20000000000073 0 0 0 0 0
63 1 3 31.1018 -7759.80000000000018 0 0 0 0 0
64 1 3 31.1018 -7754.40000000000055 0 0 0 0 0
65 1 3 31.1018 -7749.00000000000091 0 0 0 0 0
66 1 3 31.1018 -7743.60000000000036 0 0 0 0 0
67 1 3 31.1018 -7738.20000000000073 0 0 0 0 0
68 1 3 31.1018 -7732.80000000000018 0 0 0 0 0
69 1 3 31.1018 -7727.40000000000055 0 0 0 0 0
70 1 3 31.1018 -7722.00000000000091 0 0 0 0 0
71 1 3 31.1018 -7716.60000000000036 0 0 0 0 0
72 1 3 31.1018 -7711.20000000000073 0 0 0 0 0
73 1 3 31.1018 -7705.80000000000018 0 0 0 0 0
74 1 3 31.1018 -7700.40000000000055 0 0 0 0 0
75 1 3 31.1018 -7695.00000000000091 0 0 0 0 0
76 1 3 31.1018 -7689.60000000000036 0 0 0 0 0
77 1 3 31.1018 -7684.20000000000073 0 0 0 0 0
78 1 3 31.1018 -7678.80000000000018 0 0 0 0 0
79 1 3 31.1018 -7673.40000000000055 0 0 0 0 0
80 1 3 31.1018 -7668.00000000000091 0 0 0 0 0
81 1 3 31.1018 -7662.60000000000036 0 0 0 0 0
82 1 3 31.1018 -7657.20000000000073 0 0 0 0 0
83 1 3 31.1018 -7651.80000000000018 0 0 0 0 0
84 1 3 31.1018 -7646.40000000000055 0 0 0 0 0
85 1 3 31.1018 -7641.00000000000091 0 0 0 0 0
86 1 3 31.1018 -7635.60000000000036 0 0 0 0 0
87 1 3 31.1018 -7630.20000000000073 0 0 0 0 0
88 1 3 31.1018 -7624.80000000000018 0 0 0 0 0
89 1 3 31.1018 -7619.40000000000055 0 0 0 0 0
90 1 3 31.1018 -7614.00000000000091 0 0 0 0 0
91 1 3 31.1018 -7608.60000000000036 0 0 0 0 0
92 1 3 31.1018 -7603.20000000000073 0 0 0 0 0
93 1 3 31.1018 -7597.80000000000018 0 0 0 0 0
94 1 3 31.1018 -7592.40000000000055 0 0 0 0 0
95 1 3 31.1018 -7587.00000000000091 0 0 0 0 0
96 1 3 31.1018 -7581.60000000000036 0 0 0 0 0
97 1 3 31.1018 -7576.20000000000073 0 0 0 0 0
98 1 3 31.1018 -7570.80000000000018 0 0 0 0 0
99 1 3 31.1018 -7565.40000000000055 0 0 0 0 0
100 1 3 31.1018 -7560.00000000000091 0 0 0 0 0
101 1 3 31.1018 -7554.60000000000036 0 0 0 0 0
102 1 3 31.1018 -7549.20000000000073 0 0 0 0 0
103 1 3 31.1018 -7543.80000000000018 0 0 0 0 0
104 1 3 31.1018 -7538.40000000000055 0 0 0 0 0
105 1 3 31.1018 -7533.00000000000091 0 0 0 0 0
106 1 3 31.1018 -7527.60000000000036 0 0 0 0 0
107 1 3 31.1018 -7522.20000000000073 0 0 0 0 0
108 1 3 31.1018 -7516.80000000000018 0 0 0 0 0
109 1 3 31.1018 -7511.40000000000055 0 0 0 0 0
110 1 3 31.1018 -7506.00000000000091 0 0 0 0 0
111 1 3 31.1018 -7500.60000000000036 0 0 0 0 0
112 1 3 31.1018 -7495.20000000000073 0 0 0 0 0
113 1 3 31.1018 -7489.80000000000018 0 0 0 0 0
114 1 3 31.1018 -7484.40000000000055 0 0 0 0 0
115 1 3 31.1018 -7479.00000000000091 0 0 0 0 0
116 1 3 31.1018 -7473.60000000000036 0 0 0 0 0
117 1 3 31.1018 -7468.20000000000073 0 0 0 0 0
118 1 3 31.1018 -7462.80000000000018 0 0 0 0 0
119 1 3 31.1018 -7457.40000000000055 0 0 0 0 0
120 1 3 31.1018 -7452.00000000000091 0 0 0 0 0
121 1 3 31.1018 -7446.60000000000036 0 0 0 0 0
122 1 3 31.1018 -7441.20000000000073 0 0 0 0 0
123 1 3 31.1018 -7435.80000000000018 0 0 0 0 0
124 1 3 31.1018 -7430.40000000000055 0 0 0 0 0
125 1 3 31.1018 -7425.00000000000091 0 0 0 0 0
126 1 3 31.1018 -7419.60000000000036 0 0 0 0 0
127 1 3 31.1018 -7414.20000000000073 0 0 0 0 0
128 1 3 31.1018 -7408.80000000000018 0 0 0 0 0
129 1 3 31.1018 -7403.40000000000055 0 0 0 0 0
130 1 3 31.1018 -7398.00000000000091 0 0 0 0 0
131 1 3 31.1018 -7392.60000000000036 0 0 0 0 0
132 1 3 31.1018 -7387.20000000000073 0 0 0 0 0
133 1 3 31.1018 -7381.80000000000018 0 0 0 0 0
134 1 3 31.1018 -7376.40000000000055 0 0 0 0 0
135 1 3 31.1018 -7371.00000000000091 0 0 0 0 0
136 1 3 31.1018 -7365.60000000000036 0 0 0 0 0
137 1 3 31.1018 -7360.20000000000073 0 0 0 0 0
138 1 3 31.1018 -7354.80000000000018 0 0 0 0 0
139 1 3 31.1018 -7349.40000000000055 0 0 0 0 0
140 1 3 31.1018 -7344.00000000000091 0 0 0 0 0
141 1 3 31.1018 -7338.60000000000036 0 0 0 0 0
142 1 3 31.1018 -7333.20000000000073 0 0 0 0 0
143 1 3 31.1018 -7327.80000000000018 0 0 0 0 0
144 1 3 31.1018 -7322.40000000000055 0 0 0 0 0
145 1 3 31.1018 -7317.00000000000091 0 0 0 0 0
146 1 3 31.1018 -7311.60000000000036 0 0 0 0 0
147 1 3 31.1018 -7306.20000000000073 0 0 0 0 0
148 1 3 31.1018 -7300.80000000000018 0 0 0 0 0
149 1 3 31.1018 -7295.40000000000055 0 0 0 0 0
150 1 3 31.1018 -7290.00000000000091 0 0 0 0 0
151 1 3 31.1018 -7284.60000000000036 0 0 0 0 0
152 1 3 31.1018 -7279.20000000000073 0 0 0 0 0
153 1 3 31.1018 -7273.80000000000018 0 0 0 0 0
154 1 3 31.1018 -7268.40000000000055 0 0 0 0 0
155 1 3 31.1018 -7263.00000000000091 0 0 0 0 0
156 1 3 31.1018 -7257.60000000000036 0 0 0 0 0
157 1 3 31.1018 -7252.20000000000073 0 0 0 0 0
158 1 3 31.1018 -7246.80000000000018 0 0 0 0 0
159 1 3 31.1018 -7241.40000000000055 0 0 0 0 0
160 1 3 31.1018 -7236.00000000000091 0 0 0 0 0
161 1 3 31.1018 -7230.60000000000036 0 0 0 0 0
162 1 3 31.1018 -7225.20000000000073 0 0 0 0 0
163 1 3 31.1018 -7219.80000000000018 0 0 0 0 0
164 1 3 31.1018 -7214.40000000000055 0 0 0 0 0
165 1 3 31.1018 -7209.00000000000091 0 0 0 0 0
166 1 3 31.1018 -7203.60000000000036 0 0 0 0 0
167 1 3 31.1018 -7198.20000000000073 0 0 0 0 0
168 1 3 31.1018 -7192.80000000000018 0 0 0 0 0
169 1 3 31.1018 -7187.40000000000055 0 0 0 0 0
170 1 3 31.1018 -7182.00000000000091 0 0 0 0 0
171 1 3 31.1018 -7176.60000000000036 0 0 0 0 0
172 1 3 31.1018 -7171.20000000000073 0 0 0 0 0
173 1 3 31.1018 -7165.80000000000018 0 0 0 0 0
174 1 3 31.1018 -7160.40000000000055 0 0 0 0 0
175 1 3 31.1018 -7155.00000000000091 0 0 0 0 0
176 1 3 31.1018 -7149.60000000000036 0 0 0 0 0
177 1 3 31.1018 -7144.20000000000073 0 0 0 0 0
178 1 3 31.1018 -7138.80000000000018 0 0 0 0 0
179 1 3 31.1018 -7133.40000000000055 0 0 0 0 0
180 1 3 31.1018 -7128.00000000000091 0 0 0 0 0
181 1 3 31.1018 -7122.60000000000036 0 0 0 0 0
182 1 3 31.1018 -7117.20000000000073 0 0 0 0 0
183 1 3 31.1018 -7111.80000000000018 0 0 0 0 0
184 1 3 31.1018 -7106.40000000000055 0 0 0 0 0
185 1 3 31.1018 -7101.00000000000091 0 0 0 0 0
186 1 3 31.1018 -7095.60000000000036 0 0 0 0 0
187 1 3 31.1018 -7090.20000000000073 0 0 0 0 0
188 1 3 31.1018 -7084.80000000000018 0 0 0 0 0
189 1 3 31.1018 -7079.40000000000055 0 0 0 0 0
190 1 3 31.1018 -7074.00000000000091 0 0 0 0 0
191 1 3 31.1018 -7068.60000000000036 0 0 0 0 0
192 1 3 31.1018 -7063.20000000000073 0 0 0 0 0
193 1 3 31.1018 -7057.80000000000018 0 0 0 0 0
194 1 3 31.1018 -7052.40000000000055 0 0 0 0 0
195 1 3 31.1018 -7047.00000000000091 0 0 0 0 0
196 1 3 31.1018 -7041.60000000000036 0 0 0 0 0
197 1 3 31.1018 -7036.20000000000073 0 0 0 0 0
198 1 3 31.1018 -7030.80000000000018 0 0 0 0 0
199 1 3 31.1018 -7025.40000000000055 0 0 0 0 0
200 1 3 31.1018 -7020.00000000000091 0 0 0 0 0
201 1 3 31.1018 -7014.60000000000036 0 0 0 0 0
202 1 3 31.1018 -7009.20000000000073 0 0 0 0 0
203 1 3 31.1018 -7003.80000000000018 0 0 0 0 0
204 1 3 31.1018 -6998.40000000000055 0 0 0 0 0
205 1 3 31.1018 -6993.00000000000091 0 0 0 0 0
206 1 3 31.1018 -6987.60000000000036 0 0 0 0 0
207 1 3 31.1018 -6982.20000000000073 0 0 0 0 0
208 1 3 31.1018 -6976.80000000000018 0 0 0 0 0
209 1 3 31.1018 -6971.40000000000055 0 0 0 0 0
210 1 3 31.1018 -6966.00000000000091 0 0 0 0 0
211 1 3 31.1018 -6960.60000000000036 0 0 0 0 0
212 1 3 31.1018 -6955.20000000000073 0 0 0 0 0
213 1 3 31.1018 -6949.80000000000018 0 0 0 0 0
214 1 3 31.1018 -6944.40000000000055 0 0 0 0 0
215 1 3 31.1018 -6939.00000000000091 0 0 0 0 0
216 1 3 31.1018 -6933.60000000000036 0 0 0 0 0
217 1 3 31.1018 -6928.20000000000073 0 0 0 0 0
218 1 3 31.1018 -6922.80000000000018 0 0 0 0 0
219 1 3 31.1018 -6917.40000000000055 0 0 0 0 0
220 1 3 31.1018 -6912 0 0 0 0 0
221 1 3 31.1018 -6906.60000000000036 0 0 0 0 0
222 1 3 31.1018 -6901.20000000000073 0 0 0 0 0
223 1 3 31.1018 -6895.80000000000018 0 0 0 0 0
224 1 3 31.1018 -6890.40000000000055 0 0 0 0 0
225 1 3 31.1018 -6885 0 0 0 0 0
226 1 3 31.1018 -6879.60000000000036 0 0 0 0 0
227 1 3 31.1018 -6874.20000000000073 0 0 0 0 0
228 1 3 31.1018 -6868.80000000000018 0 0 0 0 0
229 1 3 31.1018 -6863.40000000000055 0 0 0 0 0
230 1 3 31.1018 -6858 0 0 0 0 0
231 1 3 31.1018 -6852.60000000000036 0 0 0 0 0
232 1 3 31.1018 -6847.20000000000073 0 0 0 0 0
233 1 3 31.1018 -6841.80000000000018 0 0 0 0 0
234 1 3 31.1018 -6836.40000000000055 0 0 0 0 0
235 1 3 31.1018 -6831 0 0 0 0 0
236 1 3 31.1018 -6825.60000000000036 0 0 0 0 0
237 1 3 31.1018 -6820.20000000000073 0 0 0 0 0
238 1 3 31.1018 -6814.80000000000018 0 0 0 0 0
239 1 3 31.1018 -6809.40000000000055 0 0 0 0 0
240 1 3 31.1018 -6804 0 0 0 0 0
241 1 3 31.1018 -6798.60000000000036 0 0 0 0 0
242 1 3 31.1018 -6793.20000000000073 0 0 0 0 0
243 1 3 31.1018 -6787.80000000000018 0 0 0 0 0
244 1 3 31.1018 -6782.40000000000055 0 0 0 0 0
245 1 3 31.1018 -6777 0 0 0 0 0
246 1 3 31.1018 -6771.60000000000036 0 0 0 0 0
247 1 3 31.1018 -6766.20000000000073 0 0 0 0 0
248 1 3 31.1018 -6760.80000000000018 0 0 0 0 0
249 1 3 31.1018 -6755.40000000000055 0 0 0 0 0
250 1 3 31.1018 -6750 0 0 0 0 0
251 1 3 31.1018 -6744.60000000000036 0 0 0 0 0
252 1 3 31.1018 -6739.20000000000073 0 0 0 0 0
253 1 3 31.1018 -6733.80000000000018 0 0 0 0 0
254 1 3 31.1018 -6728.40000000000055 0 0 0 0 0
255 1 3 31.1018 -6723 0 0 0 0 0
256 1 3 31.1018 -6717.60000000000036 0 0 0 0 0
257 1 3 31.1018 -6712.20000000000073 0 0 0 0 0
258 1 3 31.1018 -6706.80000000000018 0 0 0 0 0
259 1 3 31.1018 -6701.40000000000055 0 0 0 0 0
260 1 3 31.1018 -6696 0 0 0 0 0
261 1 3 31.1018 -6690.60000000000036 0 0 0 0 0
262 1 3 31.1018 -6685.20000000000073 0 0 0 0 0
263 1 3 31.1018 -6679.80000000000018 0 0 0 0 0
264 1 3 31.1018 -6674.40000000000055 0 0 0 0 0
265 1 3 31.1018 -6669 0 0 0 0 0
266 1 3 31.1018 -6663.60000000000036 0 0 0 0 0
267 1 3 31.1018 -6658.20000000000073 0 0 0 0 0
268 1 3 31.1018 -6652.80000000000018 0 0 0 0 0
269 1 3 31.1018 -6647.40000000000055 0 0 0 0 0
270 1 3 31.1018 -6642 0 0 0 0 0
271 1 3 31.1018 -6636.60000000000036 0 0 0 0 0
272 1 3 31.1018 -6631.20000000000073 0 0 0 0 0
273 1 3 31.1018 -6625.80000000000018 0 0 0 0 0
274 1 3 31.1018 -6620.40000000000055 0 0 0 0 0
275 1 3 31.1018 -6615 0 0 0 0 0
276 1 3 31.1018 -6609.60000000000036 0 0 0 0 0
277 1 3 31.1018 -6604.20000000000073 0 0 0 0 0
278 1 3 31.1018 -6598.80000000000018 0 0 0 0 0
279 1 3 31.1018 -6593.40000000000055 0 0 0 0 0
280 1 3 31.1018 -6588 0 0 0 0 0
281 1 3 31.1018 -6582.60000000000036 0 0 0 0 0
282 1 3 31.1018 -6577.20000000000073 0 0 0 0 0
283 1 3 31.1018 -6571.80000000000018 0 0 0 0 0
284 1 3 31.1018 -6566.40000000000055 0 0 0 0 0
285 1 3 31.1018 -6561 0 0 0 0 0
286 1 3 31.1018 -6555.60000000000036 0 0 0 0 0
287 1 3 31.1018 -6550.20000000000073 0 0 0 0 0
288 1 3 31.1018 -6544.80000000000018 0 0 0 0 0
289 1 3 31.1018 -6539.40000000000055 0 0 0 0 0
290 1 3 31.1018 -6534 0 0 0 0 0
291 1 3 31.1018 -6528.60000000000036 0 0 0 0 0
292 1 3 31.1018 -6523.20000000000073 0 0 0 0 0
293 1 3 31.1018 -6517.80000000000018 0 0 0 0 0
294 1 3 31.1018 -6512.40000000000055 0 0 0 0 0
295 1 3 31.1018 -6507 0 0 0 0 0
296 1 3 31.1018 -6501.60000000000036 0 0 0 0 0
297 1 3 31.1018 -6496.20000000000073 0 0 0 0 0
298 1 3 31.1018 -6490.80000000000018 0 0 0 0 0
299 1 3 31.1018 -6485.40000000000055 0 0 0 0 0
300 1 3 31.1018 -6480 0 0 0 0 0
301 1 3 31.1018 -6474.60000000000036 0 0 0 0 0
302 1 3 31.1018 -6469.20000000000073 0 0 0 0 0
303 1 3 31.1018 -6463.80000000000018 0 0 0 0 0
304 1 3 31.1018 -6458.40000000000055 0 0 0 0 0
305 1 3 31.1018 -6453 0 0 0 0 0
306 1 3 31.1018 -6447.60000000000036 0 0 0 0 0
307 1 3 31.1018 -6442.20000000000073 0 0 0 0 0
308 1 3 31.1018 -6436.80000000000018 0 0 0 0 0
309 1 3 31.1018 -6431.40000000000055 0 0 0 0 0
310 1 3 31.1018 -6426 0 0 0 0 0
311 1 3 31.1018 -6420.60000000000036 0 0 0 0 0
312 1 3 31.1018 -6415.20000000000073 0 0 0 0 0
313 1 3 31.1018 -6409.80000000000018 0 0 0 0 0
314 1 3 31.1018 -6404.40000000000055 0 0 0 0 0
315 1 3 31.1018 -6399 0 0 0 0 0
316 1 3 31.1018 -6393.60000000000036 0 0 0 0 0
317 1 3 31.1018 -6388.20000000000073 0 0 0 0 0
318 1 3 31.1018 -6382.80000000000018 0 0 0 0 0
319 1 3 31.1018 -6377.40000000000055 0 0 0 0 0
320 1 3 31.1018 -6372 0 0 0 0 0
321 1 3 31.1018 -6366.60000000000036 0 0 0 0 0
322 1 3 31.1018 -6361.20000000000073 0 0 0 0 0
323 1 3 31.1018 -6355.80000000000018 0 0 0 0 0
324 1 3 31.1018 -6350.40000000000055 0 0 0 0 0
325 1 3 31.1018 -6345 0 0 0 0 0
326 1 3 31.1018 -6339.60000000000036 0 0 0 0 0
327 1 3 31.1018 -6334.20000000000073 0 0 0 0 0
328 1 3 31.1018 -6328.80000000000018 0 0 0 0 0
329 1 3 31.1018 -6323.40000000000055 0 0 0 0 0
330 1 3 31.1018 -6318 0 0 0 0 0
331 1 3 31.1018 -6312.60000000000036 0 0 0 0 0
332 1 3 31.1018 -6307.20000000000073 0 0 0 0 0
333 1 3 31.1018 -6301.80000000000018 0 0 0 0 0
334 1 3 31.1018 -6296.40000000000055 0 0 0 0 0
335 1 3 31.1018 -6291 0 0 0 0 0
336 1 3 31.1018 -6285.60000000000036 0 0 0 0 0
337 1 3 31.1018 -6280.20000000000073 0 0 0 0 0
338 1 3 31.1018 -6274.80000000000018 0 0 0 0 0
339 1 3 31.1018 -6269.40000000000055 0 0 0 0 0
340 1 3 31.1018 -6264 0 0 0 0 0
341 1 3 31.1018 -6258.60000000000036 0 0 0 0 0
342 1 3 31.1018 -6253.20000000000073 0 0 0 0 0
343 1 3 31.1018 -6247.80000000000018 0 0 0 0 0
344 1 3 31.1018 -6242.40000000000055 0 0 0 0 0
345 1 3 31.1018 -6237 0 0 0 0 0
346 1 3 31.1018 -6231.60000000000036 0 0 0 0 0
347 1 3 31.1018 -6226.20000000000073 0 0 0 0 0
348 1 3 31.1018 -6220.80000000000018 0 0 0 0 0
349 1 3 31.1018 -6215.40000000000055 0 0 0 0 0
350 1 3 31.1018 -6210 0 0 0 0 0
351 1 3 31.1018 -6204.60000000000036 0 0 0 0 0
352 1 3 31.1018 -6199.20000000000073 0 0 0 0 0
353 1 3 31.1018 -6193.80000000000018 0 0 0 0 0
354 1 3 31.1018 -6188.40000000000055 0 0 0 0 0
355 1 3 31.1018 -6183 0 0 0 0 0
356 1 3 31.1018 -6177.60000000000036 0 0 0 0 0
357 1 3 31.1018 -6172.20000000000073 0 0 0 0 0
358 1 3 31.1018 -6166.80000000000018 0 0 0 0 0
359 1 3 31.1018 -6161.40000000000055 0 0 0 0 0
360 1 3 31.1018 -6156 0 0 0 0 0
361 1 3 31.1018 -6150.60000000000036 0 0 0 0 0
362 1 3 31.1018 -6145.20000000000073 0 0 0 0 0
363 1 3 31.1018 -6139.80000000000018 0 0 0 0 0
364 1 3 31.1018 -6134.40000000000055 0 0 0 0 0
365 1 3 31.1018 -6129 0 0 0 0 0
366 1 3 31.1018 -6123.60000000000036 0 0 0 0 0
367 1 3 31.1018 -6118.20000000000073 0 0 0 0 0
368 1 3 31.1018 -6112.80000000000018 0 0 0 0 0
369 1 3 31.1018 -6107.40000000000055 0 0 0 0 0
370 1 3 31.1018 -6102 0 0 0 0 0
371 1 3 31.1018 -6096.60000000000036 0 0 0 0 0
372 1 3 31.1018 -6091.20000000000073 0 0 0 0 0
373 1 3 31.1018 -6085.80000000000018 0 0 0 0 0
374 1 3 31.1018 -6080.40000000000055 0 0 0 0 0
375 1 3 31.1018 -6075 0 0 0 0 0
376 1 3 31.1018 -6069.60000000000036 0 0 0 0 0
377 1 3 31.1018 -6064.20000000000073 0 0 0 0 0
378 1 3 31.1018 -6058.80000000000018 0 0 0 0 0
379 1 3 31.1018 -6053.40000000000055 0 0 0 0 0
380 1 3 31.1018 -6048 0 0 0 0 0
381 1 3 31.1018 -6042.60000000000036 0 0 0 0 0
382 1 3 31.1018 -6037.20000000000073 0 0 0 0 0
383 1 3 31.1018 -6031.80000000000018 0 0 0 0 0
384 1 3 31.1018 -6026.40000000000055 0 0 0 0 0
385 1 3 31.1018 -6021 0 0 0 0 0
386 1 3 31.1018 -6015.60000000000036 0 0 0 0 0
387 1 3 31.1018 -6010.20000000000073 0 0 0 0 0
388 1 3 31.1018 -6004.80000000000018 0 0 0 0 0
389 1 3 31.1018 -5999.40000000000055 0 0 0 0 0
390 1 3 31.1018 -5994 0 0 0 0 0
391 1 3 31.1018 -5988.60000000000036 0 0 0 0 0
392 1 3 31.1018 -5983.20000000000073 0 0 0 0 0
393 1 3 31.1018 -5977.80000000000018 0 0 0 0 0
394 1 3 31.1018 -5972.40000000000055 0 0 0 0 0
395 1 3 31.1018 -5967 0 0 0 0 0
396 1 3 31.1018 -5961.60000000000036 0 0 0 0 0
397 1 3 31.1018 -5956.20000000000073 0 0 0 0 0
398 1 3 31.1018 -5950.80000000000018 0 0 0 0 0
399 1 3 31.1018 -5945.40000000000055 0 0 0 0 0
400 1 3 31.1018 -5940 0 0 0 0 0
401 1 3 31.1018 -5934.60000000000036 0 0 0 0 0
402 1 3 31.1018 -5929.20000000000073 0 0 0 0 0
403 1 3 31.1018 -5923.80000000000018 0 0 0 0 0
404 1 3 31.1018 -5918.40000000000055 0 0 0 0 0
405 1 3 31.1018 -5913 0 0 0 0 0
406 1 3 31.1018 -5907.60000000000036 0 0 0 0 0
407 1 3 31.1018 -5902.20000000000073 0 0 0 0 0
408 1 3 31.1018 -5896.80000000000018 0 0 0 0 0
409 1 3 31.1018 -5891.40000000000055 0 0 0 0 0
410 1 3 31.1018 -5886 0 0 0 0 0
411 1 3 31.1018 -5880.60000000000036 0 0 0 0 0
412 1 3 31.1018 -5875.20000000000073 0 0 0 0 0
413 1 3 31.1018 -5869.80000000000018 0 0 0 0 0
414 1 3 31.1018 -5864.40000000000055 0 0 0 0 0
415 1 3 31.1018 -5859 0 0 0 0 0
416 1 3 31.1018 -5853.60000000000036 0 0 0 0 0
417 1 3 31.1018 -5848.20000000000073 0 0 0 0 0
418 1 3 31.1018 -5842.80000000000018 0 0 0 0 0
419 1 3 31.1018 -5837.40000000000055 0 0 0 0 0
420 1 3 31.1018 -5832 0 0 0 0 0
421 1 3 31.1018 -5826.60000000000036 0 0 0 0 0
422 1 3 31.1018 -5821.20000000000073 0 0 0 0 0
423 1 3 31.1018 -5815.80000000000018 0 0 0 0 0
424 1 3 31.1018 -5810.40000000000055 0 0 0 0 0
425 1 3 31.1018 -5805 0 0 0 0 0
426 1 3 31.1018 -5799.60000000000036 0 0 0 0 0
427 1 3 31.1018 -5794.20000000000073 0 0 0 0 0
428 1 3 31.1018 -5788.80000000000018 0 0 0 0 0
429 1 3 31.1018 -5783.40000000000055 0 0 0 0 0
430 1 3 31.1018 -5778 0 0 0 0 0
431 1 3 31.1018 -5772.60000000000036 0 0 0 0 0
432 1 3 31.1018 -5767.20000000000073 0 0 0 0 0
433 1 3 31.1018 -5761.80000000000018 0 0 0 0 0
434 1 3 31.1018 -5756.40000000000055 0 0 0 0 0
435 1 3 31.1018 -5751 0 0 0 0 0
436 1 3 31.1018 -5745.60000000000036 0 0 0 0 0
437 1 3 31.1018 -5740.20000000000073 0 0 0 0 0
438 1 3 31.1018 -5734.80000000000018 0 0 0 0 0
439 1 3 31.1018 -5729.40000000000055 0 0 0 0 0
440 1 3 31.1018 -5724 0 0 0 0 0
441 1 3 31.1018 -5718.60000000000036 0 0 0 0 0
442 1 3 31.1018 -5713.20000000000073 0 0 0 0 0
443 1 3 31.1018 -5707.80000000000018 0 0 0 0 0
444 1 3 31.1018 -5702.40000000000055 0 0 0 0 0
445 1 3 31.1018 -5697 0 0 0 0 0
446 1 3 31.1018 -5691.60000000000036 0 0 0 0 0
447 1 3 31.1018 -5686.20000000000073 0 0 0 0 0
448 1 3 31.1018 -5680.80000000000018 0 0 0 0 0
449 1 3 31.1018 -5675.40000000000055 0 0 0 0 0
450 1 3 31.1018 -5670 0 0 0 0 0
451 1 3 31.1018 -5664.60000000000036 0 0 0 0 0
452 1 3 31.1018 -5659.20000000000073 0 0 0 0 0
453 1 3 31.1018 -5653.80000000000018 0 0 0 0 0
454 1 3 31.1018 -5648.40000000000055 0 0 0 0 0
455 1 3 31.1018 -5643 0 0 0 0 0
456 1 3 31.1018 -5637.60000000000036 0 0 0 0 0
457 1 3 31.1018 -5632.20000000000073 0 0 0 0 0
458 1 3 31.1018 -5626.80000000000018 0 0 0 0 0
459 1 3 31.1018 -5621.40000000000055 0 0 0 0 0
460 1 3 31.1018 -5616 0 0 0 0 0
461 1 3 31.1018 -5610.60000000000036 0 0 0 0 0
462 1 3 31.1018 -5605.20000000000073 0 0 0 0 0
463 1 3 31.1018 -5599.80000000000018 0 0 0 0 0
464 1 3 31.1018 -5594.40000000000055 0 0 0 0 0
465 1 3 31.1018 -5589 0 0 0 0 0
466 1 3 31.1018 -5583.60000000000036 0 0 0 0 0
467 1 3 31.1018 -5578.20000000000073 0 0 0 0 0
468 1 3 31.1018 -5572.80000000000018 0 0 0 0 0
469 1 3 31.1018 -5567.40000000000055 0 0 0 0 0
470 1 3 31.1018 -5562 0 0 0 0 0
471 1 3 31.1018 -5556.60000000000036 0 0 0 0 0
472 1 3 31.1018 -5551.20000000000073 0 0 0 0 0
473 1 3 31.1018 -5545.80000000000018 0 0 0 0 0
474 1 3 31.1018 -5540.40000000000055 0 0 0 0 0
475 1 3 31.1018 -5535 0 0 0 0 0
476 1 3 31.1018 -5529.60000000000036 0 0 0 0 0
477 1 3 31.1018 -5524.20000000000073 0 0 0 0 0
478 1 3 31.1018 -5518.80000000000018 0 0 0 0 0
479 1 3 31.1018 -5513.40000000000055 0 0 0 0 0
480 1 3 31.1018 -5508 0 0 0 0 0
481 1 3 31.1018 -5502.60000000000036 0 0 0 0 0
482 1 3 31.1018 -5497.20000000000073 0 0 0 0 0
483 1 3 31.1018 -5491.80000000000018 0 0 0 0 0
484 1 3 31.1018 -5486.40000000000055 0 0 0 0 0
485 1 3 31.1018 -5481 0 0 0 0 0
486 1 3 31.1018 -5475.60000000000036 0 0 0 0 0
487 1 3 31.1018 -5470.20000000000073 0 0 0 0 0
488 1 3 31.1018 -5464.80000000000018 0 0 0 0 0
489 1 3 31.1018 -5459.40000000000055 0 0 0 0 0
490 1 3 31.1018 -5454 0 0 0 0 0
491 1 3 31.1018 -5448.60000000000036 0 0 0 0 0
492 1 3 31.1018 -5443.20000000000073 0 0 0 0 0
493 1 3 31.1018 -5437.80000000000018 0 0 0 0 0
494 1 3 31.1018 -5432.40000000000055 0 0 0 0 0
495 1 3 31.1018 -5427 0 0 0 0 0
496 1 3 31.1018 -5421.60000000000036 0 0 0 0 0
497 1 3 31.1018 -5416.20000000000073 0 0 0 0 0
498 1 3 31.1018 -5410.80000000000018 0 0 0 0 0
499 1 3 31.1018 -5405.40000000000055 0 0 0 0 0
500 1 3 31.1018 -5400 0 0 0 0 0
501 1 3 31.1018 -5394.60000000000036 0 0 0 0 0
502 1 3 31.1018 -5389.20000000000073 0 0 0 0 0
503 1 3 31.1018 -5383.80000000000018 0 0 0 0 0
504 1 3 31.1018 -5378.40000000000055 0 0 0 0 0
505 1 3 31.1018 -5373 0 0 0 0 0
506 1 3 31.1018 -5367.60000000000036 0 0 0 0 0
507 1 3 31.1018 -5362.20000000000073 0 0 0 0 0
508 1 3 31.1018 -5356.80000000000018 0 0 0 0 0
509 1 3 31.1018 -5351.40000000000055 0 0 0 0 0
510 1 3 31.1018 -5346 0 0 0 0 0
511 1 3 31.1018 -5340.60000000000036 0 0 0 0 0
512 1 3 31.1018 -5335.20000000000073 0 0 0 0 0
513 1 3 31.1018 -5329.80000000000018 0 0 0 0 0
514 1 3 31.1018 -5324.40000000000055 0 0 0 0 0
515 1 3 31.1018 -5319 0 0 0 0 0
516 1 3 31.1018 -5313.60000000000036 0 0 0 0 0
517 1 3 31.1018 -5308.20000000000073 0 0 0 0 0
518 1 3 31.1018 -5302.80000000000018 0 0 0 0 0
519 1 3 31.1018 -5297.40000000000055 0 0 0 0 0
520 1 3 31.1018 -5292 0 0 0 0 0
521 1 3 31.1018 -5286.60000000000036 0 0 0 0 0
522 1 3 31.1018 -5281.20000000000073 0 0 0 0 0
523 1 3 31.1018 -5275.80000000000018 0 0 0 0 0
524 1 3 31.1018 -5270.40000000000055 0 0 0 0 0
525 1 3 31.1018 -5265 0 0 0 0 0
526 1 3 31.1018 -5259.60000000000036 0 0 0 0 0
527 1 3 31.1018 -5254.20000000000073 0 0 0 0 0
528 1 3 31.1018 -5248.80000000000018 0 0 0 0 0
529 1 3 31.1018 -5243.40000000000055 0 0 0 0 0
530 1 3 31.1018 -5238 0 0 0 0 0
531 1 3 31.1018 -5232.60000000000036 0 0 0 0 0
532 1 3 31.1018 -5227.20000000000073 0 0 0 0 0
533 1 3 31.1018 -5221.80000000000018 0 0 0 0 0
534 1 3 31.1018 -5216.40000000000055 0 0 0 0 0
535 1 3 31.1018 -5211 0 0 0 0 0
536 1 3 31.1018 -5205.60000000000036 0 0 0 0 0
537 1 3 31.1018 -5200.20000000000073 0 0 0 0 0
538 1 3 31.1018 -5194.80000000000018 0 0 0 0 0
539 1 3 31.1018 -5189.40000000000055 0 0 0 0 0
540 1 3 31.1018 -5184 0 0 0 0 0
541 1 3 31.1018 -5178.60000000000036 0 0 0 0 0
542 1 3 31.1018 -5173.20000000000073 0 0 0 0 0
543 1 3 31.1018 -5167.80000000000018 0 0 0 0 0
544 1 3 31.1018 -5162.40000000000055 0 0 0 0 0
545 1 3 31.1018 -5157 0 0 0 0 0
546 1 3 31.1018 -5151.60000000000036 0 0 0 0 0
547 1 3 31.1018 -5146.20000000000073 0 0 0 0 0
548 1 3 31.1018 -5140.80000000000018 0 0 0 0 0
549 1 3 31.1018 -5135.40000000000055 0 0 0 0 0
550 1 3 31.1018 -5130 0 0 0 0 0
551 1 3 31.1018 -5124.60000000000036 0 0 0 0 0
552 1 3 31.1018 -5119.20000000000073 0 0 0 0 0
553 1 3 31.1018 -5113.80000000000018 0 0 0 0 0
554 1 3 31.1018 -5108.40000000000055 0 0 0 0 0
555 1 3 31.1018 -5103 0 0 0 0 0
556 1 3 31.1018 -5097.60000000000036 0 0 0 0 0
557 1 3 31.1018 -5092.20000000000073 0 0 0 0 0
558 1 3 31.1018 -5086.80000000000018 0 0 0 0 0
559 1 3 31.1018 -5081.40000000000055 0 0 0 0 0
560 1 3 31.1018 -5076 0 0 0 0 0
561 1 3 31.1018 -5070.60000000000036 0 0 0 0 0
562 1 3 31.1018 -5065.20000000000073 0 0 0 0 0
563 1 3 31.1018 -5059.80000000000018 0 0 0 0 0
564 1 3 31.1018 -5054.40000000000055 0 0 0 0 0
565 1 3 31.1018 -5049 0 0 0 0 0
566 1 3 31.1018 -5043.60000000000036 0 0 0 0 0
567 1 3 31.1018 -5038.20000000000073 0 0 0 0 0
568 1 3 31.1018 -5032.80000000000018 0 0 0 0 0
569 1 3 31.1018 -5027.40000000000055 0 0 0 0 0
570 1 3 31.1018 -5022 0 0 0 0 0
571 1 3 31.1018 -5016.60000000000036 0 0 0 0 0
572 1 3 31.1018 -5011.20000000000073 0 0 0 0 0
573 1 3 31.1018 -5005.80000000000018 0 0 0 0 0
574 1 3 31.1018 -5000.40000000000055 0 0 0 0 0
575 1 3 31.1018 -4995 0 0 0 0 0
576 1 3 31.1018 -4989.60000000000036 0 0 0 0 0
577 1 3 31.1018 -4984.20000000000073 0 0 0 0 0
578 1 3 31.1018 -4978.80000000000018 0 0 0 0 0
579 1 3 31.1018 -4973.40000000000055 0 0 0 0 0
580 1 3 31.1018 -4968 0 0 0 0 0
581 1 3 31.1018 -4962.60000000000036 0 0 0 0 0
582 1 3 31.1018 -4957.20000000000073 0 0 0 0 0
583 1 3 31.1018 -4951.80000000000018 0 0 0 0 0
584 1 3 31.1018 -4946.40000000000055 0 0 0 0 0
585 1 3 31.1018 -4941 0 0 0 0 0
586 1 3 31.1018 -4935.60000000000036 0 0 0 0 0
587 1 3 31.1018 -4930.20000000000073 0 0 0 0 0
588 1 3 31.1018 -4924.80000000000018 0 0 0 0 0
589 1 3 31.1018 -4919.40000000000055 0 0 0 0 0
590 1 3 31.1018 -4914 0 0 0 0 0
591 1 3 31.1018 -4908.60000000000036 0 0 0 0 0
592 1 3 31.1018 -4903.20000000000073 0 0 0 0 0
593 1 3 31.1018 -4897.80000000000018 0 0 0 0 0
594 1 3 31.1018 -4892.40000000000055 0 0 0 0 0
595 1 3 31.1018 -4887 0 0 0 0 0
596 1 3 31.1018 -4881.60000000000036 0 0 0 0 0
597 1 3 31.1018 -4876.20000000000073 0 0 0 0 0
598 1 3 31.1018 -4870.80000000000018 0 0 0 0 0
599 1 3 31.1018 -4865.40000000000055 0 0 0 0 0
600 1 3 31.1018 -4860 0 0 0 0 0
601 1 3 31.1018 -4854.60000000000036 0 0 0 0 0
602 1 3 31.1018 -4849.20000000000073 0 0 0 0 0
603 1 3 31.1018 -4843.80000000000018 0 0 0 0 0
604 1 3 31.1018 -4838.40000000000055 0 0 0 0 0
605 1 3 31.1018 -4833 0 0 0 0 0
606 1 3 31.1018 -4827.60000000000036 0 0 0 0 0
607 1 3 31.1018 -4822.20000000000073 0 0 0 0 0
608 1 3 31.1018 -4816.80000000000018 0 0 0 0 0
609 1 3 31.1018 -4811.40000000000055 0 0 0 0 0
610 1 3 31.1018 -4806 0 0 0 0 0
611 1 3 31.1018 -4800.60000000000036 0 0 0 0 0
612 1 3 31.1018 -4795.20000000000073 0 0 0 0 0
613 1 3 31.1018 -4789.80000000000018 0 0 0 0 0
614 1 3 31.1018 -4784.40000000000055 0 0 0 0 0
615 1 3 31.1018 -4779 0 0 0 0 0
616 1 3 31.1018 -4773.60000000000036 0 0 0 0 0
617 1 3 31.1018 -4768.20000000000073 0 0 0 0 0
618 1 3 31.1018 -4762.80000000000018 0 0 0 0 0
619 1 3 31.1018 -4757.40000000000055 0 0 0 0 0
620 1 3 31.1018 -4752 0 0 0 0 0
621 1 3 31.1018 -4746.60000000000036 0 0 0 0 0
622 1 3 31.1018 -4741.20000000000073 0 0 0 0 0
623 1 3 31.1018 -4735.80000000000018 0 0 0 0 0
624 1 3 31.1018 -4730.40000000000055 0 0 0 0 0
625 1 3 31.1018 -4725 0 0 0 0 0
626 1 3 31.1018 -4719.60000000000036 0 0 0 0 0
627 1 3 31.1018 -4714.20000000000073 0 0 0 0 0
628 1 3 31.1018 -4708.80000000000018 0 0 0 0 0
629 1 3 31.1018 -4703.40000000000055 0 0 0 0 0
630 1 3 31.1018 -4698 0 0 0 0 0
631 1 3 31.1018 -4692.60000000000036 0 0 0 0 0
632 1 3 31.1018 -4687.20000000000073 0 0 0 0 0
633 1 3 31.1018 -4681.80000000000018 0 0 0 0 0
634 1 3 31.1018 -4676.40000000000055 0 0 0 0 0
635 1 3 31.1018 -4671 0 0 0 0 0
636 1 3 31.1018 -4665.60000000000036 0 0 0 0 0
637 1 3 31.1018 -4660.20000000000073 0 0 0 0 0
638 1 3 31.1018 -4654.80000000000018 0 0 0 0 0
639 1 3 31.1018 -4649.40000000000055 0 0 0 0 0
640 1 3 31.1018 -4644 0 0 0 0 0
641 1 3 31.1018 -4638.60000000000036 0 0 0 0 0
642 1 3 31.1018 -4633.20000000000073 0 0 0 0 0
643 1 3 31.1018 -4627.80000000000018 0 0 0 0 0
644 1 3 31.1018 -4622.40000000000055 0 0 0 0 0
645 1 3 31.1018 -4617 0 0 0 0 0
646 1 3 31.1018 -4611.60000000000036 0 0 0 0 0
647 1 3 31.1018 -4606.20000000000073 0 0 0 0 0
648 1 3 31.1018 -4600.80000000000018 0 0 0 0 0
649 1 3 31.1018 -4595.40000000000055 0 0 0 0 0
650 1 3 31.1018 -4590 0 0 0 0 0
651 1 3 31.1018 -4584.60000000000036 0 0 0 0 0
652 1 3 31.1018 -4579.20000000000073 0 0 0 0 0
653 1 3 31.1018 -4573.80000000000018 0 0 0 0 0
654 1 3 31.1018 -4568.40000000000055 0 0 0 0 0
655 1 3 31.1018 -4563 0 0 0 0 0
656 1 3 31.1018 -4557.60000000000036 0 0 0 0 0
657 1 3 31.1018 -4552.20000000000073 0 0 0 0 0
658 1 3 31.1018 -4546.80000000000018 0 0 0 0 0
659 1 3 31.1018 -4541.40000000000055 0 0 0 0 0
660 1 3 31.1018 -4536 0 0 0 0 0
661 1 3 31.1018 -4530.60000000000036 0 0 0 0 0
662 1 3 31.1018 -4525.20000000000073 0 0 0 0 0
663 1 3 31.1018 -4519.80000000000018 0 0 0 0 0