ITEM: TIMESTEP
600000
ITEM: NUMBER OF ATOMS
5000
ITEM: BOX BOUNDS pp pp pp
-7.6650000000000000e+03 7.6650000000000000e+03
-1.0000000000000000e+02 1.0000000000000000e+02
-1.0000000000000000e+02 1.0000000000000000e+02
ITEM: ATOMS id type diameter mass xu yu zu fx fy fz
1 1 3 31.1018 -7659.89000000000033 0 0 0 0 0
2 1 3 31.1018 -7654.78000000000065 0 0 0 0 0
3 1 3 31.1018 -7649.67000000000007 0 0 0 0 0
4 1 3 31.1018 -7644.5600000000004 0 0 0 0 0
5 1 3 31.1018 -7639.45000000000073 0 0 0 0 0
6 1 3 31.1018 -7634.34000000000015 0 0 0 0 0
7 1 3 31.1018 -7629.23000000000047 0 0 0 0 0
8 1 3 31.1018 -7624.1200000000008 0 0 0 0 0
9 1 3 31.1018 -7619.01000000000022 0 0 0 0 0
10 1 3 31.1018 -7613.90000000000055 0 0 0 0 0
11 1 3 31.1018 -7608.79000000000087 0 0 0 0 0
12 1 3 31.1018 -7603.68000000000029 0 0 0 0 0
13 1 3 31.1018 -7598.57000000000062 0 0 0 0 0
14 1 3 31.1018 -7593.46000000000004 0 0 0 0 0
15 1 3 31.1018 -7588.35000000000036 0 0 0 0 0
16 1 3 31.1018 -7583.24000000000069 0 0 0 0 0
17 1 3 31.1018 -7578.13000000000011 0 0 0 0 0
18 1 3 31.1018 -7573.02000000000044 0 0 0 0 0
19 1 3 31.1018 -7567.91000000000076 0 0 0 0 0
20 1 3 31.1018 -7562.80000000000018 0 0 0 0 0
21 1 3 31.1018 -7557.69000000000051 0 0 0 0 0
22 1 3 31.1018 -7552.58000000000084 0 0 0 0 0
23 1 3 31.1018 -7547.47000000000025 0 0 0 0 0
24 1 3 31.1018 -7542.36000000000058 0 0 0 0 0
25 1 3 31.1018 -7537.25000000000091 0 0 0 0 0
26 1 3 31.1018 -7532.14000000000033 0 0 0 0 0
27 1 3 31.1018 -7527.03000000000065 0 0 0 0 0
28 1 3 31.1018 -7521.92000000000007 0 0 0 0 0
29 1 3 31.1018 -7516.8100000000004 0 0 0 0 0
30 1 3 31.1018 -7511.70000000000073 0 0 0 0 0
31 1 3 31.1018 -7506.59000000000015 0 0 0 0 0
32 1 3 31.1018 -7501.48000000000047 0 0 0 0 0
33 1 3 31.1018 -7496.3700000000008 0 0 0 0 0
34 1 3 31.1018 -7491.26000000000022 0 0 0 0 0
35 1 3 31.1018 -7486.15000000000055 0 0 0 0 0
36 1 3 31.1018 -7481.04000000000087 0 0 0 0 0
37 1 3 31.1018 -7475.93000000000029 0 0 0 0 0
38 1 3 31.1018 -7470.82000000000062 0 0 0 0 0
39 1 3 31.1018 -7465.71000000000004 0 0 0 0 0
40 1 3 31.1018 -7460.60000000000036 0 0 0 0 0
41 1 3 31.1018 -7455.49000000000069 0 0 0 0 0
42 1 3 31.1018 -7450.38000000000011 0 0 0 0 0
43 1 3 31.1018 -7445.27000000000044 0 0 0 0 0
44 1 3 31.1018 -7440.16000000000076 0 0 0 0 0
45 1 3 31.1018 -7435.05000000000018 0 0 0 0 0
46 1 3 31.1018 -7429.94000000000051 0 0 0 0 0
47 1 3 31.1018 -7424.83000000000084 0 0 0 0 0
48 1 3 31.1018 -7419.72000000000025 0 0 0 0 0
49 1 3 31.1018 -7414.61000000000058 0 0 0 0 0
50 1 3 31.1018 -7409.50000000000091 0 0 0 0 0
51 1 3 31.1018 -7404.39000000000033 0 0 0 0 0
52 1 3 31.1018 -7399.28000000000065 0 0 0 0 0
53 1 3 31.1018 -7394.17000000000007 0 0 0 0 0
54 1 3 31.1018 -7389.0600000000004 0 0 0 0 0
55 1 3 31.1018 -7383.95000000000073 0 0 0 0 0
56 1 3 31.1018 -7378.84000000000015 0 0 0 0 0
57 1 3 31.1018 -7373.73000000000047 0 0 0 0 0
58 1 3 31.1018 -7368.6200000000008 0 0 0 0 0
59 1 3 31.1018 -7363.51000000000022 0 0 0 0 0
60 1 3 31.1018 -7358.40000000000055 0 0 0 0 0
61 1 3 31.1018 -7353.29000000000087 0 0 0 0 0
62 1 3 31.1018 -7348.18000000000029 0 0 0 0 0
63 1 3 31.1018 -7343.07000000000062 0 0 0 0 0
64 1 3 31.1018 -7337.96000000000004 0 0 0 0 0
65 1 3 31.1018 -7332.85000000000036 0 0 0 0 0
66 1 3 31.1018 -7327.74000000000069 0 0 0 0 0
67 1 3 31.1018 -7322.63000000000011 0 0 0 0 0
68 1 3 31.1018 -7317.52000000000044 0 0 0 0 0
69 1 3 31.1018 -7312.41000000000076 0 0 0 0 0
70 1 3 31.1018 -7307.30000000000018 0 0 0 0 0
71 1 3 31.1018 -7302.19000000000051 0 0 0 0 0
72 1 3 31.1018 -7297.08000000000084 0 0 0 0 0
73 1 3 31.1018 -7291.97000000000025 0 0 0 0 0
74 1 3 31.1018 -7286.86000000000058 0 0 0 0 0
75 1 3 31.1018 -7281.75000000000091 0 0 0 0 0
76 1 3 31.1018 -7276.64000000000033 0 0 0 0 0
77 1 3 31.1018 -7271.53000000000065 0 0 0 0 0
78 1 3 31.1018 -7266.42000000000007 0 0 0 0 0
79 1 3 31.1018 -7261.3100000000004 0 0 0 0 0
80 1 3 31.1018 -7256.20000000000073 0 0 0 0 0
81 1 3 31.1018 -7251.09000000000015 0 0 0 0 0
82 1 3 31.1018 -7245.98000000000047 0 0 0 0 0
83 1 3 31.1018 -7240.8700000000008 0 0 0 0 0
84 1 3 31.1018 -7235.76000000000022 0 0 0 0 0
85 1 3 31.1018 -7230.65000000000055 0 0 0 0 0
86 1 3 31.1018 -7225.54000000000087 0 0 0 0 0
87 1 3 31.1018 -7220.43000000000029 0 0 0 0 0
88 1 3 31.1018 -7215.32000000000062 0 0 0 0 0
89 1 3 31.1018 -7210.21000000000004 0 0 0 0 0
90 1 3 31.1018 -7205.10000000000036 0 0 0 0 0
91 1 3 31.1018 -7199.99000000000069 0 0 0 0 0
92 1 3 31.1018 -7194.88000000000011 0 0 0 0 0
93 1 3 31.1018 -7189.77000000000044 0 0 0 0 0
94 1 3 31.1018 -7184.66000000000076 0 0 0 0 0
95 1 3 31.1018 -7179.55000000000018 0 0 0 0 0
96 1 3 31.1018 -7174.44000000000051 0 0 0 0 0
97 1 3 31.1018 -7169.33000000000084 0 0 0 0 0
98 1 3 31.1018 -7164.22000000000025 0 0 0 0 0
99 1 3 31.1018 -7159.11000000000058 0 0 0 0 0
100 1 3 31.1018 -7154 0 0 0 0 0
101 1 3 31.1018 -7148.89000000000033 0 0 0 0 0
102 1 3 31.1018 -7143.78000000000065 0 0 0 0 0
103 1 3 31.1018 -7138.67000000000007 0 0 0 0 0
104 1 3 31.1018 -7133.5600000000004 0 0 0 0 0
105 1 3 31.1018 -7128.45000000000073 0 0 0 0 0
106 1 3 31.1018 -7123.34000000000015 0 0 0 0 0
107 1 3 31.1018 -7118.23000000000047 0 0 0 0 0
108 1 3 31.1018 -7113.1200000000008 0 0 0 0 0
109 1 3 31.1018 -7108.01000000000022 0 0 0 0 0
110 1 3 31.1018 -7102.90000000000055 0 0 0 0 0
111 1 3 31.1018 -7097.79000000000087 0 0 0 0 0
112 1 3 31.1018 -7092.68000000000029 0 0 0 0 0
113 1 3 31.1018 -7087.57000000000062 0 0 0 0 0
114 1 3 31.1018 -7082.46000000000004 0 0 0 0 0
115 1 3 31.1018 -7077.35000000000036 0 0 0 0 0
116 1 3 31.1018 -7072.24000000000069 0 0 0 0 0
117 1 3 31.1018 -7067.13000000000011 0 0 0 0 0
118 1 3 31.1018 -7062.02000000000044 0 0 0 0 0
119 1 3 31.1018 -7056.91000000000076 0 0 0 0 0
120 1 3 31.1018 -7051.80000000000018 0 0 0 0 0
121 1 3 31.1018 -7046.69000000000051 0 0 0 0 0
122 1 3 31.1018 -7041.58000000000084 0 0 0 0 0
123 1 3 31.1018 -7036.47000000000025 0 0 0 0 0
124 1 3 31.1018 -7031.36000000000058 0 0 0 0 0
125 1 3 31.1018 -7026.25 0 0 0 0 0
126 1 3 31.1018 -7021.14000000000033 0 0 0 0 0
127 1 3 31.1018 -7016.03000000000065 0 0 0 0 0
128 1 3 31.1018 -7010.92000000000007 0 0 0 0 0
129 1 3 31.1018 -7005.8100000000004 0 0 0 0 0
130 1 3 31.1018 -7000.70000000000073 0 0 0 0 0
131 1 3 31.1018 -6995.59000000000015 0 0 0 0 0
132 1 3 31.1018 -6990.48000000000047 0 0 0 0 0
133 1 3 31.1018 -6985.3700000000008 0 0 0 0 0
134 1 3 31.1018 -6980.26000000000022 0 0 0 0 0
135 1 3 31.1018 -6975.15000000000055 0 0 0 0 0
136 1 3 31.1018 -6970.04000000000087 0 0 0 0 0
137 1 3 31.1018 -6964.93000000000029 0 0 0 0 0
138 1 3 31.1018 -6959.82000000000062 0 0 0 0 0
139 1 3 31.1018 -6954.71000000000004 0 0 0 0 0
140 1 3 31.1018 -6949.60000000000036 0 0 0 0 0
141 1 3 31.1018 -6944.49000000000069 0 0 0 0 0
142 1 3 31.1018 -6939.38000000000011 0 0 0 0 0
143 1 3 31.1018 -6934.27000000000044 0 0 0 0 0
144 1 3 31.1018 -6929.16000000000076 0 0 0 0 0
145 1 3 31.1018 -6924.05000000000018 0 0 0 0 0
146 1 3 31.1018 -6918.94000000000051 0 0 0 0 0
147 1 3 31.1018 -6913.83000000000084 0 0 0 0 0
148 1 3 31.1018 -6908.72000000000025 0 0 0 0 0
149 1 3 31.1018 -6903.61000000000058 0 0 0 0 0
150 1 3 31.1018 -6898.5 0 0 0 0 0
151 1 3 31.1018 -6893.39000000000033 0 0 0 0 0
152 1 3 31.1018 -6888.28000000000065 0 0 0 0 0
153 1 3 31.1018 -6883.17000000000007 0 0 0 0 0
154 1 3 31.1018 -6878.0600000000004 0 0 0 0 0
155 1 3 31.1018 -6872.95000000000073 0 0 0 0 0
156 1 3 31.1018 -6867.84000000000015 0 0 0 0 0
157 1 3 31.1018 -6862.73000000000047 0 0 0 0 0
158 1 3 31.1018 -6857.6200000000008 0 0 0 0 0
159 1 3 31.1018 -6852.51000000000022 0 0 0 0 0
160 1 3 31.1018 -6847.40000000000055 0 0 0 0 0
161 1 3 31.1018 -6842.29000000000087 0 0 0 0 0
162 1 3 31.1018 -6837.18000000000029 0 0 0 0 0
163 1 3 31.1018 -6832.07000000000062 0 0 0 0 0
164 1 3 31.1018 -6826.96000000000004 0 0 0 0 0
165 1 3 31.1018 -6821.85000000000036 0 0 0 0 0
166 1 3 31.1018 -6816.74000000000069 0 0 0 0 0
167 1 3 31.1018 -6811.63000000000011 0 0 0 0 0
168 1 3 31.1018 -6806.52000000000044 0 0 0 0 0
169 1 3 31.1018 -6801.41000000000076 0 0 0 0 0
170 1 3 31.1018 -6796.30000000000018 0 0 0 0 0
171 1 3 31.1018 -6791.19000000000051 0 0 0 0 0
172 1 3 31.1018 -6786.08000000000084 0 0 0 0 0
173 1 3 31.1018 -6780.97000000000025 0 0 0 0 0
174 1 3 31.1018 -6775.86000000000058 0 0 0 0 0
175 1 3 31.1018 -6770.75 0 0 0 0 0
176 1 3 31.1018 -6765.64000000000033 0 0 0 0 0
177 1 3 31.1018 -6760.53000000000065 0 0 0 0 0
178 1 3 31.1018 -6755.42000000000007 0 0 0 0 0
179 1 3 31.1018 -6750.3100000000004 0 0 0 0 0
180 1 3 31.1018 -6745.20000000000073 0 0 0 0 0
181 1 3 31.1018 -6740.09000000000015 0 0 0 0 0
182 1 3 31.1018 -6734.98000000000047 0 0 0 0 0
183 1 3 31.1018 -6729.8700000000008 0 0 0 0 0
184 1 3 31.1018 -6724.76000000000022 0 0 0 0 0
185 1 3 31.1018 -6719.65000000000055 0 0 0 0 0
186 1 3 31.1018 -6714.54000000000087 0 0 0 0 0
187 1 3 31.1018 -6709.43000000000029 0 0 0 0 0
188 1 3 31.1018 -6704.32000000000062 0 0 0 0 0
189 1 3 31.1018 -6699.21000000000004 0 0 0 0 0
190 1 3 31.1018 -6694.10000000000036 0 0 0 0 0
191 1 3 31.1018 -6688.99000000000069 0 0 0 0 0
192 1 3 31.1018 -6683.88000000000011 0 0 0 0 0
193 1 3 31.1018 -6678.77000000000044 0 0 0 0 0
194 1 3 31.1018 -6673.66000000000076 0 0 0 0 0
195 1 3 31.1018 -6668.55000000000018 0 0 0 0 0
196 1 3 31.1018 -6663.44000000000051 0 0 0 0 0
197 1 3 31.1018 -6658.33000000000084 0 0 0 0 0
198 1 3 31.1018 -6653.22000000000025 0 0 0 0 0
199 1 3 31.1018 -6648.11000000000058 0 0 0 0 0
200 1 3 31.1018 -6643 0 0 0 0 0
201 1 3 31.1018 -6637.89000000000033 0 0 0 0 0
202 1 3 31.1018 -6632.78000000000065 0 0 0 0 0
203 1 3 31.1018 -6627.67000000000007 0 0 0 0 0
204 1 3 31.1018 -6622.5600000000004 0 0 0 0 0
205 1 3 31.1018 -6617.45000000000073 0 0 0 0 0
206 1 3 31.1018 -6612.34000000000015 0 0 0 0 0
207 1 3 31.1018 -6607.23000000000047 0 0 0 0 0
208 1 3 31.1018 -6602.1200000000008 0 0 0 0 0
209 1 3 31.1018 -6597.01000000000022 0 0 0 0 0
210 1 3 31.1018 -6591.90000000000055 0 0 0 0 0
211 1 3 31.1018 -6586.78999999999996 0 0 0 0 0
212 1 3 31.1018 -6581.68000000000029 0 0 0 0 0
213 1 3 31.1018 -6576.57000000000062 0 0 0 0 0
214 1 3 31.1018 -6571.46000000000004 0 0 0 0 0
215 1 3 31.1018 -6566.35000000000036 0 0 0 0 0
216 1 3 31.1018 -6561.24000000000069 0 0 0 0 0
217 1 3 31.1018 -6556.13000000000011 0 0 0 0 0
218 1 3 31.1018 -6551.02000000000044 0 0 0 0 0
219 1 3 31.1018 -6545.91000000000076 0 0 0 0 0
220 1 3 31.1018 -6540.80000000000018 0 0 0 0 0
221 1 3 31.1018 -6535.69000000000051 0 0 0 0 0
222 1 3 31.1018 -6530.58000000000084 0 0 0 0 0
223 1 3 31.1018 -6525.47000000000025 0 0 0 0 0
224 1 3 31.1018 -6520.36000000000058 0 0 0 0 0
225 1 3 31.1018 -6515.25 0 0 0 0 0
226 1 3 31.1018 -6510.14000000000033 0 0 0 0 0
227 1 3 31.1018 -6505.03000000000065 0 0 0 0 0
228 1 3 31.1018 -6499.92000000000007 0 0 0 0 0
229 1 3 31.1018 -6494.8100000000004 0 0 0 0 0
230 1 3 31.1018 -6489.70000000000073 0 0 0 0 0
231 1 3 31.1018 -6484.59000000000015 0 0 0 0 0
232 1 3 31.1018 -6479.48000000000047 0 0 0 0 0
233 1 3 31.1018 -6474.3700000000008 0 0 0 0 0
234 1 3 31.1018 -6469.26000000000022 0 0 0 0 0
235 1 3 31.1018 -6464.15000000000055 0 0 0 0 0
236 1 3 31.1018 -6459.03999999999996 0 0 0 0 0
237 1 3 31.1018 -6453.93000000000029 0 0 0 0 0
238 1 3 31.1018 -6448.82000000000062 0 0 0 0 0
239 1 3 31.1018 -6443.71000000000004 0 0 0 0 0
240 1 3 31.1018 -6438.60000000000036 0 0 0 0 0
241 1 3 31.1018 -6433.49000000000069 0 0 0 0 0
242 1 3 31.1018 -6428.38000000000011 0 0 0 0 0
243 1 3 31.1018 -6423.27000000000044 0 0 0 0 0
244 1 3 31.1018 -6418.16000000000076 0 0 0 0 0
245 1 3 31.1018 -6413.05000000000018 0 0 0 0 0
246 1 3 31.1018 -6407.94000000000051 0 0 0 0 0
247 1 3 31.1018 -6402.83000000000084 0 0 0 0 0
248 1 3 31.1018 -6397.72000000000025 0 0 0 0 0
249 1 3 31.1018 -6392.61000000000058 0 0 0 0 0
250 1 3 31.1018 -6387.5 0 0 0 0 0
251 1 3 31.1018 -6382.39000000000033 0 0 0 0 0
252 1 3 31.1018 -6377.28000000000065 0 0 0 0 0
253 1 3 31.1018 -6372.17000000000007 0 0 0 0 0
254 1 3 31.1018 -6367.0600000000004 0 0 0 0 0
255 1 3 31.1018 -6361.95000000000073 0 0 0 0 0
256 1 3 31.1018 -6356.84000000000015 0 0 0 0 0
257 1 3 31.1018 -6351.73000000000047 0 0 0 0 0
258 1 3 31.1018 -6346.6200000000008 0 0 0 0 0
259 1 3 31.1018 -6341.51000000000022 0 0 0 0 0
260 1 3 31.1018 -6336.40000000000055 0 0 0 0 0
261 1 3 31.1018 -6331.28999999999996 0 0 0 0 0
262 1 3 31.1018 -6326.18000000000029 0 0 0 0 0
263 1 3 31.1018 -6321.07000000000062 0 0 0 0 0
264 1 3 31.1018 -6315.96000000000004 0 0 0 0 0
265 1 3 31.1018 -6310.85000000000036 0 0 0 0 0
266 1 3 31.1018 -6305.74000000000069 0 0 0 0 0
267 1 3 31.1018 -6300.63000000000011 0 0 0 0 0
268 1 3 31.1018 -6295.52000000000044 0 0 0 0 0
269 1 3 31.1018 -6290.41000000000076 0 0 0 0 0
270 1 3 31.1018 -6285.30000000000018 0 0 0 0 0
271 1 3 31.1018 -6280.19000000000051 0 0 0 0 0
272 1 3 31.1018 -6275.08000000000084 0 0 0 0 0
273 1 3 31.1018 -6269.97000000000025 0 0 0 0 0
274 1 3 31.1018 -6264.86000000000058 0 0 0 0 0
275 1 3 31.1018 -6259.75 0 0 0 0 0
276 1 3 31.1018 -6254.64000000000033 0 0 0 0 0
277 1 3 31.1018 -6249.53000000000065 0 0 0 0 0
278 1 3 31.1018 -6244.42000000000007 0 0 0 0 0
279 1 3 31.1018 -6239.3100000000004 0 0 0 0 0
280 1 3 31.1018 -6234.20000000000073 0 0 0 0 0
281 1 3 31.1018 -6229.09000000000015 0 0 0 0 0
282 1 3 31.1018 -6223.98000000000047 0 0 0 0 0
283 1 3 31.1018 -6218.8700000000008 0 0 0 0 0
284 1 3 31.1018 -6213.76000000000022 0 0 0 0 0
285 1 3 31.1018 -6208.65000000000055 0 0 0 0 0
286 1 3 31.1018 -6203.53999999999996 0 0 0 0 0
287 1 3 31.1018 -6198.43000000000029 0 0 0 0 0
288 1 3 31.1018 -6193.32000000000062 0 0 0 0 0
289 1 3 31.1018 -6188.21000000000004 0 0 0 0 0
290 1 3 31.1018 -6183.10000000000036 0 0 0 0 0
291 1 3 31.1018 -6177.99000000000069 0 0 0 0 0
292 1 3 31.1018 -6172.88000000000011 0 0 0 0 0
293 1 3 31.1018 -6167.77000000000044 0 0 0 0 0
294 1 3 31.1018 -6162.66000000000076 0 0 0 0 0
295 1 3 31.1018 -6157.55000000000018 0 0 0 0 0
296 1 3 31.1018 -6152.44000000000051 0 0 0 0 0
297 1 3 31.1018 -6147.33000000000084 0 0 0 0 0
298 1 3 31.1018 -6142.22000000000025 0 0 0 0 0
299 1 3 31.1018 -6137.11000000000058 0 0 0 0 0
300 1 3 31.1018 -6132 0 0 0 0 0
301 1 3 31.1018 -6126.89000000000033 0 0 0 0 0
302 1 3 31.1018 -6121.78000000000065 0 0 0 0 0
303 1 3 31.1018 -6116.67000000000007 0 0 0 0 0
304 1 3 31.1018 -6111.5600000000004 0 0 0 0 0
305 1 3 31.1018 -6106.45000000000073 0 0 0 0 0
306 1 3 31.1018 -6101.34000000000015 0 0 0 0 0
307 1 3 31.1018 -6096.23000000000047 0 0 0 0 0
308 1 3 31.1018 -6091.1200000000008 0 0 0 0 0
309 1 3 31.1018 -6086.01000000000022 0 0 0 0 0
310 1 3 31.1018 -6080.90000000000055 0 0 0 0 0
311 1 3 31.1018 -6075.78999999999996 0 0 0 0 0
312 1 3 31.1018 -6070.68000000000029 0 0 0 0 0
313 1 3 31.1018 -6065.57000000000062 0 0 0 0 0
314 1 3 31.1018 -6060.46000000000004 0 0 0 0 0
315 1 3 31.1018 -6055.35000000000036 0 0 0 0 0
316 1 3 31.1018 -6050.24000000000069 0 0 0 0 0
317 1 3 31.1018 -6045.13000000000011 0 0 0 0 0
318 1 3 31.1018 -6040.02000000000044 0 0 0 0 0
319 1 3 31.1018 -6034.91000000000076 0 0 0 0 0
320 1 3 31.1018 -6029.80000000000018 0 0 0 0 0
321 1 3 31.1018 -6024.69000000000051 0 0 0 0 0
322 1 3 31.1018 -6019.57999999999993 0 0 0 0 0
323 1 3 31.1018 -6014.47000000000025 0 0 0 0 0
324 1 3 31.1018 -6009.36000000000058 0 0 0 0 0
325 1 3 31.1018 -6004.25 0 0 0 0 0
326 1 3 31.1018 -5999.14000000000033 0 0 0 0 0
327 1 3 31.1018 -5994.03000000000065 0 0 0 0 0
328 1 3 31.1018 -5988.92000000000007 0 0 0 0 0
329 1 3 31.1018 -5983.8100000000004 0 0 0 0 0
330 1 3 31.1018 -5978.70000000000073 0 0 0 0 0
331 1 3 31.1018 -5973.59000000000015 0 0 0 0 0
332 1 3 31.1018 -5968.48000000000047 0 0 0 0 0
333 1 3 31.1018 -5963.3700000000008 0 0 0 0 0
334 1 3 31.1018 -5958.26000000000022 0 0 0 0 0
335 1 3 31.1018 -5953.15000000000055 0 0 0 0 0
336 1 3 31.1018 -5948.03999999999996 0 0 0 0 0
337 1 3 31.1018 -5942.93000000000029 0 0 0 0 0
338 1 3 31.1018 -5937.82000000000062 0 0 0 0 0
339 1 3 31.1018 -5932.71000000000004 0 0 0 0 0
340 1 3 31.1018 -5927.60000000000036 0 0 0 0 0
341 1 3 31.1018 -5922.49000000000069 0 0 0 0 0
342 1 3 31.1018 -5917.38000000000011 0 0 0 0 0
343 1 3 31.1018 -5912.27000000000044 0 0 0 0 0
344 1 3 31.1018 -5907.16000000000076 0 0 0 0 0
345 1 3 31.1018 -5902.05000000000018 0 0 0 0 0
346 1 3 31.1018 -5896.94000000000051 0 0 0 0 0
347 1 3 31.1018 -5891.82999999999993 0 0 0 0 0
348 1 3 31.1018 -5886.72000000000025 0 0 0 0 0
349 1 3 31.1018 -5881.61000000000058 0 0 0 0 0
350 1 3 31.1018 -5876.5 0 0 0 0 0
351 1 3 31.1018 -5871.39000000000033 0 0 0 0 0
352 1 3 31.1018 -5866.28000000000065 0 0 0 0 0
353 1 3 31.1018 -5861.17000000000007 0 0 0 0 0
354 1 3 31.1018 -5856.0600000000004 0 0 0 0 0
355 1 3 31.1018 -5850.95000000000073 0 0 0 0 0
356 1 3 31.1018 -5845.84000000000015 0 0 0 0 0
357 1 3 31.1018 -5840.73000000000047 0 0 0 0 0
358 1 3 31.1018 -5835.6200000000008 0 0 0 0 0
359 1 3 31.1018 -5830.51000000000022 0 0 0 0 0
360 1 3 31.1018 -5825.40000000000055 0 0 0 0 0
361 1 3 31.1018 -5820.28999999999996 0 0 0 0 0
362 1 3 31.1018 -5815.18000000000029 0 0 0 0 0
363 1 3 31.1018 -5810.07000000000062 0 0 0 0 0
364 1 3 31.1018 -5804.96000000000004 0 0 0 0 0
365 1 3 31.1018 -5799.85000000000036 0 0 0 0 0
366 1 3 31.1018 -5794.74000000000069 0 0 0 0 0
367 1 3 31.1018 -5789.63000000000011 0 0 0 0 0
368 1 3 31.1018 -5784.52000000000044 0 0 0 0 0
369 1 3 31.1018 -5779.41000000000076 0 0 0 0 0
370 1 3 31.1018 -5774.30000000000018 0 0 0 0 0
371 1 3 31.1018 -5769.19000000000051 0 0 0 0 0
372 1 3 31.1018 -5764.07999999999993 0 0 0 0 0
373 1 3 31.1018 -5758.97000000000025 0 0 0 0 0
374 1 3 31.1018 -5753.86000000000058 0 0 0 0 0
375 1 3 31.1018 -5748.75 0 0 0 0 0
376 1 3 31.1018 -5743.64000000000033 0 0 0 0 0
377 1 3 31.1018 -5738.53000000000065 0 0 0 0 0
378 1 3 31.1018 -5733.42000000000007 0 0 0 0 0
379 1 3 31.1018 -5728.3100000000004 0 0 0 0 0
380 1 3 31.1018 -5723.20000000000073 0 0 0 0 0
381 1 3 31.1018 -5718.09000000000015 0 0 0 0 0
382 1 3 31.1018 -5712.98000000000047 0 0 0 0 0
383 1 3 31.1018 -5707.8700000000008 0 0 0 0 0
384 1 3 31.1018 -5702.76000000000022 0 0 0 0 0
385 1 3 31.1018 -5697.65000000000055 0 0 0 0 0
386 1 3 31.1018 -5692.53999999999996 0 0 0 0 0
387 1 3 31.1018 -5687.43000000000029 0 0 0 0 0
388 1 3 31.1018 -5682.32000000000062 0 0 0 0 0
389 1 3 31.1018 -5677.21000000000004 0 0 0 0 0
390 1 3 31.1018 -5672.10000000000036 0 0 0 0 0
391 1 3 31.1018 -5666.99000000000069 0 0 0 0 0
392 1 3 31.1018 -5661.88000000000011 0 0 0 0 0
393 1 3 31.1018 -5656.77000000000044 0 0 0 0 0
394 1 3 31.1018 -5651.66000000000076 0 0 0 0 0
395 1 3 31.1018 -5646.55000000000018 0 0 0 0 0
396 1 3 31.1018 -5641.44000000000051 0 0 0 0 0
397 1 3 31.1018 -5636.32999999999993 0 0 0 0 0
398 1 3 31.1018 -5631.22000000000025 0 0 0 0 0
399 1 3 31.1018 -5626.11000000000058 0 0 0 0 0
400 1 3 31.1018 -5621 0 0 0 0 0
401 1 3 31.1018 -5615.89000000000033 0 0 0 0 0
402 1 3 31.1018 -5610.78000000000065 0 0 0 0 0
403 1 3 31.1018 -5605.67000000000007 0 0 0 0 0
404 1 3 31.1018 -5600.5600000000004 0 0 0 0 0
405 1 3 31.1018 -5595.45000000000073 0 0 0 0 0
406 1 3 31.1018 -5590.34000000000015 0 0 0 0 0
407 1 3 31.1018 -5585.23000000000047 0 0 0 0 0
408 1 3 31.1018 -5580.1200000000008 0 0 0 0 0
409 1 3 31.1018 -5575.01000000000022 0 0 0 0 0
410 1 3 31.1018 -5569.90000000000055 0 0 0 0 0
411 1 3 31.1018 -5564.78999999999996 0 0 0 0 0
412 1 3 31.1018 -5559.68000000000029 0 0 0 0 0
413 1 3 31.1018 -5554.57000000000062 0 0 0 0 0
414 1 3 31.1018 -5549.46000000000004 0 0 0 0 0
415 1 3 31.1018 -5544.35000000000036 0 0 0 0 0
416 1 3 31.1018 -5539.24000000000069 0 0 0 0 0
417 1 3 31.1018 -5534.13000000000011 0 0 0 0 0
418 1 3 31.1018 -5529.02000000000044 0 0 0 0 0
419 1 3 31.1018 -5523.91000000000076 0 0 0 0 0
420 1 3 31.1018 -5518.80000000000018 0 0 0 0 0
421 1 3 31.1018 -5513.69000000000051 0 0 0 0 0
422 1 3 31.1018 -5508.57999999999993 0 0 0 0 0
423 1 3 31.1018 -5503.47000000000025 0 0 0 0 0
424 1 3 31.1018 -5498.36000000000058 0 0 0 0 0
425 1 3 31.1018 -5493.25 0 0 0 0 0
426 1 3 31.1018 -5488.14000000000033 0 0 0 0 0
427 1 3 31.1018 -5483.03000000000065 0 0 0 0 0
428 1 3 31.1018 -5477.92000000000007 0 0 0 0 0
429 1 3 31.1018 -5472.8100000000004 0 0 0 0 0
430 1 3 31.1018 -5467.70000000000073 0 0 0 0 0
431 1 3 31.1018 -5462.59000000000015 0 0 0 0 0
432 1 3 31.1018 -5457.48000000000047 0 0 0 0 0
433 1 3 31.1018 -5452.36999999999989 0 0 0 0 0
434 1 3 31.1018 -5447.26000000000022 0 0 0 0 0
435 1 3 31.1018 -5442.15000000000055 0 0 0 0 0
436 1 3 31.1018 -5437.03999999999996 0 0 0 0 0
437 1 3 31.1018 -5431.93000000000029 0 0 0 0 0
438 1 3 31.1018 -5426.82000000000062 0 0 0 0 0
439 1 3 31.1018 -5421.71000000000004 0 0 0 0 0
440 1 3 31.1018 -5416.60000000000036 0 0 0 0 0
441 1 3 31.1018 -5411.49000000000069 0 0 0 0 0
442 1 3 31.1018 -5406.38000000000011 0 0 0 0 0
443 1 3 31.1018 -5401.27000000000044 0 0 0 0 0
444 1 3 31.1018 -5396.16000000000076 0 0 0 0 0
445 1 3 31.1018 -5391.05000000000018 0 0 0 0 0
446 1 3 31.1018 -5385.94000000000051 0 0 0 0 0
447 1 3 31.1018 -5380.82999999999993 0 0 0 0 0
448 1 3 31.1018 -5375.72000000000025 0 0 0 0 0
449 1 3 31.1018 -5370.61000000000058 0 0 0 0 0
450 1 3 31.1018 -5365.5 0 0 0 0 0
451 1 3 31.1018 -5360.39000000000033 0 0 0 0 0
452 1 3 31.1018 -5355.28000000000065 0 0 0 0 0
453 1 3 31.1018 -5350.17000000000007 0 0 0 0 0
454 1 3 31.1018 -5345.0600000000004 0 0 0 0 0
455 1 3 31.1018 -5339.95000000000073 0 0 0 0 0
456 1 3 31.1018 -5334.84000000000015 0 0 0 0 0
457 1 3 31.1018 -5329.73000000000047 0 0 0 0 0
458 1 3 31.1018 -5324.61999999999989 0 0 0 0 0
459 1 3 31.1018 -5319.51000000000022 0 0 0 0 0
460 1 3 31.1018 -5314.40000000000055 0 0 0 0 0
461 1 3 31.1018 -5309.28999999999996 0 0 0 0 0
462 1 3 31.1018 -5304.18000000000029 0 0 0 0 0
463 1 3 31.1018 -5299.07000000000062 0 0 0 0 0
464 1 3 31.1018 -5293.96000000000004 0 0 0 0 0
465 1 3 31.1018 -5288.85000000000036 0 0 0 0 0
466 1 3 31.1018 -5283.74000000000069 0 0 0 0 0
467 1 3 31.1018 -5278.63000000000011 0 0 0 0 0
468 1 3 31.1018 -5273.52000000000044 0 0 0 0 0
469 1 3 31.1018 -5268.41000000000076 0 0 0 0 0
470 1 3 31.1018 -5263.30000000000018 0 0 0 0 0
471 1 3 31.1018 -5258.19000000000051 0 0 0 0 0
472 1 3 31.1018 -5253.07999999999993 0 0 0 0 0
473 1 3 31.1018 -5247.97000000000025 0 0 0 0 0
474 1 3 31.1018 -5242.86000000000058 0 0 0 0 0
475 1 3 31.1018 -5237.75 0 0 0 0 0
476 1 3 31.1018 -5232.64000000000033 0 0 0 0 0
477 1 3 31.1018 -5227.53000000000065 0 0 0 0 0
478 1 3 31.1018 -5222.42000000000007 0 0 0 0 0
479 1 3 31.1018 -5217.3100000000004 0 0 0 0 0
480 1 3 31.1018 -5212.20000000000073 0 0 0 0 0
481 1 3 31.1018 -5207.09000000000015 0 0 0 0 0
482 1 3 31.1018 -5201.98000000000047 0 0 0 0 0
483 1 3 31.1018 -5196.86999999999989 0 0 0 0 0
484 1 3 31.1018 -5191.76000000000022 0 0 0 0 0
485 1 3 31.1018 -5186.65000000000055 0 0 0 0 0
486 1 3 31.1018 -5181.53999999999996 0 0 0 0 0
487 1 3 31.1018 -5176.43000000000029 0 0 0 0 0
488 1 3 31.1018 -5171.32000000000062 0 0 0 0 0
489 1 3 31.1018 -5166.21000000000004 0 0 0 0 0
490 1 3 31.1018 -5161.10000000000036 0 0 0 0 0
491 1 3 31.1018 -5155.99000000000069 0 0 0 0 0
492 1 3 31.1018 -5150.88000000000011 0 0 0 0 0
493 1 3 31.1018 -5145.77000000000044 0 0 0 0 0
494 1 3 31.1018 -5140.66000000000076 0 0 0 0 0
495 1 3 31.1018 -5135.55000000000018 0 0 0 0 0
496 1 3 31.1018 -5130.44000000000051 0 0 0 0 0
497 1 3 31.1018 -5125.32999999999993 0 0 0 0 0
498 1 3 31.1018 -5120.22000000000025 0 0 0 0 0
499 1 3 31.1018 -5115.11000000000058 0 0 0 0 0
500 1 3 31.1018 -5110 0 0 0 0 0
501 1 3 31.1018 -5104.89000000000033 0 0 0 0 0
502 1 3 31.1018 -5099.78000000000065 0 0 0 0 0
503 1 3 31.1018 -5094.67000000000007 0 0 0 0 0
504 1 3 31.1018 -5089.5600000000004 0 0 0 0 0
505 1 3 31.1018 -5084.45000000000073 0 0 0 0 0
506 1 3 31.1018 -5079.34000000000015 0 0 0 0 0
507 1 3 31.1018 -5074.23000000000047 0 0 0 0 0
508 1 3 31.1018 -5069.11999999999989 0 0 0 0 0
509 1 3 31.1018 -5064.01000000000022 0 0 0 0 0
510 1 3 31.1018 -5058.90000000000055 0 0 0 0 0
511 1 3 31.1018 -5053.78999999999996 0 0 0 0 0
512 1 3 31.1018 -5048.68000000000029 0 0 0 0 0
513 1 3 31.1018 -5043.57000000000062 0 0 0 0 0
514 1 3 31.1018 -5038.46000000000004 0 0 0 0 0
515 1 3 31.1018 -5033.35000000000036 0 0 0 0 0
516 1 3 31.1018 -5028.24000000000069 0 0 0 0 0
517 1 3 31.1018 -5023.13000000000011 0 0 0 0 0
518 1 3 31.1018 -5018.02000000000044 0 0 0 0 0
519 1 3 31.1018 -5012.91000000000076 0 0 0 0 0
520 1 3 31.1018 -5007.80000000000018 0 0 0 0 0
521 1 3 31.1018 -5002.69000000000051 0 0 0 0 0
522 1 3 31.1018 -4997.57999999999993 0 0 0 0 0
523 1 3 31.1018 -4992.47000000000025 0 0 0 0 0
524 1 3 31.1018 -4987.36000000000058 0 0 0 0 0
525 1 3 31.1018 -4982.25 0 0 0 0 0
526 1 3 31.1018 -4977.14000000000033 0 0 0 0 0
527 1 3 31.1018 -4972.03000000000065 0 0 0 0 0
528 1 3 31.1018 -4966.92000000000007 0 0 0 0 0
529 1 3 31.1018 -4961.8100000000004 0 0 0 0 0
530 1 3 31.1018 -4956.70000000000073 0 0 0 0 0
531 1 3 31.1018 -4951.59000000000015 0 0 0 0 0
532 1 3 31.1018 -4946.48000000000047 0 0 0 0 0
533 1 3 31.1018 -4941.36999999999989 0 0 0 0 0
534 1 3 31.1018 -4936.26000000000022 0 0 0 0 0
535 1 3 31.1018 -4931.15000000000055 0 0 0 0 0
536 1 3 31.1018 -4926.03999999999996 0 0 0 0 0
537 1 3 31.1018 -4920.93000000000029 0 0 0 0 0
538 1 3 31.1018 -4915.82000000000062 0 0 0 0 0
539 1 3 31.1018 -4910.71000000000004 0 0 0 0 0
540 1 3 31.1018 -4905.60000000000036 0 0 0 0 0
541 1 3 31.1018 -4900.49000000000069 0 0 0 0 0
542 1 3 31.1018 -4895.38000000000011 0 0 0 0 0
543 1 3 31.1018 -4890.27000000000044 0 0 0 0 0
544 1 3 31.1018 -4885.15999999999985 0 0 0 0 0
545 1 3 31.1018 -4880.05000000000018 0 0 0 0 0
546 1 3 31.1018 -4874.94000000000051 0 0 0 0 0
547 1 3 31.1018 -4869.82999999999993 0 0 0 0 0
548 1 3 31.1018 -4864.72000000000025 0 0 0 0 0
549 1 3 31.1018 -4859.61000000000058 0 0 0 0 0
550 1 3 31.1018 -4854.5 0 0 0 0 0
551 1 3 31.1018 -4849.39000000000033 0 0 0 0 0
552 1 3 31.1018 -4844.28000000000065 0 0 0 0 0
553 1 3 31.1018 -4839.17000000000007 0 0 0 0 0
554 1 3 31.1018 -4834.0600000000004 0 0 0 0 0
555 1 3 31.1018 -4828.95000000000073 0 0 0 0 0
556 1 3 31.1018 -4823.84000000000015 0 0 0 0 0
557 1 3 31.1018 -4818.73000000000047 0 0 0 0 0
558 1 3 31.1018 -4813.61999999999989 0 0 0 0 0
559 1 3 31.1018 -4808.51000000000022 0 0 0 0 0
560 1 3 31.1018 -4803.40000000000055 0 0 0 0 0
561 1 3 31.1018 -4798.28999999999996 0 0 0 0 0
562 1 3 31.1018 -4793.18000000000029 0 0 0 0 0
563 1 3 31.1018 -4788.07000000000062 0 0 0 0 0
564 1 3 31.1018 -4782.96000000000004 0 0 0 0 0
565 1 3 31.1018 -4777.85000000000036 0 0 0 0 0
566 1 3 31.1018 -4772.74000000000069 0 0 0 0 0
567 1 3 31.1018 -4767.63000000000011 0 0 0 0 0
568 1 3 31.1018 -4762.52000000000044 0 0 0 0 0
569 1 3 31.1018 -4757.40999999999985 0 0 0 0 0
570 1 3 31.1018 -4752.30000000000018 0 0 0 0 0
571 1 3 31.1018 -4747.19000000000051 0 0 0 0 0
572 1 3 31.1018 -4742.07999999999993 0 0 0 0 0
573 1 3 31.1018 -4736.97000000000025 0 0 0 0 0
574 1 3 31.1018 -4731.86000000000058 0 0 0 0 0
575 1 3 31.1018 -4726.75 0 0 0 0 0
576 1 3 31.1018 -4721.64000000000033 0 0 0 0 0
577 1 3 31.1018 -4716.53000000000065 0 0 0 0 0
578 1 3 31.1018 -4711.42000000000007 0 0 0 0 0
579 1 3 31.1018 -4706.3100000000004 0 0 0 0 0
580 1 3 31.1018 -4701.20000000000073 0 0 0 0 0
581 1 3 31.1018 -4696.09000000000015 0 0 0 0 0
582 1 3 31.1018 -4690.98000000000047 0 0 0 0 0
583 1 3 31.1018 -4685.86999999999989 0 0 0 0 0
584 1 3 31.1018 -4680.76000000000022 0 0 0 0 0
585 1 3 31.1018 -4675.65000000000055 0 0 0 0 0
586 1 3 31.1018 -4670.53999999999996 0 0 0 0 0
587 1 3 31.1018 -4665.43000000000029 0 0 0 0 0
588 1 3 31.1018 -4660.32000000000062 0 0 0 0 0
589 1 3 31.1018 -4655.21000000000004 0 0 0 0 0
590 1 3 31.1018 -4650.10000000000036 0 0 0 0 0
591 1 3 31.1018 -4644.99000000000069 0 0 0 0 0
592 1 3 31.1018 -4639.88000000000011 0 0 0 0 0
593 1 3 31.1018 -4634.77000000000044 0 0 0 0 0
594 1 3 31.1018 -4629.65999999999985 0 0 0 0 0
595 1 3 31.1018 -4624.55000000000018 0 0 0 0 0
596 1 3 31.1018 -4619.44000000000051 0 0 0 0 0
597 1 3 31.1018 -4614.32999999999993 0 0 0 0 0
598 1 3 31.1018 -4609.22000000000025 0 0 0 0 0
599 1 3 31.1018 -4604.11000000000058 0 0 0 0 0
600 1 3 31.1018 -4599 0 0 0 0 0
601 1 3 31.1018 -4593.89000000000033 0 0 0 0 0
602 1 3 31.1018 -4588.78000000000065 0 0 0 0 0
603 1 3 31.1018 -4583.67000000000007 0 0 0 0 0
604 1 3 31.1018 -4578.5600000000004 0 0 0 0 0
605 1 3 31.1018 -4573.45000000000073 0 0 0 0 0
606 1 3 31.1018 -4568.34000000000015 0 0 0 0 0
607 1 3 31.1018 -4563.23000000000047 0 0 0 0 0
608 1 3 31.1018 -4558.11999999999989 0 0 0 0 0
609 1 3 31.1018 -4553.01000000000022 0 0 0 0 0
610 1 3 31.1018 -4547.90000000000055 0 0 0 0 0
611 1 3 31.1018 -4542.78999999999996 0 0 0 0 0
612 1 3 31.1018 -4537.68000000000029 0 0 0 0 0
613 1 3 31.1018 -4532.57000000000062 0 0 0 0 0
614 1 3 31.1018 -4527.46000000000004 0 0 0 0 0
615 1 3 31.1018 -4522.35000000000036 0 0 0 0 0
616 1 3 31.1018 -4517.24000000000069 0 0 0 0 0
617 1 3 31.1018 -4512.13000000000011 0 0 0 0 0
618 1 3 31.1018 -4507.02000000000044 0 0 0 0 0
619 1 3 31.1018 -4501.90999999999985 0 0 0 0 0
620 1 3 31.1018 -4496.80000000000018 0 0 0 0 0
621 1 3 31.1018 -4491.69000000000051 0 0 0 0 0
622 1 3 31.1018 -4486.57999999999993 0 0 0 0 0
623 1 3 31.1018 -4481.47000000000025 0 0 0 0 0
624 1 3 31.1018 -4476.36000000000058 0 0 0 0 0
625 1 3 31.1018 -4471.25 0 0 0 0 0
626 1 3 31.1018 -4466.14000000000033 0 0 0 0 0
627 1 3 31.1018 -4461.03000000000065 0 0 0 0 0
628 1 3 31.1018 -4455.92000000000007 0 0 0 0 0
629 1 3 31.1018 -4450.8100000000004 0 0 0 0 0
630 1 3 31.1018 -4445.70000000000073 0 0 0 0 0
631 1 3 31.1018 -4440.59000000000015 0 0 0 0 0
632 1 3 31.1018 -4435.48000000000047 0 0 0 0 0
633 1 3 31.1018 -4430.36999999999989 0 0 0 0 0
634 1 3 31.1018 -4425.26000000000022 0 0 0 0 0
635 1 3 31.1018 -4420.15000000000055 0 0 0 0 0
636 1 3 31.1018 -4415.03999999999996 0 0 0 0 0
637 1 3 31.1018 -4409.93000000000029 0 0 0 0 0
638 1 3 31.1018 -4404.82000000000062 0 0 0 0 0
639 1 3 31.1018 -4399.71000000000004 0 0 0 0 0
640 1 3 31.1018 -4394.60000000000036 0 0 0 0 0
641 1 3 31.1018 -4389.49000000000069 0 0 0 0 0