ITEM: TIMESTEP
300000
ITEM: NUMBER OF ATOMS
5001
ITEM: BOX BOUNDS pp pp pp
-7.9500000000000000e+03 7.9500000000000000e+03
-1.0000000000000000e+02 1.0000000000000000e+02
-1.0000000000000000e+02 1.0000000000000000e+02
ITEM: ATOMS id type diameter mass xu yu zu fx fy fz
1 1 3 31.1018 -7950 0 0 0 0 0
2 1 3 31.1018 -7944.69999999999982 0 0 0 0 0
3 1 3 31.1018 -7939.39999999999964 0 0 0 0 0
4 1 3 31.1018 -7934.09999999999945 0 0 0 0 0
5 1 3 31.1018 -7928.80000000000018 0 0 0 0 0
6 1 3 31.1018 -7923.5 0 0 0 0 0
7 1 3 31.1018 -7918.19999999999982 0 0 0 0 0
8 1 3 31.1018 -7912.89999999999964 0 0 0 0 0
9 1 3 31.1018 -7907.59999999999945 0 0 0 0 0
10 1 3 31.1018 -7902.30000000000018 0 0 0 0 0
11 1 3 31.1018 -7897 0 0 0 0 0
12 1 3 31.1018 -7891.69999999999982 0 0 0 0 0
13 1 3 31.1018 -7886.39999999999964 0 0 0 0 0
14 1 3 31.1018 -7881.09999999999945 0 0 0 0 0
15 1 3 31.1018 -7875.80000000000018 0 0 0 0 0
16 1 3 31.1018 -7870.5 0 0 0 0 0
17 1 3 31.1018 -7865.19999999999982 0 0 0 0 0
18 1 3 31.1018 -7859.89999999999964 0 0 0 0 0
19 1 3 31.1018 -7854.59999999999945 0 0 0 0 0
20 1 3 31.1018 -7849.30000000000018 0 0 0 0 0
21 1 3 31.1018 -7844 0 0 0 0 0
22 1 3 31.1018 -7838.69999999999982 0 0 0 0 0
23 1 3 31.1018 -7833.39999999999964 0 0 0 0 0
24 1 3 31.1018 -7828.09999999999945 0 0 0 0 0
25 1 3 31.1018 -7822.80000000000018 0 0 0 0 0
26 1 3 31.1018 -7817.5 0 0 0 0 0
27 1 3 31.1018 -7812.19999999999982 0 0 0 0 0
28 1 3 31.1018 -7806.89999999999964 0 0 0 0 0
29 1 3 31.1018 -7801.59999999999945 0 0 0 0 0
30 1 3 31.1018 -7796.30000000000018 0 0 0 0 0
31 1 3 31.1018 -7791 0 0 0 0 0
32 1 3 31.1018 -7785.69999999999982 0 0 0 0 0
33 1 3 31.1018 -7780.39999999999964 0 0 0 0 0
34 1 3 31.1018 -7775.09999999999945 0 0 0 0 0
35 1 3 31.1018 -7769.80000000000018 0 0 0 0 0
36 1 3 31.1018 -7764.5 0 0 0 0 0
37 1 3 31.1018 -7759.19999999999982 0 0 0 0 0
38 1 3 31.1018 -7753.89999999999964 0 0 0 0 0
39 1 3 31.1018 -7748.59999999999945 0 0 0 0 0
40 1 3 31.1018 -7743.30000000000018 0 0 0 0 0
41 1 3 31.1018 -7738 0 0 0 0 0
42 1 3 31.1018 -7732.69999999999982 0 0 0 0 0
43 1 3 31.1018 -7727.39999999999964 0 0 0 0 0
44 1 3 31.1018 -7722.09999999999945 0 0 0 0 0
45 1 3 31.1018 -7716.80000000000018 0 0 0 0 0
46 1 3 31.1018 -7711.5 0 0 0 0 0
47 1 3 31.1018 -7706.19999999999982 0 0 0 0 0
48 1 3 31.1018 -7700.89999999999964 0 0 0 0 0
49 1 3 31.1018 -7695.59999999999945 0 0 0 0 0
50 1 3 31.1018 -7690.30000000000018 0 0 0 0 0
51 1 3 31.1018 -7685 0 0 0 0 0
52 1 3 31.1018 -7679.69999999999982 0 0 0 0 0
53 1 3 31.1018 -7674.39999999999964 0 0 0 0 0
54 1 3 31.1018 -7669.09999999999945 0 0 0 0 0
55 1 3 31.1018 -7663.80000000000018 0 0 0 0 0
56 1 3 31.1018 -7658.5 0 0 0 0 0
57 1 3 31.1018 -7653.19999999999982 0 0 0 0 0
58 1 3 31.1018 -7647.89999999999964 0 0 0 0 0
59 1 3 31.1018 -7642.59999999999945 0 0 0 0 0
60 1 3 31.1018 -7637.30000000000018 0 0 0 0 0
61 1 3 31.1018 -7632 0 0 0 0 0
62 1 3 31.1018 -7626.69999999999982 0 0 0 0 0
63 1 3 31.1018 -7621.39999999999964 0 0 0 0 0
64 1 3 31.1018 -7616.09999999999945 0 0 0 0 0
65 1 3 31.1018 -7610.80000000000018 0 0 0 0 0
66 1 3 31.1018 -7605.5 0 0 0 0 0
67 1 3 31.1018 -7600.19999999999982 0 0 0 0 0
68 1 3 31.1018 -7594.89999999999964 0 0 0 0 0
69 1 3 31.1018 -7589.59999999999945 0 0 0 0 0
70 1 3 31.1018 -7584.30000000000018 0 0 0 0 0
71 1 3 31.1018 -7579 0 0 0 0 0
72 1 3 31.1018 -7573.69999999999982 0 0 0 0 0
73 1 3 31.1018 -7568.39999999999964 0 0 0 0 0
74 1 3 31.1018 -7563.09999999999945 0 0 0 0 0
75 1 3 31.1018 -7557.80000000000018 0 0 0 0 0
76 1 3 31.1018 -7552.5 0 0 0 0 0
77 1 3 31.1018 -7547.19999999999982 0 0 0 0 0
78 1 3 31.1018 -7541.89999999999964 0 0 0 0 0
79 1 3 31.1018 -7536.59999999999945 0 0 0 0 0
80 1 3 31.1018 -7531.30000000000018 0 0 0 0 0
81 1 3 31.1018 -7526 0 0 0 0 0
82 1 3 31.1018 -7520.69999999999982 0 0 0 0 0
83 1 3 31.1018 -7515.39999999999964 0 0 0 0 0
84 1 3 31.1018 -7510.09999999999945 0 0 0 0 0
85 1 3 31.1018 -7504.80000000000018 0 0 0 0 0
86 1 3 31.1018 -7499.5 0 0 0 0 0
87 1 3 31.1018 -7494.19999999999982 0 0 0 0 0
88 1 3 31.1018 -7488.89999999999964 0 0 0 0 0
89 1 3 31.1018 -7483.59999999999945 0 0 0 0 0
90 1 3 31.1018 -7478.30000000000018 0 0 0 0 0
91 1 3 31.1018 -7473 0 0 0 0 0
92 1 3 31.1018 -7467.69999999999982 0 0 0 0 0
93 1 3 31.1018 -7462.39999999999964 0 0 0 0 0
94 1 3 31.1018 -7457.09999999999945 0 0 0 0 0
95 1 3 31.1018 -7451.80000000000018 0 0 0 0 0
96 1 3 31.1018 -7446.5 0 0 0 0 0
97 1 3 31.1018 -7441.19999999999982 0 0 0 0 0
98 1 3 31.1018 -7435.89999999999964 0 0 0 0 0
99 1 3 31.1018 -7430.59999999999945 0 0 0 0 0
100 1 3 31.1018 -7425.30000000000018 0 0 0 0 0
101 1 3 31.1018 -7420 0 0 0 0 0
102 1 3 31.1018 -7414.69999999999982 0 0 0 0 0
103 1 3 31.1018 -7409.39999999999964 0 0 0 0 0
104 1 3 31.1018 -7404.09999999999945 0 0 0 0 0
105 1 3 31.1018 -7398.80000000000018 0 0 0 0 0
106 1 3 31.1018 -7393.5 0 0 0 0 0
107 1 3 31.1018 -7388.19999999999982 0 0 0 0 0
108 1 3 31.1018 -7382.89999999999964 0 0 0 0 0
109 1 3 31.1018 -7377.59999999999945 0 0 0 0 0
110 1 3 31.1018 -7372.30000000000018 0 0 0 0 0
111 1 3 31.1018 -7367 0 0 0 0 0
112 1 3 31.1018 -7361.69999999999982 0 0 0 0 0
113 1 3 31.1018 -7356.39999999999964 0 0 0 0 0
114 1 3 31.1018 -7351.09999999999945 0 0 0 0 0
115 1 3 31.1018 -7345.80000000000018 0 0 0 0 0
116 1 3 31.1018 -7340.5 0 0 0 0 0
117 1 3 31.1018 -7335.19999999999982 0 0 0 0 0
118 1 3 31.1018 -7329.89999999999964 0 0 0 0 0
119 1 3 31.1018 -7324.59999999999945 0 0 0 0 0
120 1 3 31.1018 -7319.30000000000018 0 0 0 0 0
121 1 3 31.1018 -7314 0 0 0 0 0
122 1 3 31.1018 -7308.69999999999982 0 0 0 0 0
123 1 3 31.1018 -7303.39999999999964 0 0 0 0 0
124 1 3 31.1018 -7298.09999999999945 0 0 0 0 0
125 1 3 31.1018 -7292.80000000000018 0 0 0 0 0
126 1 3 31.1018 -7287.5 0 0 0 0 0
127 1 3 31.1018 -7282.19999999999982 0 0 0 0 0
128 1 3 31.1018 -7276.89999999999964 0 0 0 0 0
129 1 3 31.1018 -7271.59999999999945 0 0 0 0 0
130 1 3 31.1018 -7266.30000000000018 0 0 0 0 0
131 1 3 31.1018 -7261 0 0 0 0 0
132 1 3 31.1018 -7255.69999999999982 0 0 0 0 0
133 1 3 31.1018 -7250.39999999999964 0 0 0 0 0
134 1 3 31.1018 -7245.09999999999945 0 0 0 0 0
135 1 3 31.1018 -7239.80000000000018 0 0 0 0 0
136 1 3 31.1018 -7234.5 0 0 0 0 0
137 1 3 31.1018 -7229.19999999999982 0 0 0 0 0
138 1 3 31.1018 -7223.89999999999964 0 0 0 0 0
139 1 3 31.1018 -7218.59999999999945 0 0 0 0 0
140 1 3 31.1018 -7213.30000000000018 0 0 0 0 0
141 1 3 31.1018 -7208 0 0 0 0 0
142 1 3 31.1018 -7202.69999999999982 0 0 0 0 0
143 1 3 31.1018 -7197.39999999999964 0 0 0 0 0
144 1 3 31.1018 -7192.09999999999945 0 0 0 0 0
145 1 3 31.1018 -7186.80000000000018 0 0 0 0 0
146 1 3 31.1018 -7181.5 0 0 0 0 0
147 1 3 31.1018 -7176.19999999999982 0 0 0 0 0
148 1 3 31.1018 -7170.89999999999964 0 0 0 0 0
149 1 3 31.1018 -7165.59999999999945 0 0 0 0 0
150 1 3 31.1018 -7160.30000000000018 0 0 0 0 0
151 1 3 31.1018 -7155 0 0 0 0 0
152 1 3 31.1018 -7149.69999999999982 0 0 0 0 0
153 1 3 31.1018 -7144.39999999999964 0 0 0 0 0
154 1 3 31.1018 -7139.09999999999945 0 0 0 0 0
155 1 3 31.1018 -7133.80000000000018 0 0 0 0 0
156 1 3 31.1018 -7128.5 0 0 0 0 0
157 1 3 31.1018 -7123.19999999999982 0 0 0 0 0
158 1 3 31.1018 -7117.89999999999964 0 0 0 0 0
159 1 3 31.1018 -7112.59999999999945 0 0 0 0 0
160 1 3 31.1018 -7107.30000000000018 0 0 0 0 0
161 1 3 31.1018 -7102 0 0 0 0 0
162 1 3 31.1018 -7096.69999999999982 0 0 0 0 0
163 1 3 31.1018 -7091.39999999999964 0 0 0 0 0
164 1 3 31.1018 -7086.09999999999945 0 0 0 0 0
165 1 3 31.1018 -7080.80000000000018 0 0 0 0 0
166 1 3 31.1018 -7075.5 0 0 0 0 0
167 1 3 31.1018 -7070.19999999999982 0 0 0 0 0
168 1 3 31.1018 -7064.89999999999964 0 0 0 0 0
169 1 3 31.1018 -7059.59999999999945 0 0 0 0 0
170 1 3 31.1018 -7054.30000000000018 0 0 0 0 0
171 1 3 31.1018 -7049 0 0 0 0 0
172 1 3 31.1018 -7043.69999999999982 0 0 0 0 0
173 1 3 31.1018 -7038.39999999999964 0 0 0 0 0
174 1 3 31.1018 -7033.09999999999945 0 0 0 0 0
175 1 3 31.1018 -7027.80000000000018 0 0 0 0 0
176 1 3 31.1018 -7022.5 0 0 0 0 0
177 1 3 31.1018 -7017.19999999999982 0 0 0 0 0
178 1 3 31.1018 -7011.89999999999964 0 0 0 0 0
179 1 3 31.1018 -7006.59999999999945 0 0 0 0 0
180 1 3 31.1018 -7001.30000000000018 0 0 0 0 0
181 1 3 31.1018 -6996 0 0 0 0 0
182 1 3 31.1018 -6990.69999999999982 0 0 0 0 0
183 1 3 31.1018 -6985.39999999999964 0 0 0 0 0
184 1 3 31.1018 -6980.09999999999945 0 0 0 0 0
185 1 3 31.1018 -6974.80000000000018 0 0 0 0 0
186 1 3 31.1018 -6969.5 0 0 0 0 0
187 1 3 31.1018 -6964.19999999999982 0 0 0 0 0
188 1 3 31.1018 -6958.89999999999964 0 0 0 0 0
189 1 3 31.1018 -6953.59999999999945 0 0 0 0 0
190 1 3 31.1018 -6948.30000000000018 0 0 0 0 0
191 1 3 31.1018 -6943 0 0 0 0 0
192 1 3 31.1018 -6937.69999999999982 0 0 0 0 0
193 1 3 31.1018 -6932.39999999999964 0 0 0 0 0
194 1 3 31.1018 -6927.09999999999945 0 0 0 0 0
195 1 3 31.1018 -6921.80000000000018 0 0 0 0 0
196 1 3 31.1018 -6916.5 0 0 0 0 0
197 1 3 31.1018 -6911.19999999999982 0 0 0 0 0
198 1 3 31.1018 -6905.89999999999964 0 0 0 0 0
199 1 3 31.1018 -6900.59999999999945 0 0 0 0 0
200 1 3 31.1018 -6895.30000000000018 0 0 0 0 0
201 1 3 31.1018 -6890 0 0 0 0 0
202 1 3 31.1018 -6884.69999999999982 0 0 0 0 0
203 1 3 31.1018 -6879.39999999999964 0 0 0 0 0
204 1 3 31.1018 -6874.09999999999945 0 0 0 0 0
205 1 3 31.1018 -6868.80000000000018 0 0 0 0 0
206 1 3 31.1018 -6863.5 0 0 0 0 0
207 1 3 31.1018 -6858.19999999999982 0 0 0 0 0
208 1 3 31.1018 -6852.89999999999964 0 0 0 0 0
209 1 3 31.1018 -6847.59999999999945 0 0 0 0 0
210 1 3 31.1018 -6842.30000000000018 0 0 0 0 0
211 1 3 31.1018 -6837 0 0 0 0 0
212 1 3 31.1018 -6831.69999999999982 0 0 0 0 0
213 1 3 31.1018 -6826.39999999999964 0 0 0 0 0
214 1 3 31.1018 -6821.09999999999945 0 0 0 0 0
215 1 3 31.1018 -6815.80000000000018 0 0 0 0 0
216 1 3 31.1018 -6810.5 0 0 0 0 0
217 1 3 31.1018 -6805.19999999999982 0 0 0 0 0
218 1 3 31.1018 -6799.89999999999964 0 0 0 0 0
219 1 3 31.1018 -6794.59999999999945 0 0 0 0 0
220 1 3 31.1018 -6789.30000000000018 0 0 0 0 0
221 1 3 31.1018 -6784 0 0 0 0 0
222 1 3 31.1018 -6778.69999999999982 0 0 0 0 0
223 1 3 31.1018 -6773.39999999999964 0 0 0 0 0
224 1 3 31.1018 -6768.09999999999945 0 0 0 0 0
225 1 3 31.1018 -6762.80000000000018 0 0 0 0 0
226 1 3 31.1018 -6757.5 0 0 0 0 0
227 1 3 31.1018 -6752.19999999999982 0 0 0 0 0
228 1 3 31.1018 -6746.89999999999964 0 0 0 0 0
229 1 3 31.1018 -6741.59999999999945 0 0 0 0 0
230 1 3 31.1018 -6736.30000000000018 0 0 0 0 0
231 1 3 31.1018 -6731 0 0 0 0 0
232 1 3 31.1018 -6725.69999999999982 0 0 0 0 0
233 1 3 31.1018 -6720.39999999999964 0 0 0 0 0
234 1 3 31.1018 -6715.09999999999945 0 0 0 0 0
235 1 3 31.1018 -6709.80000000000018 0 0 0 0 0
236 1 3 31.1018 -6704.5 0 0 0 0 0
237 1 3 31.1018 -6699.19999999999982 0 0 0 0 0
238 1 3 31.1018 -6693.89999999999964 0 0 0 0 0
239 1 3 31.1018 -6688.59999999999945 0 0 0 0 0
240 1 3 31.1018 -6683.30000000000018 0 0 0 0 0
241 1 3 31.1018 -6678 0 0 0 0 0
242 1 3 31.1018 -6672.69999999999982 0 0 0 0 0
243 1 3 31.1018 -6667.39999999999964 0 0 0 0 0
244 1 3 31.1018 -6662.09999999999945 0 0 0 0 0
245 1 3 31.1018 -6656.80000000000018 0 0 0 0 0
246 1 3 31.1018 -6651.5 0 0 0 0 0
247 1 3 31.1018 -6646.19999999999982 0 0 0 0 0
248 1 3 31.1018 -6640.89999999999964 0 0 0 0 0
249 1 3 31.1018 -6635.59999999999945 0 0 0 0 0
250 1 3 31.1018 -6630.30000000000018 0 0 0 0 0
251 1 3 31.1018 -6625 0 0 0 0 0
252 1 3 31.1018 -6619.69999999999982 0 0 0 0 0
253 1 3 31.1018 -6614.39999999999964 0 0 0 0 0
254 1 3 31.1018 -6609.09999999999945 0 0 0 0 0
255 1 3 31.1018 -6603.80000000000018 0 0 0 0 0
256 1 3 31.1018 -6598.5 0 0 0 0 0
257 1 3 31.1018 -6593.19999999999982 0 0 0 0 0
258 1 3 31.1018 -6587.89999999999964 0 0 0 0 0
259 1 3 31.1018 -6582.59999999999945 0 0 0 0 0
260 1 3 31.1018 -6577.30000000000018 0 0 0 0 0
261 1 3 31.1018 -6572 0 0 0 0 0
262 1 3 31.1018 -6566.69999999999982 0 0 0 0 0
263 1 3 31.1018 -6561.39999999999964 0 0 0 0 0
264 1 3 31.1018 -6556.09999999999945 0 0 0 0 0
265 1 3 31.1018 -6550.80000000000018 0 0 0 0 0
266 1 3 31.1018 -6545.5 0 0 0 0 0
267 1 3 31.1018 -6540.19999999999982 0 0 0 0 0
268 1 3 31.1018 -6534.89999999999964 0 0 0 0 0
269 1 3 31.1018 -6529.59999999999945 0 0 0 0 0
270 1 3 31.1018 -6524.30000000000018 0 0 0 0 0
271 1 3 31.1018 -6519 0 0 0 0 0
272 1 3 31.1018 -6513.69999999999982 0 0 0 0 0
273 1 3 31.1018 -6508.39999999999964 0 0 0 0 0
274 1 3 31.1018 -6503.09999999999945 0 0 0 0 0
275 1 3 31.1018 -6497.80000000000018 0 0 0 0 0
276 1 3 31.1018 -6492.5 0 0 0 0 0
277 1 3 31.1018 -6487.19999999999982 0 0 0 0 0
278 1 3 31.1018 -6481.89999999999964 0 0 0 0 0
279 1 3 31.1018 -6476.59999999999945 0 0 0 0 0
280 1 3 31.1018 -6471.30000000000018 0 0 0 0 0
281 1 3 31.1018 -6466 0 0 0 0 0
282 1 3 31.1018 -6460.69999999999982 0 0 0 0 0
283 1 3 31.1018 -6455.39999999999964 0 0 0 0 0
284 1 3 31.1018 -6450.09999999999945 0 0 0 0 0
285 1 3 31.1018 -6444.80000000000018 0 0 0 0 0
286 1 3 31.1018 -6439.5 0 0 0 0 0
287 1 3 31.1018 -6434.19999999999982 0 0 0 0 0
288 1 3 31.1018 -6428.89999999999964 0 0 0 0 0
289 1 3 31.1018 -6423.59999999999945 0 0 0 0 0
290 1 3 31.1018 -6418.30000000000018 0 0 0 0 0
291 1 3 31.1018 -6413 0 0 0 0 0
292 1 3 31.1018 -6407.69999999999982 0 0 0 0 0
293 1 3 31.1018 -6402.39999999999964 0 0 0 0 0
294 1 3 31.1018 -6397.09999999999945 0 0 0 0 0
295 1 3 31.1018 -6391.80000000000018 0 0 0 0 0
296 1 3 31.1018 -6386.5 0 0 0 0 0
297 1 3 31.1018 -6381.19999999999982 0 0 0 0 0
298 1 3 31.1018 -6375.89999999999964 0 0 0 0 0
299 1 3 31.1018 -6370.59999999999945 0 0 0 0 0
300 1 3 31.1018 -6365.30000000000018 0 0 0 0 0
301 1 3 31.1018 -6360 0 0 0 0 0
302 1 3 31.1018 -6354.69999999999982 0 0 0 0 0
303 1 3 31.1018 -6349.39999999999964 0 0 0 0 0
304 1 3 31.1018 -6344.09999999999945 0 0 0 0 0
305 1 3 31.1018 -6338.80000000000018 0 0 0 0 0
306 1 3 31.1018 -6333.5 0 0 0 0 0
307 1 3 31.1018 -6328.19999999999982 0 0 0 0 0
308 1 3 31.1018 -6322.89999999999964 0 0 0 0 0
309 1 3 31.1018 -6317.59999999999945 0 0 0 0 0
310 1 3 31.1018 -6312.30000000000018 0 0 0 0 0
311 1 3 31.1018 -6307 0 0 0 0 0
312 1 3 31.1018 -6301.69999999999982 0 0 0 0 0
313 1 3 31.1018 -6296.39999999999964 0 0 0 0 0
314 1 3 31.1018 -6291.09999999999945 0 0 0 0 0
315 1 3 31.1018 -6285.80000000000018 0 0 0 0 0
316 1 3 31.1018 -6280.5 0 0 0 0 0
317 1 3 31.1018 -6275.19999999999982 0 0 0 0 0
318 1 3 31.1018 -6269.89999999999964 0 0 0 0 0
319 1 3 31.1018 -6264.59999999999945 0 0 0 0 0
320 1 3 31.1018 -6259.30000000000018 0 0 0 0 0
321 1 3 31.1018 -6254 0 0 0 0 0
322 1 3 31.1018 -6248.69999999999982 0 0 0 0 0
323 1 3 31.1018 -6243.39999999999964 0 0 0 0 0
324 1 3 31.1018 -6238.09999999999945 0 0 0 0 0
325 1 3 31.1018 -6232.80000000000018 0 0 0 0 0
326 1 3 31.1018 -6227.5 0 0 0 0 0
327 1 3 31.1018 -6222.19999999999982 0 0 0 0 0
328 1 3 31.1018 -6216.89999999999964 0 0 0 0 0
329 1 3 31.1018 -6211.59999999999945 0 0 0 0 0
330 1 3 31.1018 -6206.30000000000018 0 0 0 0 0
331 1 3 31.1018 -6201 0 0 0 0 0
332 1 3 31.1018 -6195.69999999999982 0 0 0 0 0
333 1 3 31.1018 -6190.39999999999964 0 0 0 0 0
334 1 3 31.1018 -6185.09999999999945 0 0 0 0 0
335 1 3 31.1018 -6179.80000000000018 0 0 0 0 0
336 1 3 31.1018 -6174.5 0 0 0 0 0
337 1 3 31.1018 -6169.19999999999982 0 0 0 0 0
338 1 3 31.1018 -6163.89999999999964 0 0 0 0 0
339 1 3 31.1018 -6158.59999999999945 0 0 0 0 0
340 1 3 31.1018 -6153.30000000000018 0 0 0 0 0
341 1 3 31.1018 -6148 0 0 0 0 0
342 1 3 31.1018 -6142.69999999999982 0 0 0 0 0
343 1 3 31.1018 -6137.39999999999964 0 0 0 0 0
344 1 3 31.1018 -6132.09999999999945 0 0 0 0 0
345 1 3 31.1018 -6126.80000000000018 0 0 0 0 0
346 1 3 31.1018 -6121.5 0 0 0 0 0
347 1 3 31.1018 -6116.19999999999982 0 0 0 0 0
348 1 3 31.1018 -6110.89999999999964 0 0 0 0 0
349 1 3 31.1018 -6105.59999999999945 0 0 0 0 0
350 1 3 31.1018 -6100.30000000000018 0 0 0 0 0
351 1 3 31.1018 -6095 0 0 0 0 0
352 1 3 31.1018 -6089.69999999999982 0 0 0 0 0
353 1 3 31.1018 -6084.39999999999964 0 0 0 0 0
354 1 3 31.1018 -6079.09999999999945 0 0 0 0 0
355 1 3 31.1018 -6073.80000000000018 0 0 0 0 0
356 1 3 31.1018 -6068.5 0 0 0 0 0
357 1 3 31.1018 -6063.19999999999982 0 0 0 0 0
358 1 3 31.1018 -6057.89999999999964 0 0 0 0 0
359 1 3 31.1018 -6052.59999999999945 0 0 0 0 0
360 1 3 31.1018 -6047.30000000000018 0 0 0 0 0
361 1 3 31.1018 -6042 0 0 0 0 0
362 1 3 31.1018 -6036.69999999999982 0 0 0 0 0
363 1 3 31.1018 -6031.39999999999964 0 0 0 0 0
364 1 3 31.1018 -6026.09999999999945 0 0 0 0 0
365 1 3 31.1018 -6020.80000000000018 0 0 0 0 0
366 1 3 31.1018 -6015.5 0 0 0 0 0
367 1 3 31.1018 -6010.19999999999982 0 0 0 0 0
368 1 3 31.1018 -6004.89999999999964 0 0 0 0 0
369 1 3 31.1018 -5999.59999999999945 0 0 0 0 0
370 1 3 31.1018 -5994.30000000000018 0 0 0 0 0
371 1 3 31.1018 -5989 0 0 0 0 0
372 1 3 31.1018 -5983.69999999999982 0 0 0 0 0
373 1 3 31.1018 -5978.39999999999964 0 0 0 0 0
374 1 3 31.1018 -5973.09999999999945 0 0 0 0 0
375 1 3 31.1018 -5967.80000000000018 0 0 0 0 0
376 1 3 31.1018 -5962.5 0 0 0 0 0
377 1 3 31.1018 -5957.19999999999982 0 0 0 0 0
378 1 3 31.1018 -5951.89999999999964 0 0 0 0 0
379 1 3 31.1018 -5946.59999999999945 0 0 0 0 0
380 1 3 31.1018 -5941.30000000000018 0 0 0 0 0
381 1 3 31.1018 -5936 0 0 0 0 0
382 1 3 31.1018 -5930.69999999999982 0 0 0 0 0
383 1 3 31.1018 -5925.39999999999964 0 0 0 0 0
384 1 3 31.1018 -5920.09999999999945 0 0 0 0 0
385 1 3 31.1018 -5914.80000000000018 0 0 0 0 0
386 1 3 31.1018 -5909.5 0 0 0 0 0
387 1 3 31.1018 -5904.19999999999982 0 0 0 0 0
388 1 3 31.1018 -5898.89999999999964 0 0 0 0 0
389 1 3 31.1018 -5893.59999999999945 0 0 0 0 0
390 1 3 31.1018 -5888.30000000000018 0 0 0 0 0
391 1 3 31.1018 -5883 0 0 0 0 0
392 1 3 31.1018 -5877.69999999999982 0 0 0 0 0
393 1 3 31.1018 -5872.39999999999964 0 0 0 0 0
394 1 3 31.1018 -5867.09999999999945 0 0 0 0 0
395 1 3 31.1018 -5861.80000000000018 0 0 0 0 0
396 1 3 31.1018 -5856.5 0 0 0 0 0
397 1 3 31.1018 -5851.19999999999982 0 0 0 0 0
398 1 3 31.1018 -5845.89999999999964 0 0 0 0 0
399 1 3 31.1018 -5840.59999999999945 0 0 0 0 0
400 1 3 31.1018 -5835.30000000000018 0 0 0 0 0
401 1 3 31.1018 -5830 0 0 0 0 0
402 1 3 31.1018 -5824.69999999999982 0 0 0 0 0
403 1 3 31.1018 -5819.39999999999964 0 0 0 0 0
404 1 3 31.1018 -5814.09999999999945 0 0 0 0 0
405 1 3 31.1018 -5808.80000000000018 0 0 0 0 0
406 1 3 31.1018 -5803.5 0 0 0 0 0
407 1 3 31.1018 -5798.19999999999982 0 0 0 0 0
408 1 3 31.1018 -5792.89999999999964 0 0 0 0 0
409 1 3 31.1018 -5787.59999999999945 0 0 0 0 0
410 1 3 31.1018 -5782.30000000000018 0 0 0 0 0
411 1 3 31.1018 -5777 0 0 0 0 0
412 1 3 31.1018 -5771.69999999999982 0 0 0 0 0
413 1 3 31.1018 -5766.39999999999964 0 0 0 0 0
414 1 3 31.1018 -5761.09999999999945 0 0 0 0 0
415 1 3 31.1018 -5755.80000000000018 0 0 0 0 0
416 1 3 31.1018 -5750.5 0 0 0 0 0
417 1 3 31.1018 -5745.19999999999982 0 0 0 0 0
418 1 3 31.1018 -5739.89999999999964 0 0 0 0 0
419 1 3 31.1018 -5734.59999999999945 0 0 0 0 0
420 1 3 31.1018 -5729.30000000000018 0 0 0 0 0
421 1 3 31.1018 -5724 0 0 0 0 0
422 1 3 31.1018 -5718.69999999999982 0 0 0 0 0
423 1 3 31.1018 -5713.39999999999964 0 0 0 0 0
424 1 3 31.1018 -5708.09999999999945 0 0 0 0 0
425 1 3 31.1018 -5702.80000000000018 0 0 0 0 0
426 1 3 31.1018 -5697.5 0 0 0 0 0
427 1 3 31.1018 -5692.19999999999982 0 0 0 0 0
428 1 3 31.1018 -5686.89999999999964 0 0 0 0 0
429 1 3 31.1018 -5681.59999999999945 0 0 0 0 0
430 1 3 31.1018 -5676.30000000000018 0 0 0 0 0
431 1 3 31.1018 -5671 0 0 0 0 0
432 1 3 31.1018 -5665.69999999999982 0 0 0 0 0
433 1 3 31.1018 -5660.39999999999964 0 0 0 0 0
434 1 3 31.1018 -5655.09999999999945 0 0 0 0 0
435 1 3 31.1018 -5649.80000000000018 0 0 0 0 0
436 1 3 31.1018 -5644.5 0 0 0 0 0
437 1 3 31.1018 -5639.19999999999982 0 0 0 0 0
438 1 3 31.1018 -5633.89999999999964 0 0 0 0 0
439 1 3 31.1018 -5628.59999999999945 0 0 0 0 0
440 1 3 31.1018 -5623.30000000000018 0 0 0 0 0
441 1 3 31.1018 -5618 0 0 0 0 0
442 1 3 31.1018 -5612.69999999999982 0 0 0 0 0
443 1 3 31.1018 -5607.39999999999964 0 0 0 0 0
444 1 3 31.1018 -5602.09999999999945 0 0 0 0 0
445 1 3 31.1018 -5596.80000000000018 0 0 0 0 0
446 1 3 31.1018 -5591.5 0 0 0 0 0
447 1 3 31.1018 -5586.19999999999982 0 0 0 0 0
448 1 3 31.1018 -5580.89999999999964 0 0 0 0 0
449 1 3 31.1018 -5575.59999999999945 0 0 0 0 0
450 1 3 31.1018 -5570.30000000000018 0 0 0 0 0
451 1 3 31.1018 -5565 0 0 0 0 0
452 1 3 31.1018 -5559.69999999999982 0 0 0 0 0
453 1 3 31.1018 -5554.39999999999964 0 0 0 0 0
454 1 3 31.1018 -5549.09999999999945 0 0 0 0 0
455 1 3 31.1018 -5543.80000000000018 0 0 0 0 0
456 1 3 31.1018 -5538.5 0 0 0 0 0
457 1 3 31.1018 -5533.19999999999982 0 0 0 0 0
458 1 3 31.1018 -5527.89999999999964 0 0 0 0 0
459 1 3 31.1018 -5522.59999999999945 0 0 0 0 0
460 1 3 31.1018 -5517.30000000000018 0 0 0 0 0
461 1 3 31.1018 -5512 0 0 0 0 0
462 1 3 31.1018 -5506.69999999999982 0 0 0 0 0
463 1 3 31.1018 -5501.39999999999964 0 0 0 0 0
464 1 3 31.1018 -5496.09999999999945 0 0 0 0 0
465 1 3 31.1018 -5490.80000000000018 0 0 0 0 0
466 1 3 31.1018 -5485.5 0 0 0 0 0
467 1 3 31.1018 -5480.19999999999982 0 0 0 0 0
468 1 3 31.1018 -5474.89999999999964 0 0 0 0 0
469 1 3 31.1018 -5469.59999999999945 0 0 0 0 0
470 1 3 31.1018 -5464.30000000000018 0 0 0 0 0
471 1 3 31.1018 -5459 0 0 0 0 0
472 1 3 31.1018 -5453.69999999999982 0 0 0 0 0
473 1 3 31.1018 -5448.39999999999964 0 0 0 0 0
474 1 3 31.1018 -5443.09999999999945 0 0 0 0 0
475 1 3 31.1018 -5437.80000000000018 0 0 0 0 0
476 1 3 31.1018 -5432.5 0 0 0 0 0
477 1 3 31.1018 -5427.19999999999982 0 0 0 0 0
478 1 3 31.1018 -5421.89999999999964 0 0 0 0 0
479 1 3 31.1018 -5416.59999999999945 0 0 0 0 0
480 1 3 31.1018 -5411.30000000000018 0 0 0 0 0
481 1 3 31.1018 -5406 0 0 0 0 0
482 1 3 31.1018 -5400.69999999999982 0 0 0 0 0
483 1 3 31.1018 -5395.39999999999964 0 0 0 0 0
484 1 3 31.1018 -5390.09999999999945 0 0 0 0 0
485 1 3 31.1018 -5384.80000000000018 0 0 0 0 0
486 1 3 31.1018 -5379.5 0 0 0 0 0
487 1 3 31.1018 -5374.19999999999982 0 0 0 0 0
488 1 3 31.1018 -5368.89999999999964 0 0 0 0 0
489 1 3 31.1018 -5363.59999999999945 0 0 0 0 0
490 1 3 31.1018 -5358.30000000000018 0 0 0 0 0
491 1 3 31.1018 -5353 0 0 0 0 0
492 1 3 31.1018 -5347.69999999999982 0 0 0 0 0
493 1 3 31.1018 -5342.39999999999964 0 0 0 0 0
494 1 3 31.1018 -5337.09999999999945 0 0 0 0 0
495 1 3 31.1018 -5331.80000000000018 0 0 0 0 0
496 1 3 31.1018 -5326.5 0 0 0 0 0
497 1 3 31.1018 -5321.19999999999982 0 0 0 0 0
498 1 3 31.1018 -5315.89999999999964 0 0 0 0 0
499 1 3 31.1018 -5310.59999999999945 0 0 0 0 0
500 1 3 31.1018 -5305.30000000000018 0 0 0 0 0
501 1 3 31.1018 -5300 0 0 0 0 0
502 1 3 31.1018 -5294.69999999999982 0 0 0 0 0
503 1 3 31.1018 -5289.39999999999964 0 0 0 0 0
504 1 3 31.1018 -5284.09999999999945 0 0 0 0 0
505 1 3 31.1018 -5278.80000000000018 0 0 0 0 0
506 1 3 31.1018 -5273.5 0 0 0 0 0
507 1 3 31.1018 -5268.19999999999982 0 0 0 0 0
508 1 3 31.1018 -5262.89999999999964 0 0 0 0 0
509 1 3 31.1018 -5257.59999999999945 0 0 0 0 0
510 1 3 31.1018 -5252.30000000000018 0 0 0 0 0
511 1 3 31.1018 -5247 0 0 0 0 0
512 1 3 31.1018 -5241.69999999999982 0 0 0 0 0
513 1 3 31.1018 -5236.39999999999964 0 0 0 0 0
514 1 3 31.1018 -5231.09999999999945 0 0 0 0 0
515 1 3 31.1018 -5225.80000000000018 0 0 0 0 0
516 1 3 31.1018 -5220.5 0 0 0 0 0
517 1 3 31.1018 -5215.19999999999982 0 0 0 0 0
518 1 3 31.1018 -5209.89999999999964 0 0 0 0 0
519 1 3 31.1018 -5204.59999999999945 0 0 0 0 0
520 1 3 31.1018 -5199.30000000000018 0 0 0 0 0
521 1 3 31.1018 -5194 0 0 0 0 0
522 1 3 31.1018 -5188.69999999999982 0 0 0 0 0
523 1 3 31.1018 -5183.39999999999964 0 0 0 0 0
524 1 3 31.1018 -5178.09999999999945 0 0 0 0 0
525 1 3 31.1018 -5172.80000000000018 0 0 0 0 0
526 1 3 31.1018 -5167.5 0 0 0 0 0
527 1 3 31.1018 -5162.19999999999982 0 0 0 0 0
528 1 3 31.1018 -5156.89999999999964 0 0 0 0 0
529 1 3 31.1018 -5151.59999999999945 0 0 0 0 0
530 1 3 31.1018 -5146.30000000000018 0 0 0 0 0
531 1 3 31.1018 -5141 0 0 0 0 0
532 1 3 31.1018 -5135.69999999999982 0 0 0 0 0
533 1 3 31.1018 -5130.39999999999964 0 0 0 0 0
534 1 3 31.1018 -5125.09999999999945 0 0 0 0 0
535 1 3 31.1018 -5119.80000000000018 0 0 0 0 0
536 1 3 31.1018 -5114.5 0 0 0 0 0
537 1 3 31.1018 -5109.19999999999982 0 0 0 0 0
538 1 3 31.1018 -5103.89999999999964 0 0 0 0 0
539 1 3 31.1018 -5098.59999999999945 0 0 0 0 0
540 1 3 31.1018 -5093.30000000000018 0 0 0 0 0
541 1 3 31.1018 -5088 0 0 0 0 0
542 1 3 31.1018 -5082.69999999999982 0 0 0 0 0
543 1 3 31.1018 -5077.39999999999964 0 0 0 0 0
544 1 3 31.1018 -5072.09999999999945 0 0 0 0 0
545 1 3 31.1018 -5066.80000000000018 0 0 0 0 0
546 1 3 31.1018 -5061.5 0 0 0 0 0
547 1 3 31.1018 -5056.19999999999982 0 0 0 0 0
548 1 3 31.1018 -5050.89999999999964 0 0 0 0 0
549 1 3 31.1018 -5045.59999999999945 0 0 0 0 0
550 1 3 31.1018 -5040.30000000000018 0 0 0 0 0
551 1 3 31.1018 -5035 0 0 0 0 0
552 1 3 31.1018 -5029.69999999999982 0 0 0 0 0
553 1 3 31.1018 -5024.39999999999964 0 0 0 0 0
554 1 3 31.1018 -5019.09999999999945 0 0 0 0 0
555 1 3 31.1018 -5013.80000000000018 0 0 0 0 0
556 1 3 31.1018 -5008.5 0 0 0 0 0
557 1 3 31.1018 -5003.19999999999982 0 0 0 0 0
558 1 3 31.1018 -4997.89999999999964 0 0 0 0 0
559 1 3 31.1018 -4992.59999999999945 0 0 0 0 0
560 1 3 31.1018 -4987.30000000000018 0 0 0 0 0
561 1 3 31.1018 -4982 0 0 0 0 0
562 1 3 31.1018 -4976.69999999999982 0 0 0 0 0
563 1 3 31.1018 -4971.39999999999964 0 0 0 0 0
564 1 3 31.1018 -4966.09999999999945 0 0 0 0 0
565 1 3 31.1018 -4960.80000000000018 0 0 0 0 0
566 1 3 31.1018 -4955.5 0 0 0 0 0
567 1 3 31.1018 -4950.19999999999982 0 0 0 0 0
568 1 3 31.1018 -4944.89999999999964 0 0 0 0 0
569 1 3 31.1018 -4939.59999999999945 0 0 0 0 0
570 1 3 31.1018 -4934.30000000000018 0 0 0 0 0
571 1 3 31.1018 -4929 0 0 0 0 0
572 1 3 31.1018 -4923.69999999999982 0 0 0 0 0
573 1 3 31.1018 -4918.39999999999964 0 0 0 0 0
574 1 3 31.1018 -4913.09999999999945 0 0 0 0 0
575 1 3 31.1018 -4907.80000000000018 0 0 0 0 0
576 1 3 31.1018 -4902.5 0 0 0 0 0
577 1 3 31.1018 -4897.19999999999982 0 0 0 0 0
578 1 3 31.1018 -4891.89999999999964 0 0 0 0 0
579 1 3 31.1018 -4886.59999999999945 0 0 0 0 0
580 1 3 31.1018 -4881.30000000000018 0 0 0 0 0
581 1 3 31.1018 -4876 0 0 0 0 0
582 1 3 31.1018 -4870.69999999999982 0 0 0 0 0
583 1 3 31.1018 -4865.39999999999964 0 0 0 0 0
584 1 3 31.1018 -4860.09999999999945 0 0 0 0 0
585 1 3 31.1018 -4854.80000000000018 0 0 0 0 0
586 1 3 31.1018 -4849.5 0 0 0 0 0
587 1 3 31.1018 -4844.19999999999982 0 0 0 0 0
588 1 3 31.1018 -4838.89999999999964 0 0 0 0 0
589 1 3 31.1018 -4833.59999999999945 0 0 0 0 0
590 1 3 31.1018 -4828.30000000000018 0 0 0 0 0
591 1 3 31.1018 -4823 0 0 0 0 0
592 1 3 31.1018 -4817.69999999999982 0 0 0 0 0
593 1 3 31.1018 -4812.39999999999964 0 0 0 0 0
594 1 3 31.1018 -4807.09999999999945 0 0 0 0 0
595 1 3 31.1018 -4801.80000000000018 0 0 0 0 0
596 1 3 31.1018 -4796.5 0 0 0 0 0
597 1 3 31.1018 -4791.19999999999982 0 0 0 0 0
598 1 3 31.1018 -4785.89999999999964 0 0 0 0 0
599 1 3 31.1018 -4780.59999999999945 0 0 0 0 0
600 1 3 31.1018 -4775.30000000000018 0 0 0 0 0
601 1 3 31.1018 -4770 0 0 0 0 0
602 1 3 31.1018 -4764.69999999999982 0 0 0 0 0
603 1 3 31.1018 -4759.39999999999964 0 0 0 0 0
604 1 3 31.1018 -4754.09999999999945 0 0 0 0 0
605 1 3 31.1018 -4748.80000000000018 0 0 0 0 0
606 1 3 31.1018 -4743.5 0 0 0 0 0
607 1 3 31.1018 -4738.19999999999982 0 0 0 0 0
608 1 3 31.1018 -4732.89999999999964 0 0 0 0 0
609 1 3 31.1018 -4727.59999999999945 0 0 0 0 0
610 1 3 31.1018 -4722.30000000000018 0 0 0 0 0
611 1 3 31.1018 -4717 0 0 0 0 0
612 1 3 31.1018 -4711.69999999999982 0 0 0 0 0
613 1 3 31.1018 -4706.39999999999964 0 0 0 0 0
614 1 3 31.1018 -4701.09999999999945 0 0 0 0 0
615 1 3 31.1018 -4695.80000000000018 0 0 0 0 0
616 1 3 31.1018 -4690.5 0 0 0 0 0
617 1 3 31.1018 -4685.19999999999982 0 0 0 0 0
618 1 3 31.1018 -4679.89999999999964 0 0 0 0 0
619 1 3 31.1018 -4674.59999999999945 0 0 0 0 0
620 1 3 31.1018 -4669.30000000000018 0 0 0 0 0
621 1 3 31.1018 -4664 0 0 0 0 0
622 1 3 31.1018 -4658.69999999999982 0 0 0 0 0
623 1 3 31.1018 -4653.39999999999964 0 0 0 0 0
624 1 3 31.1018 -4648.09999999999945 0 0 0 0 0
625 1 3 31.1018 -4642.80000000000018 0 0 0 0 0
626 1 3 31.1018 -4637.5 0 0 0 0 0
627 1 3 31.1018 -4632.19999999999982 0 0 0 0 0
628 1 3 31.1018 -4626.89999999999964 0 0 0 0 0
629 1 3 31.1018 -4621.59999999999945 0 0 0 0 0
630 1 3 31.1018 -4616.30000000000018 0 0 0 0 0
631 1 3 31.1018 -4611 0 0 0 0 0
632 1 3 31.1018 -4605.69999999999982 0 0 0 0 0
633 1 3 31.1018 -4600.39999999999964 0 0 0 0 0
634 1 3 31.1018 -4595.09999999999945 0 0 0 0 0
635 1 3 31.1018 -4589.80000000000018 0 0 0 0 0
636 1 3 31.1018 -4584.5 0 0 0 0 0
637 1 3 31.1018 -4579.19999999999982 0 0 0 0 0
638 1 3 31.1018 -4573.89999999999964 0 0 0 0 0
639 1 3 31.1018 -4568.59999999999945 0 0 0 0 0
640 1 3 31.1018 -4563.30000000000018 0 0 0 0 0
641 1 3 31.1018 -4558 0 0 0 0 0
642 1 3 31.1018 -4552.69999999999982 0 0 0 0 0
643 1 3 31.1018 -4547.39999999999964 0 0 0 0 0
644 1 3 31.1018 -4542.09999999999945 0 0 0 0 0
645 1 3 31.1018 -4536.80000000000018 0 0 0 0 0
646 1 3 31.1018 -4531.5 0 0 0 0 0
647 1 3 31.1018 -4526.19999999999982 0 0 0 0 0
648 1 3 31.1018 -4520.89999999999964 0 0 0 0 0
649 1 3 31.1018 -4515.59999999999945 0 0 0 0 0
650 1 3 31.1018 -4510.30000000000018 0 0 0 0 0
651 1 3 31.1018 -4505 0 0 0 0 0
652 1 3 31.1018 -4499.69999999999982 0 0 0 0 0
653 1 3 31.1018 -4494.39999999999964 0 0 0 0 0
654 1 3 31.1018 -4489.09999999999945 0 0 0 0 0
655 1 3 31.1018 -4483.80000000000018 0 0 0 0 0
656 1 3 31.1018 -4478.5 0 0 0 0 0
657 1 3 31.1018 -4473.19999999999982 0 0 0 0 0
658 1 3 31.1018 -4467.89999999999964 0 0 0 0 0
659 1 3 31.1018 -4462.59999999999945 0 0 0 0 0
660 1 3 31.1018 -4457.30000000000018 0 0 0 0 0
661 1 3 31.1018 -4452 0 0 0 0 0
662 1 3 31.1018 -4446.69999999999982 0 0 0 0 0
663 1 3 31.1018 -4441.39999999999964 0 0 0 0 0
664 1 3 31.1018 -4436.09999999999945 0 0 0 0 0
665 1 3 31.1018 -4430.80000000000018 0 0 0 0 0
666 1 3 31.1018 -4425.5 0 0 0 0 0
667 1 3 31.1018 -4420.19999999999982 0 0 0 0 0
668 1 3 31.1018 -4414.89999999999964 0 0 0 0 0
669 1 3 31.1018 -4409.59999999999945 0 0 0 0 0
670 1 3 31.1018 -4404.30000000000018 0 0 0 0 0
671 1 3 31.1018 -4399 0 0 0 0 0
672 1 3 31.1018 -4393.69999999999982 0 0 0 0 0
673 1 3 31.1018 -4388.39999999999964 0 0 0 0 0
674 1 3 31.1018 -4383.09999999999945 0 0 0 0 0
675 1 3 31.1018 -4377.80000000000018 0 0 0 0 0