LAMMPS (23 Jun 2022 - Update 1)
  using 1 OpenMP thread(s) per MPI task
Lattice spacing in x,y,z = 5 5 5
Created orthogonal box = (-7500 -100 -100) to (7500 100 100)
  2 by 1 by 1 MPI processor grid
Created 3000 atoms
  using lattice units in orthogonal box = (-7500 -100 -100) to (7500 100 100)
  create_atoms CPU = 0.002 seconds
Lattice spacing in x,y,z = 3 3 3
Created 2001 atoms
  using lattice units in orthogonal box = (-7500 -100 -100) to (7500 100 100)
  create_atoms CPU = 0.001 seconds
Setting atom values ...
  3000 settings made for diameter
Setting atom values ...
  3000 settings made for mass
Setting atom values ...
  2001 settings made for diameter
Setting atom values ...
  2001 settings made for mass
3000 atoms in group substrate
2001 atoms in group slider1
  1 rigid bodies with 2001 atoms
Generated 0 of 1 mixed pair_coeff terms from geometric mixing rule
Neighbor list info ...
  update every 1 steps, delay 0 steps, check yes
  max neighbors/atom: 2000, page size: 100000
  master list distance cutoff = 3.1
  ghost atom cutoff = 3.1
  binsize = 1.55, bins = 9678 130 130
  1 neighbor lists, perpetual/occasional/extra = 1 0 0
  (1) pair granular, perpetual
      attributes: half, newton on, size, history
      pair build: half/size/bin/newton
      stencil: half/bin/3d
      bin: standard
Setting up Verlet run ...
  Unit style    : micro
  Current step  : 0
  Time step     : 1e-05
Per MPI rank memory allocation (min/avg/max) = 349.8 | 349.8 | 349.8 Mbytes
   Step           Lx             Ly             Lz           Press           Pxx            Pyy            Pzz           KinEng         PotEng          Temp          c_1[1]         c_1[2]         c_1[3]    
         0   15000          200            200            0              0              0              0              0              0              0              1.1971759e-13  0              6            
    100000   15000          200            200            0.002720228    2.1541177e-35  0              0.0081606841   1175465.1      0              5.6759002e+10  1.1971759e-13  0              3.3274675    
    200000   15000          200            200            0.00098345114  1.0770585e-34  0              0.0029503534   295582.49      0              1.4272621e+10  1.1971759e-13  0              3.0737261    
    300000   15000          200            200            0.00012785266  2.1541237e-35  0              0.00038355799  9630.5071      0              4.6502272e+08  1.1971759e-13  0              3.0470454    
    400000   15000          200            200           -0.00011725689  8.3650014e-41  0             -0.00035177066  12360.017      0              5.9682099e+08  1.1971759e-13  0              3.0040773    
    500000   15000          200            200           -4.3053083e-05 -8.6164577e-35  0             -0.00012915925  1436.8775      0              69381671       1.1971759e-13  0              3.0002774    
    600000   15000          200            200            0.0058118085  -1.0770549e-35  0              0.017435425    0.62679025     0              30265.458      1.1971759e-13  0              2.9973398    
    700000   15000          200            200            0.0030457799   4.3082358e-35  0              0.0091373398   70.157183      0              3387639.3      1.1971759e-13  0              2.9982751    
    800000   15000          200            200            0.0030274976   3.2311773e-35  0              0.0090824929   0.14449131     0              6976.9683      1.1971759e-13  0              2.9982781    
    900000   15000          200            200            0.0033132855   7.5394093e-35  0              0.0099398565   1.3790828      0              66590.973      1.1971759e-13  0              2.998171     
   1000000   15000          200            200            0.0033700449  -6.4623466e-35  0              0.010110135    0.036914699    0              1782.4787      1.1971759e-13  0              2.9981506    
   1100000   15000          200            200            0.0033433424  -5.3852817e-36  0              0.010030027    0.013497623    0              651.75192      1.1971759e-13  0              2.9981605    
   1200000   15000          200            200            0.003330215    2.6926458e-35  0              0.0099906451   0.0025143732   0              121.41008      1.1971759e-13  0              2.9981653    
   1300000   15000          200            200            0.0033309945  -1.0770573e-35  0              0.0099929834   2.3767494e-05  0              1.1476472      1.1971759e-13  0              2.998165     
   1400000   15000          200            200            0.0033329094   1.6155881e-35  0              0.0099987282   5.9566865e-05  0              2.8762707      1.1971759e-13  0              2.9981643    
   1500000   15000          200            200            0.0033332107  -3.7697021e-35  0              0.0099996322   9.6603282e-07  0              0.046646268    1.1971759e-13  0              2.9981642    
   1600000   15000          200            200            0.0033330192   5.3853035e-36  0              0.0099990575   6.7423357e-07  0              0.032556326    1.1971759e-13  0              2.9981643    
   1700000   15000          200            200            0.0033329384  -5.3852773e-36  0              0.0099988153   9.2888939e-08  0              0.0044852744   1.1971759e-13  0              2.9981643    
   1800000   15000          200            200            0.0033329469  -5.3852773e-36  0              0.0099988407   2.0249748e-09  0              9.7778787e-05  1.1971759e-13  0              2.9981643    
   1900000   15000          200            200            0.0033329595   2.1541175e-35  0              0.0099988784   2.5158174e-09  0              0.00012147982  1.1971759e-13  0              2.9981643    
   2000000   15000          200            200            0.003332961   -3.231173e-35   0              0.009998883    2.1269906e-11  0              1.0270477e-06  1.1971759e-13  0              2.9981643    
   2100000   15000          200            200            0.0033329596  -5.3852773e-36  0              0.0099988789   3.2636412e-11  0              1.5758955e-06  1.1971759e-13  0              2.9981643    
   2200000   15000          200            200            0.0033329592   2.1541175e-35  0              0.0099988775   3.3250747e-12  0              1.6055596e-07  1.1971759e-13  0              2.9981643    
   2300000   15000          200            200            0.0033329592  -1.6155858e-35  0              0.0099988777   1.4076082e-13  0              6.7968363e-09  1.1971759e-13  0              2.9981643    
   2400000   15000          200            200            0.0033329593   5.3853036e-36  0              0.0099988779   1.0408261e-13  0              5.0257766e-09  1.1971759e-13  0              2.9981643    
   2500000   15000          200            200            0.0033329593   5.3852918e-35  0              0.009998878    3.8055718e-16  0              1.8375744e-11  1.1971759e-13  0              2.9981643    
   2600000   15000          200            200            0.0033329593   1.6155884e-35  0              0.0099988779   1.4578751e-15  0              7.0395569e-11  1.1971759e-13  0              2.9981643    
   2700000   15000          200            200            0.0033329593  -1.0770568e-35  0              0.0099988779   5.4194435e-17  0              2.6168553e-12  1.1971759e-13  0              2.9981643    
   2800000   15000          200            200            0.0033329593  -2.6926439e-35  0              0.0099988779   3.4815901e-21  0              1.6811352e-16  1.1971759e-13  0              2.9981643    
   2900000   15000          200            200            0.0033329593   6.4623499e-35  0              0.0099988779   6.7534158e-18  0              3.2609828e-13  1.1971759e-13  0              2.9981643    
   3000000   15000          200            200            0.0033329593  -6.4623472e-35  0              0.0099988779   1.2482804e-17  0              6.0274993e-13  1.1971759e-13  0              2.9981643    
Loop time of 781.657 on 2 procs for 3000000 steps with 5001 atoms

Performance: 3316031.236 ns/day, 0.000 hours/ns, 3837.999 timesteps/s
99.9% CPU use with 2 MPI tasks x 1 OpenMP threads

MPI task timing breakdown:
Section |  min time  |  avg time  |  max time  |%varavg| %total
---------------------------------------------------------------
Pair    | 221.15     | 223.83     | 226.5      |  17.9 | 28.64
Neigh   | 19.018     | 19.018     | 19.018     |   0.0 |  2.43
Comm    | 47.521     | 50.199     | 52.876     |  37.8 |  6.42
Output  | 0.59952    | 0.59957    | 0.59962    |   0.0 |  0.08
Modify  | 430.52     | 430.71     | 430.89     |   0.9 | 55.10
Other   |            | 57.31      |            |       |  7.33

Nlocal:         2500.5 ave        2501 max        2500 min
Histogram: 1 0 0 0 0 0 0 0 0 1
Nghost:            2.5 ave           3 max           2 min
Histogram: 1 0 0 0 0 0 0 0 0 1
Neighs:         1200.5 ave        1201 max        1200 min
Histogram: 1 0 0 0 0 0 0 0 0 1

Total # of neighbors = 2401
Ave neighs/atom = 0.48010398
Neighbor list builds = 168
Dangerous builds = 0
  using 1 OpenMP thread(s) per MPI task
Lattice spacing in x,y,z = 5.01 5.01 5.01
Created orthogonal box = (-7515 -100 -100) to (7515 100 100)
  2 by 1 by 1 MPI processor grid
Created 3000 atoms
  using lattice units in orthogonal box = (-7515 -100 -100) to (7515 100 100)
  create_atoms CPU = 0.002 seconds
Lattice spacing in x,y,z = 3 3 3
Created 2001 atoms
  using lattice units in orthogonal box = (-7515 -100 -100) to (7515 100 100)
  create_atoms CPU = 0.001 seconds
Setting atom values ...
  3000 settings made for diameter
Setting atom values ...
  3000 settings made for mass
Setting atom values ...
  2001 settings made for diameter
Setting atom values ...
  2001 settings made for mass
3000 atoms in group substrate
2001 atoms in group slider1
  1 rigid bodies with 2001 atoms
Generated 0 of 1 mixed pair_coeff terms from geometric mixing rule
Neighbor list info ...
  update every 1 steps, delay 0 steps, check yes
  max neighbors/atom: 2000, page size: 100000
  master list distance cutoff = 3.1
  ghost atom cutoff = 3.1
  binsize = 1.55, bins = 9697 130 130
  1 neighbor lists, perpetual/occasional/extra = 1 0 0
  (1) pair granular, perpetual
      attributes: half, newton on, size, history
      pair build: half/size/bin/newton
      stencil: half/bin/3d
      bin: standard
Setting up Verlet run ...
  Unit style    : micro
  Current step  : 0
  Time step     : 1e-05
Per MPI rank memory allocation (min/avg/max) = 350.5 | 350.5 | 350.5 Mbytes
   Step           Lx             Ly             Lz           Press           Pxx            Pyy            Pzz           KinEng         PotEng          Temp          c_1[1]         c_1[2]         c_1[3]    
         0   15030          200            200            0              0              0              0              0              0              0              1.1971759e-13  0              6            
    100000   15030          200            200            0.0026934364   1.0749118e-35  0              0.0080803093   1162618.2      0              5.6138674e+10  1.1971759e-13  0              3.3289321    
    200000   15030          200            200            0.00093372318 -1.0749074e-34  0              0.0028011695   273798.91      0              1.3220769e+10  1.1971759e-13  0              3.0783327    
    300000   15030          200            200            3.1284233e-05  8.5993249e-35  0              9.3852698e-05  660.64381      0              31900125       1.1971759e-13  0              3.044954     
    400000   15030          200            200            8.7139844e-05 -4.2995974e-35  0              0.00026141953  4848.1033      0              2.3409756e+08  1.1971759e-13  0              3.0039957    
    500000   15030          200            200           -0.001338622   -0.020096045    0              0.016080178    2128.9815      0              1.028009e+08   1.1971759e-13  0              2.9932908    
    600000   15030          200            200           -0.00061469433 -0.008224168    0              0.006380085    8.2801535      0              399818.98      1.1971759e-13  0              2.9957909    
    700000   15030          200            200            0.00010497664 -0.010987277    0              0.011302207    7.2791442      0              351483.82      1.1971759e-13  0              2.9943918    
    800000   15030          200            200           -0.00033422509 -0.010471699    0              0.0094690239   0.27859652     0              13452.429      1.1971759e-13  0              2.9948738    
    900000   15030          200            200           -0.00015178097 -0.010610887    0              0.010155544    0.0062793447   0              303.20708      1.1971759e-13  0              2.994688     
   1000000   15030          200            200           -0.00022005942 -0.010562983    0              0.0099028049   0.01584613     0              765.15291      1.1971759e-13  0              2.9947555    
   1100000   15030          200            200           -0.00019714933 -0.010579412    0              0.0099879642   0.0061126238   0              295.15673      1.1971759e-13  0              2.9947328    
   1200000   15030          200            200           -0.00020421266 -0.010574444    0              0.0099618058   0.0014568091   0              70.344095      1.1971759e-13  0              2.9947397    
   1300000   15030          200            200           -0.0002023212  -0.010575759    0              0.0099687951   0.00026919192  0              12.998315      1.1971759e-13  0              2.9947379    
   1400000   15030          200            200           -0.00020270608 -0.010575501    0              0.0099673831   4.1435978e-05  0              2.0007951      1.1971759e-13  0              2.9947382    
   1500000   15030          200            200           -0.00020268897 -0.010575506    0              0.0099674393   5.4440253e-06  0              0.2628725      1.1971759e-13  0              2.9947382    
   1600000   15030          200            200           -0.00020264929 -0.010575537    0              0.0099675895   6.0816403e-07  0              0.029366064    1.1971759e-13  0              2.9947382    
   1700000   15030          200            200           -0.00020267956 -0.010575515    0              0.0099674761   5.5799763e-08  0              0.0026943708   1.1971759e-13  0              2.9947382    
   1800000   15030          200            200           -0.00020266355 -0.010575527    0              0.0099675359   3.8102274e-09  0              0.00018398224  1.1971759e-13  0              2.9947382    
   1900000   15030          200            200           -0.00020267077 -0.010575521    0              0.0099675089   1.3853262e-10  0              6.6892442e-06  1.1971759e-13  0              2.9947382    
   2000000   15030          200            200           -0.00020266784 -0.010575523    0              0.0099675199   4.1221565e-18  0              1.9904419e-13  1.1971759e-13  0              2.9947382    
   2100000   15030          200            200           -0.00020266894 -0.010575523    0              0.0099675158   2.4979889e-12  0              1.2061895e-07  1.1971759e-13  0              2.9947382    
   2200000   15030          200            200           -0.00020266855 -0.010575523    0              0.0099675172   1.2423241e-12  0              5.9987383e-08  1.1971759e-13  0              2.9947382    
   2300000   15030          200            200           -0.00020266868 -0.010575523    0              0.0099675168   3.2979202e-13  0              1.5924476e-08  1.1971759e-13  0              2.9947382    
   2400000   15030          200            200           -0.00020266864 -0.010575523    0              0.0099675169   6.5202354e-14  0              3.1483883e-09  1.1971759e-13  0              2.9947382    
   2500000   15030          200            200           -0.00020266865 -0.010575523    0              0.0099675169   1.0528676e-14  0              5.0839206e-10  1.1971759e-13  0              2.9947382    
   2600000   15030          200            200           -0.00020266865 -0.010575523    0              0.0099675169   1.4296763e-15  0              6.9033951e-11  1.1971759e-13  0              2.9947382    
   2700000   15030          200            200           -0.00020266865 -0.010575523    0              0.0099675169   1.8356906e-16  0              8.8638927e-12  1.1971759e-13  0              2.9947382    
   2800000   15030          200            200           -0.00020266865 -0.010575523    0              0.0099675169   2.6493881e-17  0              1.2792947e-12  1.1971759e-13  0              2.9947382    
   2900000   15030          200            200           -0.00020266865 -0.010575523    0              0.0099675169   1.0147588e-17  0              4.8999069e-13  1.1971759e-13  0              2.9947382    
   3000000   15030          200            200           -0.00020266865 -0.010575523    0              0.0099675169   2.7898735e-18  0              1.3471301e-13  1.1971759e-13  0              2.9947382    
Loop time of 743.905 on 2 procs for 3000000 steps with 5001 atoms

Performance: 3484315.315 ns/day, 0.000 hours/ns, 4032.772 timesteps/s
99.9% CPU use with 2 MPI tasks x 1 OpenMP threads

MPI task timing breakdown:
Section |  min time  |  avg time  |  max time  |%varavg| %total
---------------------------------------------------------------
Pair    | 183.86     | 185.61     | 187.36     |  12.8 | 24.95
Neigh   | 18.578     | 18.58      | 18.581     |   0.0 |  2.50
Comm    | 48.29      | 50.079     | 51.867     |  25.3 |  6.73
Output  | 0.65573    | 0.65579    | 0.65585    |   0.0 |  0.09
Modify  | 431.21     | 431.55     | 431.89     |   1.6 | 58.01
Other   |            | 57.43      |            |       |  7.72

Nlocal:         2500.5 ave        2501 max        2500 min
Histogram: 1 0 0 0 0 0 0 0 0 1
Nghost:            2.5 ave           3 max           2 min
Histogram: 1 0 0 0 0 0 0 0 0 1
Neighs:         1317.5 ave        1318 max        1317 min
Histogram: 1 0 0 0 0 0 0 0 0 1

Total # of neighbors = 2635
Ave neighs/atom = 0.52689462
Neighbor list builds = 164
Dangerous builds = 0
  using 1 OpenMP thread(s) per MPI task
Lattice spacing in x,y,z = 5.02 5.02 5.02
Created orthogonal box = (-7530 -100 -100) to (7530 100 100)
  2 by 1 by 1 MPI processor grid
Created 3000 atoms
  using lattice units in orthogonal box = (-7530 -100 -100) to (7530 100 100)
  create_atoms CPU = 0.002 seconds
Lattice spacing in x,y,z = 3 3 3
Created 2001 atoms
  using lattice units in orthogonal box = (-7530 -100 -100) to (7530 100 100)
  create_atoms CPU = 0.001 seconds
Setting atom values ...
  3000 settings made for diameter
Setting atom values ...
  3000 settings made for mass
Setting atom values ...
  2001 settings made for diameter
Setting atom values ...
  2001 settings made for mass
3000 atoms in group substrate
2001 atoms in group slider1
  1 rigid bodies with 2001 atoms
Generated 0 of 1 mixed pair_coeff terms from geometric mixing rule
Neighbor list info ...
  update every 1 steps, delay 0 steps, check yes
  max neighbors/atom: 2000, page size: 100000
  master list distance cutoff = 3.1
  ghost atom cutoff = 3.1
  binsize = 1.55, bins = 9717 130 130
  1 neighbor lists, perpetual/occasional/extra = 1 0 0
  (1) pair granular, perpetual
      attributes: half, newton on, size, history
      pair build: half/size/bin/newton
      stencil: half/bin/3d
      bin: standard
Setting up Verlet run ...
  Unit style    : micro
  Current step  : 0
  Time step     : 1e-05
Per MPI rank memory allocation (min/avg/max) = 351.2 | 351.2 | 351.2 Mbytes
   Step           Lx             Ly             Lz           Press           Pxx            Pyy            Pzz           KinEng         PotEng          Temp          c_1[1]         c_1[2]         c_1[3]    
         0   15060          200            200            0              0              0              0              0              0              0              1.1971759e-13  0              6            
    100000   15060          200            200            0.0026880717   1.174824e-42   0              0.0080642152   1162618.8      0              5.6138702e+10  1.1971759e-13  0              3.3289314    
    200000   15060          200            200            0.00093186769  2.0479265e-40  0              0.0027956031   273801.04      0              1.3220872e+10  1.1971759e-13  0              3.0783312    
    300000   15060          200            200            3.1230789e-05 -2.6819152e-36  0              9.3692368e-05  661.01024      0              31917819       1.1971759e-13  0              3.0449537    
    400000   15060          200            200            8.6970578e-05  3.2561333e-40  0              0.00026091173  4848.5574      0              2.3411949e+08  1.1971759e-13  0              3.0039954    
    500000   15060          200            200            0.0017513902  -0.010747129    0              0.0160013      2135.111       0              1.0309687e+08  1.1971759e-13  0              2.9932957    
    600000   15060          200            200            0.00056832812 -0.0046549112   0              0.0063598956   5.8027249      0              280192.82      1.1971759e-13  0              2.9957934    
    700000   15060          200            200            0.0017285092  -0.00590119     0              0.011086717    19.443731      0              938868.21      1.1971759e-13  0              2.9944412    
    800000   15060          200            200            0.0013379524  -0.0056524205   0              0.0096662778   4.9202688      0              237582.17      1.1971759e-13  0              2.9948166    
    900000   15060          200            200            0.0014371628  -0.0056879455   0              0.009999434    0.88042947     0              42512.788      1.1971759e-13  0              2.9947246    
   1000000   15060          200            200            0.0014221443  -0.0056824454   0              0.0099488784   0.12858721     0              6209.0163      1.1971759e-13  0              2.9947392    
   1100000   15060          200            200            0.0014193456  -0.0056816998   0              0.0099397365   0.015692087    0              757.71472      1.1971759e-13  0              2.9947412    
   1200000   15060          200            200            0.0014233555  -0.0056829768   0              0.0099530433   0.0015680679   0              75.716385      1.1971759e-13  0              2.9947378    
   1300000   15060          200            200            0.0014209253  -0.0056821838   0              0.0099449597   0.00011898554  0              5.745386       1.1971759e-13  0              2.9947399    
   1400000   15060          200            200            0.0014220896  -0.0056825683   0              0.0099488371   5.3930712e-06  0              0.26041211     1.1971759e-13  0              2.9947389    
   1500000   15060          200            200            0.0014216003  -0.0056824055   0              0.0099472065   2.5978601e-08  0              0.0012544137   1.1971759e-13  0              2.9947393    
   1600000   15060          200            200            0.0014217867  -0.0056824679   0              0.009947828    3.9670676e-08  0              0.001915555    1.1971759e-13  0              2.9947391    
   1700000   15060          200            200            0.0014217218  -0.0056824461   0              0.0099476116   2.599689e-08   0              0.0012552968   1.1971759e-13  0              2.9947392    
   1800000   15060          200            200            0.0014217422  -0.005682453    0              0.0099476797   7.4331945e-09  0              0.00035892236  1.1971759e-13  0              2.9947392    
   1900000   15060          200            200            0.0014217367  -0.0056824511   0              0.0099476611   1.5011625e-09  0              7.2485765e-05  1.1971759e-13  0              2.9947392    
   2000000   15060          200            200            0.0014217378  -0.0056824515   0              0.009947665    2.4219503e-10  0              1.1694731e-05  1.1971759e-13  0              2.9947392    
   2100000   15060          200            200            0.0014217378  -0.0056824515   0              0.0099476647   3.2470347e-11  0              1.5678768e-06  1.1971759e-13  0              2.9947392    
   2200000   15060          200            200            0.0014217376  -0.0056824514   0              0.0099476644   3.615385e-12   0              1.74574e-07    1.1971759e-13  0              2.9947392    
   2300000   15060          200            200            0.0014217377  -0.0056824515   0              0.0099476647   3.215909e-13   0              1.5528474e-08  1.1971759e-13  0              2.9947392    
   2400000   15060          200            200            0.0014217377  -0.0056824514   0              0.0099476645   1.9649731e-14  0              9.4881519e-10  1.1971759e-13  0              2.9947392    
   2500000   15060          200            200            0.0014217377  -0.0056824515   0              0.0099476646   5.353213e-16   0              2.584875e-11   1.1971759e-13  0              2.9947392    
   2600000   15060          200            200            0.0014217377  -0.0056824514   0              0.0099476645   1.4173979e-17  0              6.8441074e-13  1.1971759e-13  0              2.9947392    
   2700000   15060          200            200            0.0014217377  -0.0056824514   0              0.0099476646   6.5647618e-17  0              3.1698885e-12  1.1971759e-13  0              2.9947392    
   2800000   15060          200            200            0.0014217377  -0.0056824514   0              0.0099476646   2.5655916e-17  0              1.2388324e-12  1.1971759e-13  0              2.9947392    
   2900000   15060          200            200            0.0014217377  -0.0056824514   0              0.0099476646   8.7465223e-18  0              4.2233826e-13  1.1971759e-13  0              2.9947392    
   3000000   15060          200            200            0.0014217377  -0.0056824515   0              0.0099476646   1.0573497e-17  0              5.1055633e-13  1.1971759e-13  0              2.9947392    
Loop time of 750.085 on 2 procs for 3000000 steps with 5001 atoms

Performance: 3455608.361 ns/day, 0.000 hours/ns, 3999.547 timesteps/s
99.9% CPU use with 2 MPI tasks x 1 OpenMP threads

MPI task timing breakdown:
Section |  min time  |  avg time  |  max time  |%varavg| %total
---------------------------------------------------------------
Pair    | 190.96     | 191.01     | 191.06     |   0.3 | 25.47
Neigh   | 18.548     | 18.55      | 18.551     |   0.0 |  2.47
Comm    | 48.116     | 48.119     | 48.121     |   0.0 |  6.42
Output  | 0.65921    | 0.65928    | 0.65934    |   0.0 |  0.09
Modify  | 432.48     | 432.71     | 432.93     |   1.1 | 57.69
Other   |            | 59.04      |            |       |  7.87

Nlocal:         2500.5 ave        2501 max        2500 min
Histogram: 1 0 0 0 0 0 0 0 0 1
Nghost:            2.5 ave           3 max           2 min
Histogram: 1 0 0 0 0 0 0 0 0 1
Neighs:         1315.5 ave        1316 max        1315 min
Histogram: 1 0 0 0 0 0 0 0 0 1

Total # of neighbors = 2631
Ave neighs/atom = 0.52609478
Neighbor list builds = 164
Dangerous builds = 0
  using 1 OpenMP thread(s) per MPI task
Lattice spacing in x,y,z = 5.03 5.03 5.03
Created orthogonal box = (-7545 -100 -100) to (7545 100 100)
  2 by 1 by 1 MPI processor grid
Created 3000 atoms
  using lattice units in orthogonal box = (-7545 -100 -100) to (7545 100 100)
  create_atoms CPU = 0.002 seconds
Lattice spacing in x,y,z = 3 3 3
Created 2001 atoms
  using lattice units in orthogonal box = (-7545 -100 -100) to (7545 100 100)
  create_atoms CPU = 0.001 seconds
Setting atom values ...
  3000 settings made for diameter
Setting atom values ...
  3000 settings made for mass
Setting atom values ...
  2001 settings made for diameter
Setting atom values ...
  2001 settings made for mass
3000 atoms in group substrate
2001 atoms in group slider1
  1 rigid bodies with 2001 atoms
Generated 0 of 1 mixed pair_coeff terms from geometric mixing rule
Neighbor list info ...
  update every 1 steps, delay 0 steps, check yes
  max neighbors/atom: 2000, page size: 100000
  master list distance cutoff = 3.1
  ghost atom cutoff = 3.1
  binsize = 1.55, bins = 9736 130 130
  1 neighbor lists, perpetual/occasional/extra = 1 0 0
  (1) pair granular, perpetual
      attributes: half, newton on, size, history
      pair build: half/size/bin/newton
      stencil: half/bin/3d
      bin: standard
Setting up Verlet run ...
  Unit style    : micro
  Current step  : 0
  Time step     : 1e-05
Per MPI rank memory allocation (min/avg/max) = 351.8 | 351.8 | 351.8 Mbytes
   Step           Lx             Ly             Lz           Press           Pxx            Pyy            Pzz           KinEng         PotEng          Temp          c_1[1]         c_1[2]         c_1[3]    
         0   15090          200            200            0              0              0              0              0              0              0              1.1971759e-13  0              6            
    100000   15090          200            200            0.002682413   -2.1412627e-35  0              0.0080472391   1162422.4      0              5.6129218e+10  1.1971759e-13  0              3.3289801    
    200000   15090          200            200            0.0009293044  -2.1412649e-35  0              0.0027879132   273476.85      0              1.3205218e+10  1.1971759e-13  0              3.078425     
    300000   15090          200            200            2.9884141e-05  3.9038027e-40  0              8.9652422e-05  608.92494      0              29402806       1.1971759e-13  0              3.0449021    
    400000   15090          200            200            8.2496384e-05  2.1412739e-35  0              0.00024748915  4405.1933      0              2.1271102e+08  1.1971759e-13  0              3.0041663    
    500000   15090          200            200            0.0064465458   0.00034610959  0              0.018993528    1196.8675      0              57792447       1.1971759e-13  0              2.992648     
    600000   15090          200            200            0.0025453834   0.00084216589  0              0.0067939843   104.88841      0              5064686.1      1.1971759e-13  0              2.9956008    
    700000   15090          200            200            0.0042644031   0.0015604575   0              0.011232752    9.6519667      0              466058.93      1.1971759e-13  0              2.9943637    
    800000   15090          200            200            0.0036283543   0.0014601924   0              0.0094248703   0.21663618     0              10460.586      1.1971759e-13  0              2.9948334    
    900000   15090          200            200            0.0038721406   0.0015000472   0              0.010116375    0.0010851093   0              52.396043      1.1971759e-13  0              2.9946478    
   1000000   15090          200            200            0.0037820063   0.0014849569   0              0.0098610621   0.0077390594   0              373.69148      1.1971759e-13  0              2.9947159    
   1100000   15090          200            200            0.0038135714   0.0014904263   0              0.0099502878   0.0034514128   0              166.65637      1.1971759e-13  0              2.9946919    
   1200000   15090          200            200            0.0038030677   0.0014886182   0              0.009920585    0.00091410476  0              44.138847      1.1971759e-13  0              2.9946999    
   1300000   15090          200            200            0.0038063482   0.0014891884   0              0.0099298563   0.00018949067  0              9.1498262      1.1971759e-13  0              2.9946974    
   1400000   15090          200            200            0.0038054103   0.0014890241   0              0.0099272067   3.3590196e-05  0              1.6219503      1.1971759e-13  0              2.9946981    
   1500000   15090          200            200            0.0038056412   0.0014890653   0              0.0099278585   5.2960733e-06  0              0.25572843     1.1971759e-13  0              2.994698     
   1600000   15090          200            200            0.0038056019   0.0014890579   0              0.0099277477   7.5589639e-07  0              0.036499531    1.1971759e-13  0              2.994698     
   1700000   15090          200            200            0.003805599    0.0014890577   0              0.0099277394   9.8249452e-08  0              0.0047441144   1.1971759e-13  0              2.994698     
   1800000   15090          200            200            0.0038056064   0.0014890588   0              0.0099277603   1.159144e-08   0              0.00055970913  1.1971759e-13  0              2.994698     
   1900000   15090          200            200            0.0038056015   0.001489058    0              0.0099277465   1.2242061e-09  0              5.9112532e-05  1.1971759e-13  0              2.994698     
   2000000   15090          200            200            0.003805604    0.0014890584   0              0.0099277536   1.1218894e-10  0              5.4172024e-06  1.1971759e-13  0              2.994698     
   2100000   15090          200            200            0.0038056029   0.0014890582   0              0.0099277503   8.3202994e-12  0              4.0175748e-07  1.1971759e-13  0              2.994698     
   2200000   15090          200            200            0.0038056033   0.0014890583   0              0.0099277517   4.1186789e-13  0              1.9887627e-08  1.1971759e-13  0              2.994698     
   2300000   15090          200            200            0.0038056031   0.0014890583   0              0.0099277511   5.2574521e-15  0              2.5386354e-10  1.1971759e-13  0              2.994698     
   2400000   15090          200            200            0.0038056032   0.0014890583   0              0.0099277514   1.1926088e-15  0              5.7586812e-11  1.1971759e-13  0              2.994698     
   2500000   15090          200            200            0.0038056032   0.0014890583   0              0.0099277513   1.218458e-15   0              5.8834977e-11  1.1971759e-13  0              2.994698     
   2600000   15090          200            200            0.0038056032   0.0014890583   0              0.0099277513   4.1595468e-16  0              2.0084963e-11  1.1971759e-13  0              2.994698     
   2700000   15090          200            200            0.0038056032   0.0014890583   0              0.0099277513   1.3778156e-16  0              6.6529784e-12  1.1971759e-13  0              2.994698     
   2800000   15090          200            200            0.0038056032   0.0014890583   0              0.0099277513   2.5569025e-17  0              1.2346367e-12  1.1971759e-13  0              2.994698     
   2900000   15090          200            200            0.0038056032   0.0014890583   0              0.0099277513   5.4610087e-18  0              2.6369257e-13  1.1971759e-13  0              2.994698     
   3000000   15090          200            200            0.0038056032   0.0014890583   0              0.0099277513   1.4043813e-17  0              6.7812547e-13  1.1971759e-13  0              2.994698     
Loop time of 742.059 on 2 procs for 3000000 steps with 5001 atoms

Performance: 3492983.360 ns/day, 0.000 hours/ns, 4042.805 timesteps/s
99.9% CPU use with 2 MPI tasks x 1 OpenMP threads

MPI task timing breakdown:
Section |  min time  |  avg time  |  max time  |%varavg| %total
---------------------------------------------------------------
Pair    | 181.81     | 185.08     | 188.35     |  24.0 | 24.94
Neigh   | 18.628     | 18.628     | 18.629     |   0.0 |  2.51
Comm    | 45.93      | 49.24      | 52.551     |  47.2 |  6.64
Output  | 0.64378    | 0.64383    | 0.64388    |   0.0 |  0.09
Modify  | 430.48     | 430.57     | 430.67     |   0.5 | 58.02
Other   |            | 57.9       |            |       |  7.80

Nlocal:         2500.5 ave        2501 max        2500 min
Histogram: 1 0 0 0 0 0 0 0 0 1
Nghost:            2.5 ave           3 max           2 min
Histogram: 1 0 0 0 0 0 0 0 0 1
Neighs:         1312.5 ave        1313 max        1312 min
Histogram: 1 0 0 0 0 0 0 0 0 1

Total # of neighbors = 2625
Ave neighs/atom = 0.52489502
Neighbor list builds = 164
Dangerous builds = 0
  using 1 OpenMP thread(s) per MPI task
Lattice spacing in x,y,z = 5.04 5.04 5.04
Created orthogonal box = (-7560 -100 -100) to (7560 100 100)
  2 by 1 by 1 MPI processor grid
Created 3000 atoms
  using lattice units in orthogonal box = (-7560 -100 -100) to (7560 100 100)
  create_atoms CPU = 0.002 seconds
Lattice spacing in x,y,z = 3 3 3
Created 2001 atoms
  using lattice units in orthogonal box = (-7560 -100 -100) to (7560 100 100)
  create_atoms CPU = 0.001 seconds
Setting atom values ...
  3000 settings made for diameter
Setting atom values ...
  3000 settings made for mass
Setting atom values ...
  2001 settings made for diameter
Setting atom values ...
  2001 settings made for mass
3000 atoms in group substrate
2001 atoms in group slider1
  1 rigid bodies with 2001 atoms
Generated 0 of 1 mixed pair_coeff terms from geometric mixing rule
Neighbor list info ...
  update every 1 steps, delay 0 steps, check yes
  max neighbors/atom: 2000, page size: 100000
  master list distance cutoff = 3.1
  ghost atom cutoff = 3.1
  binsize = 1.55, bins = 9755 130 130
  1 neighbor lists, perpetual/occasional/extra = 1 0 0
  (1) pair granular, perpetual
      attributes: half, newton on, size, history
      pair build: half/size/bin/newton
      stencil: half/bin/3d
      bin: standard
Setting up Verlet run ...
  Unit style    : micro
  Current step  : 0
  Time step     : 1e-05
Per MPI rank memory allocation (min/avg/max) = 352.5 | 352.5 | 352.5 Mbytes
   Step           Lx             Ly             Lz           Press           Pxx            Pyy            Pzz           KinEng         PotEng          Temp          c_1[1]         c_1[2]         c_1[3]    
         0   15120          200            200            0              0              0              0              0              0              0              1.1971759e-13  0              6            
    100000   15120          200            200            0.0026771547   4.2740448e-35  0              0.0080314642   1162468.6      0              5.6131447e+10  1.1971759e-13  0              3.3289452    
    200000   15120          200            200            0.0009276464  -1.2822101e-34  0              0.0027829392   273563.86      0              1.320942e+10   1.1971759e-13  0              3.0783776    
    300000   15120          200            200            3.033069e-05  -2.671274e-36   0              9.099207e-05   629.23905      0              30383702       1.1971759e-13  0              3.044906     
    400000   15120          200            200            7.9397882e-05  3.2055316e-35  0              0.00023819365  4112.9224      0              1.9859831e+08  1.1971759e-13  0              3.0043216    
    500000   15120          200            200            0.0067181389   0.0017425552   0              0.018411861    1430.1187      0              69055315       1.1971759e-13  0              2.9928546    
    600000   15120          200            200            0.0043093359   0.00085455256  0              0.012073455    294.42659      0              14216806       1.1971759e-13  0              2.9942826    
    700000   15120          200            200            0.0037617112   0.00084729708  0              0.010437837    47.246559      0              2281367.3      1.1971759e-13  0              2.9946711    
    800000   15120          200            200            0.0036408529   0.00084119543  0              0.010081363    6.5350079      0              315552.14      1.1971759e-13  0              2.9947567    
    900000   15120          200            200            0.0036019922   0.00083915259  0              0.0099668241   0.89288953     0              43114.44       1.1971759e-13  0              2.9947843    
   1000000   15120          200            200            0.0035888225   0.00083845284  0              0.0099280147   0.12178983     0              5880.7952      1.1971759e-13  0              2.9947936    
   1100000   15120          200            200            0.0035843748   0.00083821655  0              0.0099149077   0.016592406    0              801.18792      1.1971759e-13  0              2.9947967    
   1200000   15120          200            200            0.0035828878   0.00083813793  0              0.0099105253   0.0022574239   0              109.00292      1.1971759e-13  0              2.9947978    
   1300000   15120          200            200            0.0035823963   0.00083811214  0              0.0099090768   0.00030667652  0              14.808312      1.1971759e-13  0              2.9947981    
   1400000   15120          200            200            0.0035822361   0.00083810382  0              0.0099086044   4.1600607e-05  0              2.0087444      1.1971759e-13  0              2.9947982    
   1500000   15120          200            200            0.0035821847   0.00083810118  0              0.0099084529   5.6346898e-06  0              0.27207901     1.1971759e-13  0              2.9947982    
   1600000   15120          200            200            0.0035821686   0.00083810037  0              0.0099084053   7.6206971e-07  0              0.036797619    1.1971759e-13  0              2.9947983    
   1700000   15120          200            200            0.0035821636   0.00083810013  0              0.0099083908   1.0291491e-07  0              0.0049693925   1.1971759e-13  0              2.9947983    
   1800000   15120          200            200            0.0035821622   0.00083810006  0              0.0099083866   1.3877843e-08  0              0.00067011137  1.1971759e-13  0              2.9947983    
   1900000   15120          200            200            0.0035821618   0.00083810005  0              0.0099083854   1.8686581e-09  0              9.0230811e-05  1.1971759e-13  0              2.9947983    
   2000000   15120          200            200            0.0035821617   0.00083810004  0              0.0099083851   2.5126118e-10  0              1.2132503e-05  1.1971759e-13  0              2.9947983    
   2100000   15120          200            200            0.0035821617   0.00083810004  0              0.0099083851   3.3736079e-11  0              1.6289945e-06  1.1971759e-13  0              2.9947983    
   2200000   15120          200            200            0.0035821617   0.00083810004  0              0.0099083851   4.5214948e-12  0              2.183268e-07   1.1971759e-13  0              2.9947983    
   2300000   15120          200            200            0.0035821617   0.00083810004  0              0.0099083851   6.0513249e-13  0              2.9219682e-08  1.1971759e-13  0              2.9947983    
   2400000   15120          200            200            0.0035821617   0.00083810004  0              0.0099083851   8.087699e-14   0              3.9052604e-09  1.1971759e-13  0              2.9947983    
   2500000   15120          200            200            0.0035821617   0.00083810004  0              0.0099083851   1.0826286e-14  0              5.227626e-10   1.1971759e-13  0              2.9947983    
   2600000   15120          200            200            0.0035821617   0.00083810004  0              0.0099083851   1.4233577e-15  0              6.8728848e-11  1.1971759e-13  0              2.9947983    
   2700000   15120          200            200            0.0035821617   0.00083810004  0              0.0099083851   1.9627507e-16  0              9.4774206e-12  1.1971759e-13  0              2.9947983    
   2800000   15120          200            200            0.0035821617   0.00083810004  0              0.0099083851   2.0343226e-17  0              9.8230159e-13  1.1971759e-13  0              2.9947983    
   2900000   15120          200            200            0.0035821617   0.00083810004  0              0.0099083851   1.0340284e-17  0              4.9929529e-13  1.1971759e-13  0              2.9947983    
   3000000   15120          200            200            0.0035821617   0.00083810004  0              0.0099083851   8.6916701e-19  0              4.1968964e-14  1.1971759e-13  0              2.9947983    
Loop time of 736.509 on 2 procs for 3000000 steps with 5001 atoms

Performance: 3519303.285 ns/day, 0.000 hours/ns, 4073.268 timesteps/s
99.9% CPU use with 2 MPI tasks x 1 OpenMP threads

MPI task timing breakdown:
Section |  min time  |  avg time  |  max time  |%varavg| %total
---------------------------------------------------------------
Pair    | 180.15     | 182.89     | 185.63     |  20.3 | 24.83
Neigh   | 18.652     | 18.653     | 18.654     |   0.0 |  2.53
Comm    | 45.561     | 48.442     | 51.322     |  41.4 |  6.58
Output  | 0.65082    | 0.65089    | 0.65097    |   0.0 |  0.09
Modify  | 427.16     | 427.26     | 427.35     |   0.5 | 58.01
Other   |            | 58.62      |            |       |  7.96

Nlocal:         2500.5 ave        2501 max        2500 min
Histogram: 1 0 0 0 0 0 0 0 0 1
Nghost:            2.5 ave           3 max           2 min
Histogram: 1 0 0 0 0 0 0 0 0 1
Neighs:         1310.5 ave        1311 max        1310 min
Histogram: 1 0 0 0 0 0 0 0 0 1

Total # of neighbors = 2621
Ave neighs/atom = 0.52409518
Neighbor list builds = 164
Dangerous builds = 0
  using 1 OpenMP thread(s) per MPI task
Lattice spacing in x,y,z = 5.05 5.05 5.05
Created orthogonal box = (-7575 -100 -100) to (7575 100 100)
  2 by 1 by 1 MPI processor grid
Created 3000 atoms
  using lattice units in orthogonal box = (-7575 -100 -100) to (7575 100 100)
  create_atoms CPU = 0.002 seconds
Lattice spacing in x,y,z = 3 3 3
Created 2001 atoms
  using lattice units in orthogonal box = (-7575 -100 -100) to (7575 100 100)
  create_atoms CPU = 0.002 seconds
Setting atom values ...
  3000 settings made for diameter
Setting atom values ...
  3000 settings made for mass
Setting atom values ...
  2001 settings made for diameter
Setting atom values ...
  2001 settings made for mass
3000 atoms in group substrate
2001 atoms in group slider1
  1 rigid bodies with 2001 atoms
Generated 0 of 1 mixed pair_coeff terms from geometric mixing rule
Neighbor list info ...
  update every 1 steps, delay 0 steps, check yes
  max neighbors/atom: 2000, page size: 100000
  master list distance cutoff = 3.1
  ghost atom cutoff = 3.1
  binsize = 1.55, bins = 9775 130 130
  1 neighbor lists, perpetual/occasional/extra = 1 0 0
  (1) pair granular, perpetual
      attributes: half, newton on, size, history
      pair build: half/size/bin/newton
      stencil: half/bin/3d
      bin: standard
Setting up Verlet run ...
  Unit style    : micro
  Current step  : 0
  Time step     : 1e-05
Per MPI rank memory allocation (min/avg/max) = 353.2 | 353.2 | 353.2 Mbytes
   Step           Lx             Ly             Lz           Press           Pxx            Pyy            Pzz           KinEng         PotEng          Temp          c_1[1]         c_1[2]         c_1[3]    
         0   15150          200            200            0              0              0              0              0              0              0              1.1971759e-13  0              6            
    100000   15150          200            200            0.0026718039   2.9489472e-43  0              0.0080154118   1162427.5      0              5.6129466e+10  1.1971759e-13  0              3.3289935    
    200000   15150          200            200            0.00092558606  7.294569e-41   0              0.0027767582   273456.71      0              1.3204246e+10  1.1971759e-13  0              3.0784607    
    300000   15150          200            200            2.9661817e-05  1.0663959e-35  0              8.8985451e-05  604.77006      0              29202182       1.1971759e-13  0              3.0449299    
    400000   15150          200            200            8.1996845e-05 -2.7726238e-34  0              0.00024599053  4387.6321      0              2.1186305e+08  1.1971759e-13  0              3.0042017    
    500000   15150          200            200            0.0060699346  -1.7561945e-07  0              0.018209979    1420.2008      0              68576416       1.1971759e-13  0              2.9928011    
    600000   15150          200            200            0.0021381628  -9.0964649e-05  0              0.006505453    59.171626      0              2857186        1.1971759e-13  0              2.9957086    
    700000   15150          200            200            0.0037461807  -5.3622032e-05  0              0.011292164    2.1451548      0              103581.85      1.1971759e-13  0              2.9943774    
    800000   15150          200            200            0.0031873814  -6.1819148e-05  0              0.0096239633   5.1972004      0              250954.21      1.1971759e-13  0              2.9948134    
    900000   15150          200            200            0.0032552047  -6.2896591e-05  0              0.0098285107   0.86890578     0              41956.35       1.1971759e-13  0              2.9947558    
   1000000   15150          200            200            0.0032964114  -6.3514871e-05  0              0.0099527491   0.019626102    0              947.6742       1.1971759e-13  0              2.9947239    
   1100000   15150          200            200            0.0032676068  -6.3068787e-05  0              0.0098658892   0.0034081515   0              164.56744      1.1971759e-13  0              2.9947468    
   1200000   15150          200            200            0.0032758726  -6.319854e-05   0              0.0098908165   0.0021871611   0              105.61018      1.1971759e-13  0              2.9947401    
   1300000   15150          200            200            0.0032757849  -6.3196024e-05  0              0.0098905506   0.00021132742  0              10.204245      1.1971759e-13  0              2.9947402    
   1400000   15150          200            200            0.0032747159  -6.3179756e-05  0              0.0098873274   4.5297267e-07  0              0.021872429    1.1971759e-13  0              2.9947411    
   1500000   15150          200            200            0.0032752394  -6.318788e-05   0              0.0098889061   2.6618323e-06  0              0.12853036     1.1971759e-13  0              2.9947407    
   1600000   15150          200            200            0.0032751325  -6.3186177e-05  0              0.0098885836   7.5931836e-07  0              0.036664766    1.1971759e-13  0              2.9947408    
   1700000   15150          200            200            0.0032751133  -6.3185901e-05  0              0.0098885258   3.9137589e-08  0              0.0018898141   1.1971759e-13  0              2.9947408    
   1800000   15150          200            200            0.0032751369  -6.3186262e-05  0              0.0098885968   5.0246784e-10  0              2.4262374e-05  1.1971759e-13  0              2.9947407    
   1900000   15150          200            200            0.0032751282  -6.3186126e-05  0              0.0098885706   1.3925766e-09  0              6.724254e-05   1.1971759e-13  0              2.9947408    
   2000000   15150          200            200            0.0032751292  -6.3186143e-05  0              0.0098885736   2.2049469e-10  0              1.0646899e-05  1.1971759e-13  0              2.9947408    
   2100000   15150          200            200            0.0032751299  -6.3186153e-05  0              0.0098885757   4.375936e-12   0              2.1129829e-07  1.1971759e-13  0              2.9947408    
   2200000   15150          200            200            0.0032751294  -6.3186146e-05  0              0.0098885743   9.878015e-13   0              4.7697399e-08  1.1971759e-13  0              2.9947408    
   2300000   15150          200            200            0.0032751295  -6.3186148e-05  0              0.0098885747   5.7348649e-13  0              2.769161e-08   1.1971759e-13  0              2.9947408    
   2400000   15150          200            200            0.0032751295  -6.3186148e-05  0              0.0098885747   5.2244593e-14  0              2.5227044e-09  1.1971759e-13  0              2.9947408    
   2500000   15150          200            200            0.0032751295  -6.3186148e-05  0              0.0098885746   8.2125505e-17  0              3.9655467e-12  1.1971759e-13  0              2.9947408    
   2600000   15150          200            200            0.0032751295  -6.3186148e-05  0              0.0098885747   7.0888316e-16  0              3.4229431e-11  1.1971759e-13  0              2.9947408    
   2700000   15150          200            200            0.0032751295  -6.3186148e-05  0              0.0098885747   1.8171461e-16  0              8.7743483e-12  1.1971759e-13  0              2.9947408    
   2800000   15150          200            200            0.0032751295  -6.3186148e-05  0              0.0098885747   4.6977675e-20  0              2.2683838e-15  1.1971759e-13  0              2.9947408    
   2900000   15150          200            200            0.0032751295  -6.3186148e-05  0              0.0098885747   1.6978778e-19  0              8.1984441e-15  1.1971759e-13  0              2.9947408    
   3000000   15150          200            200            0.0032751295  -6.3186148e-05  0              0.0098885747   9.9274419e-18  0              4.7936064e-13  1.1971759e-13  0              2.9947408    
Loop time of 743.904 on 2 procs for 3000000 steps with 5001 atoms

Performance: 3484322.711 ns/day, 0.000 hours/ns, 4032.781 timesteps/s
99.9% CPU use with 2 MPI tasks x 1 OpenMP threads

MPI task timing breakdown:
Section |  min time  |  avg time  |  max time  |%varavg| %total
---------------------------------------------------------------
Pair    | 182.97     | 183.84     | 184.72     |   6.5 | 24.71
Neigh   | 18.659     | 18.66      | 18.661     |   0.0 |  2.51
Comm    | 47.212     | 48.176     | 49.139     |  13.9 |  6.48
Output  | 0.64572    | 0.64577    | 0.64582    |   0.0 |  0.09
Modify  | 432.58     | 433.58     | 434.58     |   4.8 | 58.28
Other   |            | 59         |            |       |  7.93

Nlocal:         2500.5 ave        2501 max        2500 min
Histogram: 1 0 0 0 0 0 0 0 0 1
Nghost:            2.5 ave           3 max           2 min
Histogram: 1 0 0 0 0 0 0 0 0 1
Neighs:         1308.5 ave        1309 max        1308 min
Histogram: 1 0 0 0 0 0 0 0 0 1

Total # of neighbors = 2617
Ave neighs/atom = 0.52329534
Neighbor list builds = 164
Dangerous builds = 0
  using 1 OpenMP thread(s) per MPI task
Lattice spacing in x,y,z = 5.06 5.06 5.06
Created orthogonal box = (-7590 -100 -100) to (7590 100 100)
  2 by 1 by 1 MPI processor grid
Created 3000 atoms
  using lattice units in orthogonal box = (-7590 -100 -100) to (7590 100 100)
  create_atoms CPU = 0.002 seconds
Lattice spacing in x,y,z = 3 3 3
Created 2001 atoms
  using lattice units in orthogonal box = (-7590 -100 -100) to (7590 100 100)
  create_atoms CPU = 0.001 seconds
Setting atom values ...
  3000 settings made for diameter
Setting atom values ...
  3000 settings made for mass
Setting atom values ...
  2001 settings made for diameter
Setting atom values ...
  2001 settings made for mass
3000 atoms in group substrate
2001 atoms in group slider1
  1 rigid bodies with 2001 atoms
Generated 0 of 1 mixed pair_coeff terms from geometric mixing rule
Neighbor list info ...
  update every 1 steps, delay 0 steps, check yes
  max neighbors/atom: 2000, page size: 100000
  master list distance cutoff = 3.1
  ghost atom cutoff = 3.1
  binsize = 1.55, bins = 9794 130 130
  1 neighbor lists, perpetual/occasional/extra = 1 0 0
  (1) pair granular, perpetual
      attributes: half, newton on, size, history
      pair build: half/size/bin/newton
      stencil: half/bin/3d
      bin: standard
Setting up Verlet run ...
  Unit style    : micro
  Current step  : 0
  Time step     : 1e-05
Per MPI rank memory allocation (min/avg/max) = 353.8 | 353.8 | 353.8 Mbytes
   Step           Lx             Ly             Lz           Press           Pxx            Pyy            Pzz           KinEng         PotEng          Temp          c_1[1]         c_1[2]         c_1[3]    
         0   15180          200            200            0              0              0              0              0              0              0              1.1971759e-13  0              6            
    100000   15180          200            200            0.002666396   -5.3214287e-36  0              0.0079991881   1162335.5      0              5.612502e+10   1.1971759e-13  0              3.3290618    
    200000   15180          200            200            0.00092343032  5.321434e-36   0              0.002770291    273301.37      0              1.3196745e+10  1.1971759e-13  0              3.0785652    
    300000   15180          200            200            2.9367495e-05  2.1285811e-35  0              8.8102485e-05  595.39975      0              28749723       1.1971759e-13  0              3.0449483    
    400000   15180          200            200            8.2153115e-05 -4.2571274e-35  0              0.00024645935  4419.9074      0              2.1342151e+08  1.1971759e-13  0              3.0041974    
    500000   15180          200            200            0.0051667492  -0.0020573233   0              0.017557571    1648.4987      0              79600103       1.1971759e-13  0              2.9929494    
    600000   15180          200            200            0.0023000226   0.00059987318  0              0.0063001946   5.6336951      0              272030.97      1.1971759e-13  0              2.995791     
    700000   15180          200            200            0.003688934   -0.00015473002  0              0.011221532    5.5342524      0              267229.24      1.1971759e-13  0              2.994387     
    800000   15180          200            200            0.0031202167  -0.00010909637  0              0.0094697464   2.6687668      0              128865.2       1.1971759e-13  0              2.9948488    
    900000   15180          200            200            0.0032823669  -0.00012828078  0              0.0099753813   0.64202849     0              31001.258      1.1971759e-13  0              2.99471      
   1000000   15180          200            200            0.003241559   -0.00012359472  0              0.0098482717   0.11622552     0              5612.1143      1.1971759e-13  0              2.9947451    
   1100000   15180          200            200            0.0032482627  -0.00012441243  0              0.0098692004   0.017285408    0              834.65049      1.1971759e-13  0              2.994739     
   1200000   15180          200            200            0.0032490675  -0.000124479    0              0.0098716814   0.0021435849   0              103.50604      1.1971759e-13  0              2.9947385    
   1300000   15180          200            200            0.0032476061  -0.00012432313  0              0.0098671415   0.00021820782  0              10.536474      1.1971759e-13  0              2.9947397    
   1400000   15180          200            200            0.0032485226  -0.00012442349  0              0.0098699911   1.705017e-05   0              0.82329167     1.1971759e-13  0              2.9947389    
   1500000   15180          200            200            0.0032480768  -0.00012437413  0              0.0098686046   8.245243e-07   0              0.039813328    1.1971759e-13  0              2.9947393    
   1600000   15180          200            200            0.003248266   -0.00012439523  0              0.0098691932   6.615695e-09   0              0.00031944823  1.1971759e-13  0              2.9947391    
   1700000   15180          200            200            0.0032481933  -0.00012438708  0              0.0098689671   4.2310924e-09  0              0.00020430431  1.1971759e-13  0              2.9947392    
   1800000   15180          200            200            0.0032482188  -0.00012438996  0              0.0098690464   3.1938493e-09  0              0.00015421955  1.1971759e-13  0              2.9947392    
   1900000   15180          200            200            0.0032482107  -0.00012438904  0              0.0098690212   9.5234137e-10  0              4.5985156e-05  1.1971759e-13  0              2.9947392    
   2000000   15180          200            200            0.003248213   -0.0001243893   0              0.0098690282   1.9680299e-10  0              9.5029119e-06  1.1971759e-13  0              2.9947392    
   2100000   15180          200            200            0.0032482125  -0.00012438924  0              0.0098690267   3.2303839e-11  0              1.5598368e-06  1.1971759e-13  0              2.9947392    
   2200000   15180          200            200            0.0032482125  -0.00012438924  0              0.0098690268   4.3979304e-12  0              2.1236032e-07  1.1971759e-13  0              2.9947392    
   2300000   15180          200            200            0.0032482126  -0.00012438925  0              0.0098690269   4.9822559e-13  0              2.4057531e-08  1.1971759e-13  0              2.9947392    
   2400000   15180          200            200            0.0032482125  -0.00012438924  0              0.0098690268   4.5048428e-14  0              2.1752274e-09  1.1971759e-13  0              2.9947392    
   2500000   15180          200            200            0.0032482126  -0.00012438925  0              0.0098690269   3.1049583e-15  0              1.4992732e-10  1.1971759e-13  0              2.9947392    
   2600000   15180          200            200            0.0032482125  -0.00012438925  0              0.0098690269   8.0288778e-17  0              3.8768577e-12  1.1971759e-13  0              2.9947392    
   2700000   15180          200            200            0.0032482125  -0.00012438925  0              0.0098690269   1.6491844e-17  0              7.9633211e-13  1.1971759e-13  0              2.9947392    
   2800000   15180          200            200            0.0032482125  -0.00012438925  0              0.0098690269   1.6860874e-17  0              8.1415128e-13  1.1971759e-13  0              2.9947392    
   2900000   15180          200            200            0.0032482125  -0.00012438925  0              0.0098690269   2.1077936e-18  0              1.0177781e-13  1.1971759e-13  0              2.9947392    
   3000000   15180          200            200            0.0032482125  -0.00012438925  0              0.0098690269   1.2396751e-17  0              5.9859472e-13  1.1971759e-13  0              2.9947392    
Loop time of 751.546 on 2 procs for 3000000 steps with 5001 atoms

Performance: 3448892.779 ns/day, 0.000 hours/ns, 3991.774 timesteps/s
99.9% CPU use with 2 MPI tasks x 1 OpenMP threads

MPI task timing breakdown:
Section |  min time  |  avg time  |  max time  |%varavg| %total
---------------------------------------------------------------
Pair    | 183.7      | 187.76     | 191.82     |  29.6 | 24.98
Neigh   | 18.759     | 18.761     | 18.763     |   0.0 |  2.50
Comm    | 46.096     | 50.314     | 54.532     |  59.5 |  6.69
Output  | 0.66083    | 0.6609     | 0.66097    |   0.0 |  0.09
Modify  | 435.48     | 435.58     | 435.69     |   0.5 | 57.96
Other   |            | 58.47      |            |       |  7.78

Nlocal:         2500.5 ave        2501 max        2500 min
Histogram: 1 0 0 0 0 0 0 0 0 1
Nghost:            2.5 ave           3 max           2 min
Histogram: 1 0 0 0 0 0 0 0 0 1
Neighs:         1312.5 ave        1313 max        1312 min
Histogram: 1 0 0 0 0 0 0 0 0 1

Total # of neighbors = 2625
Ave neighs/atom = 0.52489502
Neighbor list builds = 164
Dangerous builds = 0
  using 1 OpenMP thread(s) per MPI task
Lattice spacing in x,y,z = 5.07 5.07 5.07
Created orthogonal box = (-7605 -100 -100) to (7605 100 100)
  2 by 1 by 1 MPI processor grid
Created 3000 atoms
  using lattice units in orthogonal box = (-7605 -100 -100) to (7605 100 100)
  create_atoms CPU = 0.002 seconds
Lattice spacing in x,y,z = 3 3 3
Created 2001 atoms
  using lattice units in orthogonal box = (-7605 -100 -100) to (7605 100 100)
  create_atoms CPU = 0.001 seconds
Setting atom values ...
  3000 settings made for diameter
Setting atom values ...
  3000 settings made for mass
Setting atom values ...
  2001 settings made for diameter
Setting atom values ...
  2001 settings made for mass
3000 atoms in group substrate
2001 atoms in group slider1
  1 rigid bodies with 2001 atoms
Generated 0 of 1 mixed pair_coeff terms from geometric mixing rule
Neighbor list info ...
  update every 1 steps, delay 0 steps, check yes
  max neighbors/atom: 2000, page size: 100000
  master list distance cutoff = 3.1
  ghost atom cutoff = 3.1
  binsize = 1.55, bins = 9813 130 130
  1 neighbor lists, perpetual/occasional/extra = 1 0 0
  (1) pair granular, perpetual
      attributes: half, newton on, size, history
      pair build: half/size/bin/newton
      stencil: half/bin/3d
      bin: standard
Setting up Verlet run ...
  Unit style    : micro
  Current step  : 0
  Time step     : 1e-05
Per MPI rank memory allocation (min/avg/max) = 354.5 | 354.5 | 354.5 Mbytes
   Step           Lx             Ly             Lz           Press           Pxx            Pyy            Pzz           KinEng         PotEng          Temp          c_1[1]         c_1[2]         c_1[3]    
         0   15210          200            200            0              0              0              0              0              0              0              1.1971759e-13  0              6            
    100000   15210          200            200            0.0026612004   3.1865642e-35  0              0.0079836011   1162375.1      0              5.6126934e+10  1.1971759e-13  0              3.3290531    
    200000   15210          200            200            0.00092181045  8.4975099e-35  0              0.0027654314   273395.09      0              1.320127e+10   1.1971759e-13  0              3.0785263    
    300000   15210          200            200            2.9515384e-05 -8.4974954e-35  0              8.8546151e-05  603.58468      0              29144944       1.1971759e-13  0              3.0449572    
    400000   15210          200            200            8.306533e-05   3.7878727e-40  0              0.00024919599  4529.9104      0              2.1873316e+08  1.1971759e-13  0              3.0041501    
    500000   15210          200            200            0.0058370079   0.00088968534  0              0.016621338    1930.5009      0              93216981       1.1971759e-13  0              2.9931406    
    600000   15210          200            200            0.0025806286   0.0014626394   0              0.0062792463   2.8523798      0              137731.21      1.1971759e-13  0              2.9957978    
    700000   15210          200            200            0.0040113723   0.0008320207   0              0.011202096    5.0618003      0              244416.22      1.1971759e-13  0              2.9943839    
    800000   15210          200            200            0.003383116    0.00079801421  0              0.0093513338   0.130663       0              6309.2488      1.1971759e-13  0              2.9948752    
    900000   15210          200            200            0.0036100795   0.00079610157  0              0.010034137    0.019963132    0              963.94819      1.1971759e-13  0              2.9946884    
   1000000   15210          200            200            0.0035278867   0.000796438    0              0.009787222    0.021605524    0              1043.2534      1.1971759e-13  0              2.994755     
   1100000   15210          200            200            0.0035550243   0.00079628611  0              0.0098687866   0.0071834423   0              346.86272      1.1971759e-13  0              2.9947331    
   1200000   15210          200            200            0.0035469041   0.00079632694  0              0.0098443853   0.001597008    0              77.113803      1.1971759e-13  0              2.9947396    
   1300000   15210          200            200            0.0035489789   0.00079631629  0              0.0098506204   0.00028186509  0              13.610256      1.1971759e-13  0              2.9947379    
   1400000   15210          200            200            0.0035486074   0.00079631811  0              0.0098495042   4.1797584e-05  0              2.0182557      1.1971759e-13  0              2.9947382    
   1500000   15210          200            200            0.0035485905   0.00079631825  0              0.0098494532   5.2977194e-06  0              0.25580791     1.1971759e-13  0              2.9947382    
   1600000   15210          200            200            0.0035486524   0.00079631791  0              0.0098496392   5.682563e-07   0              0.027439063    1.1971759e-13  0              2.9947382    
   1700000   15210          200            200            0.003548611    0.00079631813  0              0.009849515    4.9335656e-08  0              0.0023822423   1.1971759e-13  0              2.9947382    
   1800000   15210          200            200            0.0035486319   0.00079631802  0              0.0098495776   3.0558618e-09  0              0.00014755663  1.1971759e-13  0              2.9947382    
   1900000   15210          200            200            0.0035486227   0.00079631807  0              0.0098495501   8.3163458e-11  0              4.0156658e-06  1.1971759e-13  0              2.9947382    
   2000000   15210          200            200            0.0035486264   0.00079631805  0              0.0098495611   1.0003759e-12  0              4.8304573e-08  1.1971759e-13  0              2.9947382    
   2100000   15210          200            200            0.003548625    0.00079631805  0              0.009849557    3.7297299e-12  0              1.8009531e-07  1.1971759e-13  0              2.9947382    
   2200000   15210          200            200            0.0035486255   0.00079631805  0              0.0098495584   1.5051409e-12  0              7.2677868e-08  1.1971759e-13  0              2.9947382    
   2300000   15210          200            200            0.0035486253   0.00079631805  0              0.009849558    3.6748571e-13  0              1.774457e-08   1.1971759e-13  0              2.9947382    
   2400000   15210          200            200            0.0035486254   0.00079631805  0              0.0098495581   6.9048925e-14  0              3.3341255e-09  1.1971759e-13  0              2.9947382    
   2500000   15210          200            200            0.0035486254   0.00079631805  0              0.0098495581   1.0730416e-14  0              5.1813339e-10  1.1971759e-13  0              2.9947382    
   2600000   15210          200            200            0.0035486254   0.00079631805  0              0.0098495581   1.3906081e-15  0              6.7147487e-11  1.1971759e-13  0              2.9947382    
   2700000   15210          200            200            0.0035486254   0.00079631805  0              0.0098495581   1.7718773e-16  0              8.5557611e-12  1.1971759e-13  0              2.9947382    
   2800000   15210          200            200            0.0035486254   0.00079631805  0              0.0098495581   2.6236744e-17  0              1.2668785e-12  1.1971759e-13  0              2.9947382    
   2900000   15210          200            200            0.0035486254   0.00079631805  0              0.0098495581   4.2404481e-18  0              2.0475606e-13  1.1971759e-13  0              2.9947382    
   3000000   15210          200            200            0.0035486254   0.00079631805  0              0.0098495581   1.4017439e-17  0              6.7685197e-13  1.1971759e-13  0              2.9947382    
Loop time of 743.257 on 2 procs for 3000000 steps with 5001 atoms

Performance: 3487354.400 ns/day, 0.000 hours/ns, 4036.290 timesteps/s
99.9% CPU use with 2 MPI tasks x 1 OpenMP threads

MPI task timing breakdown:
Section |  min time  |  avg time  |  max time  |%varavg| %total
---------------------------------------------------------------
Pair    | 183.52     | 185.53     | 187.55     |  14.8 | 24.96
Neigh   | 18.845     | 18.846     | 18.846     |   0.0 |  2.54
Comm    | 46.52      | 48.457     | 50.393     |  27.8 |  6.52
Output  | 0.64412    | 0.64417    | 0.64422    |   0.0 |  0.09
Modify  | 430.01     | 430.28     | 430.55     |   1.3 | 57.89
Other   |            | 59.5       |            |       |  8.01

Nlocal:         2500.5 ave        2501 max        2500 min
Histogram: 1 0 0 0 0 0 0 0 0 1
Nghost:            2.5 ave           3 max           2 min
Histogram: 1 0 0 0 0 0 0 0 0 1
Neighs:         1313.5 ave        1314 max        1313 min
Histogram: 1 0 0 0 0 0 0 0 0 1

Total # of neighbors = 2627
Ave neighs/atom = 0.52529494
Neighbor list builds = 164
Dangerous builds = 0
  using 1 OpenMP thread(s) per MPI task
Lattice spacing in x,y,z = 5.08 5.08 5.08
Created orthogonal box = (-7620 -100 -100) to (7620 100 100)
  2 by 1 by 1 MPI processor grid
Created 3000 atoms
  using lattice units in orthogonal box = (-7620 -100 -100) to (7620 100 100)
  create_atoms CPU = 0.002 seconds
Lattice spacing in x,y,z = 3 3 3
Created 2001 atoms
  using lattice units in orthogonal box = (-7620 -100 -100) to (7620 100 100)
  create_atoms CPU = 0.002 seconds
Setting atom values ...
  3000 settings made for diameter
Setting atom values ...
  3000 settings made for mass
Setting atom values ...
  2001 settings made for diameter
Setting atom values ...
  2001 settings made for mass
3000 atoms in group substrate
2001 atoms in group slider1
  1 rigid bodies with 2001 atoms
Generated 0 of 1 mixed pair_coeff terms from geometric mixing rule
Neighbor list info ...
  update every 1 steps, delay 0 steps, check yes
  max neighbors/atom: 2000, page size: 100000
  master list distance cutoff = 3.1
  ghost atom cutoff = 3.1
  binsize = 1.55, bins = 9833 130 130
  1 neighbor lists, perpetual/occasional/extra = 1 0 0
  (1) pair granular, perpetual
      attributes: half, newton on, size, history
      pair build: half/size/bin/newton
      stencil: half/bin/3d
      bin: standard
Setting up Verlet run ...
  Unit style    : micro
  Current step  : 0
  Time step     : 1e-05
Per MPI rank memory allocation (min/avg/max) = 355.2 | 355.2 | 355.2 Mbytes
   Step           Lx             Ly             Lz           Press           Pxx            Pyy            Pzz           KinEng         PotEng          Temp          c_1[1]         c_1[2]         c_1[3]    
         0   15240          200            200            0              0              0              0              0              0              0              1.1971759e-13  0              6            
    100000   15240          200            200            0.0026559841   4.2403927e-35  0              0.0079679524   1162387.7      0              5.6127544e+10  1.1971759e-13  0              3.3290556    
    200000   15240          200            200            0.00092005853 -2.6502394e-36  0              0.0027601756   273423.59      0              1.3202647e+10  1.1971759e-13  0              3.0785219    
    300000   15240          200            200            2.9668422e-05  1.1657783e-41  0              8.9005266e-05  612.05499      0              29553945       1.1971759e-13  0              3.0449629    
    400000   15240          200            200            8.4230279e-05 -2.6502406e-35  0              0.00025269084  4667.8978      0              2.2539608e+08  1.1971759e-13  0              3.0040844    
    500000   15240          200            200            0.0051531762  -0.00051621905  0              0.015975748    2081.6194      0              1.0051395e+08  1.1971759e-13  0              2.9932545    
    600000   15240          200            200            0.0014204526  -0.0020044129   0              0.0062657706   4.4749448      0              216079.07      1.1971759e-13  0              2.995794     
    700000   15240          200            200            0.0028469595  -0.0015770253   0              0.010117904    51.352283      0              2479618        1.1971759e-13  0              2.9946608    
    800000   15240          200            200            0.0028851054  -0.0016752178   0              0.010330534    0.5914968      0              28561.264      1.1971759e-13  0              2.9946129    
    900000   15240          200            200            0.0026981268  -0.0016799433   0              0.0097743238   0.875265       0              42263.415      1.1971759e-13  0              2.9947581    
   1000000   15240          200            200            0.0026946682  -0.0016800157   0              0.0097640202   0.012628664    0              609.79301      1.1971759e-13  0              2.9947599    
   1100000   15240          200            200            0.002719665   -0.0016792077   0              0.0098382027   0.015590798    0              752.82384      1.1971759e-13  0              2.9947403    
   1200000   15240          200            200            0.0027199369  -0.0016792046   0              0.0098390153   0.00026175132  0              12.639034      1.1971759e-13  0              2.9947402    
   1300000   15240          200            200            0.0027165734  -0.0016793099   0              0.00982903     0.00027690901  0              13.370945      1.1971759e-13  0              2.9947429    
   1400000   15240          200            200            0.0027165657  -0.0016793094   0              0.0098290064   5.3558838e-06  0              0.25861646     1.1971759e-13  0              2.9947428    
   1500000   15240          200            200            0.0027170177  -0.0016792952   0              0.0098303483   4.9138815e-06  0              0.23727375     1.1971759e-13  0              2.9947425    
   1600000   15240          200            200            0.0027170149  -0.0016792954   0              0.0098303402   1.0871481e-07  0              0.005249449    1.1971759e-13  0              2.9947425    
   1700000   15240          200            200            0.0027169542  -0.0016792973   0              0.0098301599   8.708838e-08   0              0.0042051862   1.1971759e-13  0              2.9947425    
   1800000   15240          200            200            0.0027169551  -0.0016792973   0              0.0098301625   2.1902424e-09  0              0.00010575897  1.1971759e-13  0              2.9947425    
   1900000   15240          200            200            0.0027169632  -0.001679297    0              0.0098301868   1.541556e-09   0              7.4436225e-05  1.1971759e-13  0              2.9947425    
   2000000   15240          200            200            0.0027169631  -0.001679297    0              0.0098301862   4.3830946e-11  0              2.1164395e-06  1.1971759e-13  0              2.9947425    
   2100000   15240          200            200            0.002716962   -0.0016792971   0              0.0098301829   2.7253633e-11  0              1.3159804e-06  1.1971759e-13  0              2.9947425    
   2200000   15240          200            200            0.002716962   -0.0016792971   0              0.009830183    8.7084578e-13  0              4.2050026e-08  1.1971759e-13  0              2.9947425    
[...]
   2900000   17910          200            200            0.0056572431   0.008607855    0              0.0083638744   7.4457579e-19  0              3.59529e-14    1.1971759e-13  0              2.9944426    
   3000000   17910          200            200            0.0056572431   0.008607855    0              0.0083638744   4.542841e-20   0              2.1935753e-15  1.1971759e-13  0              2.9944426    
Loop time of 719.378 on 2 procs for 3000000 steps with 5001 atoms

Performance: 3603110.200 ns/day, 0.000 hours/ns, 4170.266 timesteps/s
100.0% CPU use with 2 MPI tasks x 1 OpenMP threads

MPI task timing breakdown:
Section |  min time  |  avg time  |  max time  |%varavg| %total
---------------------------------------------------------------
Pair    | 158.54     | 158.84     | 159.14     |   2.4 | 22.08
Neigh   | 21.965     | 21.965     | 21.966     |   0.0 |  3.05
Comm    | 51.61      | 51.983     | 52.357     |   5.2 |  7.23
Output  | 0.65196    | 0.65199    | 0.65201    |   0.0 |  0.09
Modify  | 427.85     | 428.05     | 428.25     |   1.0 | 59.50
Other   |            | 57.89      |            |       |  8.05

Nlocal:         2500.5 ave        2501 max        2500 min
Histogram: 1 0 0 0 0 0 0 0 0 1
Nghost:            2.5 ave           3 max           2 min
Histogram: 1 0 0 0 0 0 0 0 0 1
Neighs:         1267.5 ave        1268 max        1267 min
Histogram: 1 0 0 0 0 0 0 0 0 1

Total # of neighbors = 2535
Ave neighs/atom = 0.50689862
Neighbor list builds = 166
Dangerous builds = 0
  using 1 OpenMP thread(s) per MPI task
Lattice spacing in x,y,z = 5.98 5.98 5.98
Created orthogonal box = (-8970 -100 -100) to (8970 100 100)
  2 by 1 by 1 MPI processor grid
Created 3000 atoms
  using lattice units in orthogonal box = (-8970 -100 -100) to (8970 100 100)
  create_atoms CPU = 0.001 seconds
Lattice spacing in x,y,z = 3 3 3
Created 2001 atoms
  using lattice units in orthogonal box = (-8970 -100 -100) to (8970 100 100)
  create_atoms CPU = 0.001 seconds
Setting atom values ...
  3000 settings made for diameter
Setting atom values ...
  3000 settings made for mass
Setting atom values ...
  2001 settings made for diameter
Setting atom values ...
  2001 settings made for mass
3000 atoms in group substrate
2001 atoms in group slider1
  1 rigid bodies with 2001 atoms
Generated 0 of 1 mixed pair_coeff terms from geometric mixing rule
Neighbor list info ...
  update every 1 steps, delay 0 steps, check yes
  max neighbors/atom: 2000, page size: 100000
  master list distance cutoff = 3.1
  ghost atom cutoff = 3.1
  binsize = 1.55, bins = 11575 130 130
  1 neighbor lists, perpetual/occasional/extra = 1 0 0
  (1) pair granular, perpetual
      attributes: half, newton on, size, history
      pair build: half/size/bin/newton
      stencil: half/bin/3d
      bin: standard
Setting up Verlet run ...
  Unit style    : micro
  Current step  : 0
  Time step     : 1e-05
Per MPI rank memory allocation (min/avg/max) = 415.8 | 415.8 | 415.8 Mbytes
   Step           Lx             Ly             Lz           Press           Pxx            Pyy            Pzz           KinEng         PotEng          Temp          c_1[1]         c_1[2]         c_1[3]    
         0   17940          200            200            0              0              0              0              0              0              0              1.1971759e-13  0              6            
    100000   17940          200            200            0.0022518071  -2.2513751e-36  0              0.0067554212   1158959.9      0              5.5962026e+10  1.1971759e-13  0              3.3303974    
    200000   17940          200            200            0.00077102599  9.0055067e-36  0              0.002313078    267652.65      0              1.2923988e+10  1.1971759e-13  0              3.0808634    
    300000   17940          200            200            9.1063135e-06  3.6022345e-35  0              2.7318941e-05  82.905414      0              4003205.7      1.1971759e-13  0              3.0444573    
    400000   17940          200            200            2.9886874e-05 -4.6828593e-34  0              8.9660622e-05  874.42711      0              42222956       1.1971759e-13  0              3.0055102    
    500000   17940          200            200            0.0019052152  -0.00067152249  0              0.0063871681   2714.4928      0              1.3107314e+08  1.1971759e-13  0              2.9951746    
    600000   17940          200            200            0.001639567   -0.00096982092  0              0.0058885218   112.48735      0              5431611.4      1.1971759e-13  0              2.9953187    
    700000   17940          200            200            0.0021104046  -0.0012945976   0              0.0076258113   29.496512      0              1424281        1.1971759e-13  0              2.9946625    
    800000   17940          200            200            0.0023093009  -0.0013583336   0              0.0082862363   6.7740725      0              327095.72      1.1971759e-13  0              2.9944317    
    900000   17940          200            200            0.0023527855  -0.0013670709   0              0.0084254274   0.71287425     0              34422.146      1.1971759e-13  0              2.9943836    
   1000000   17940          200            200            0.0023452574  -0.0013662451   0              0.0084020173   0.017295547    0              835.14006      1.1971759e-13  0              2.9943907    
   1100000   17940          200            200            0.0023348066  -0.0013649161   0              0.008369336    0.0014958625   0              72.229849      1.1971759e-13  0              2.9944014    
   1200000   17940          200            200            0.0023298748  -0.0013642679   0              0.0083538924   0.0015738117   0              75.993734      1.1971759e-13  0              2.9944065    
   1300000   17940          200            200            0.0023284729  -0.0013640793   0              0.008349498    0.00030177905  0              14.57183       1.1971759e-13  0              2.994408     
   1400000   17940          200            200            0.0023283378  -0.0013640597   0              0.0083490731   2.0706933e-05  0              0.99986371     1.1971759e-13  0              2.9944082    
   1500000   17940          200            200            0.0023284494  -0.0013640739   0              0.0083494221   6.4219738e-08  0              0.0031009413   1.1971759e-13  0              2.994408     
   1600000   17940          200            200            0.002328531   -0.0013640847   0              0.0083496778   2.1868596e-07  0              0.010559562    1.1971759e-13  0              2.994408     
   1700000   17940          200            200            0.0023285625  -0.0013640889   0              0.0083497764   9.0084093e-08  0              0.0043498384   1.1971759e-13  0              2.9944079    
   1800000   17940          200            200            0.0023285694  -0.0013640898   0              0.0083497981   1.1640929e-08  0              0.00056209878  1.1971759e-13  0              2.9944079    
   1900000   17940          200            200            0.0023285691  -0.0013640898   0              0.0083497972   4.4237028e-10  0              2.1360477e-05  1.1971759e-13  0              2.9944079    
   2000000   17940          200            200            0.002328568   -0.0013640896   0              0.0083497937   6.4521506e-12  0              3.1155126e-07  1.1971759e-13  0              2.9944079    
   2100000   17940          200            200            0.0023285674  -0.0013640896   0              0.0083497919   1.8257356e-11  0              8.8158236e-07  1.1971759e-13  0              2.9944079    
   2200000   17940          200            200            0.0023285673  -0.0013640895   0              0.0083497913   4.3670602e-12  0              2.1086971e-07  1.1971759e-13  0              2.9944079    
   2300000   17940          200            200            0.0023285672  -0.0013640895   0              0.0083497912   3.7856301e-13  0              1.8279453e-08  1.1971759e-13  0              2.9944079    
   2400000   17940          200            200            0.0023285672  -0.0013640895   0              0.0083497913   4.8739651e-15  0              2.3534633e-10  1.1971759e-13  0              2.9944079    
   2500000   17940          200            200            0.0023285673  -0.0013640895   0              0.0083497913   1.7244242e-15  0              8.3266272e-11  1.1971759e-13  0              2.9944079    
   2600000   17940          200            200            0.0023285673  -0.0013640895   0              0.0083497913   1.1231471e-15  0              5.4232756e-11  1.1971759e-13  0              2.9944079    
   2700000   17940          200            200            0.0023285673  -0.0013640895   0              0.0083497913   1.5755721e-16  0              7.6078736e-12  1.1971759e-13  0              2.9944079    
   2800000   17940          200            200            0.0023285673  -0.0013640895   0              0.0083497913   3.2312077e-20  0              1.5602346e-15  1.1971759e-13  0              2.9944079    
   2900000   17940          200            200            0.0023285673  -0.0013640895   0              0.0083497913   4.3505329e-19  0              2.1007166e-14  1.1971759e-13  0              2.9944079    
   3000000   17940          200            200            0.0023285673  -0.0013640895   0              0.0083497913   4.0435343e-18  0              1.952478e-13   1.1971759e-13  0              2.9944079    
Loop time of 716.039 on 2 procs for 3000000 steps with 5001 atoms

Performance: 3619912.410 ns/day, 0.000 hours/ns, 4189.713 timesteps/s
100.0% CPU use with 2 MPI tasks x 1 OpenMP threads

MPI task timing breakdown:
Section |  min time  |  avg time  |  max time  |%varavg| %total
---------------------------------------------------------------
Pair    | 156.99     | 157.4      | 157.82     |   3.3 | 21.98
Neigh   | 22.094     | 22.099     | 22.103     |   0.1 |  3.09
Comm    | 51.577     | 52.007     | 52.438     |   6.0 |  7.26
Output  | 0.64038    | 0.6404     | 0.64042    |   0.0 |  0.09
Modify  | 426.66     | 426.89     | 427.11     |   1.1 | 59.62
Other   |            | 57         |            |       |  7.96

Nlocal:         2500.5 ave        2501 max        2500 min
Histogram: 1 0 0 0 0 0 0 0 0 1
Nghost:            2.5 ave           3 max           2 min
Histogram: 1 0 0 0 0 0 0 0 0 1
Neighs:         1276.5 ave        1277 max        1276 min
Histogram: 1 0 0 0 0 0 0 0 0 1

Total # of neighbors = 2553
Ave neighs/atom = 0.5104979
Neighbor list builds = 166
Dangerous builds = 0
  using 1 OpenMP thread(s) per MPI task
Lattice spacing in x,y,z = 5.99 5.99 5.99
Created orthogonal box = (-8985 -100 -100) to (8985 100 100)
  2 by 1 by 1 MPI processor grid
Created 3000 atoms
  using lattice units in orthogonal box = (-8985 -100 -100) to (8985 100 100)
  create_atoms CPU = 0.001 seconds
Lattice spacing in x,y,z = 3 3 3
Created 2001 atoms
  using lattice units in orthogonal box = (-8985 -100 -100) to (8985 100 100)
  create_atoms CPU = 0.001 seconds
Setting atom values ...
  3000 settings made for diameter
Setting atom values ...
  3000 settings made for mass
Setting atom values ...
  2001 settings made for diameter
Setting atom values ...
  2001 settings made for mass
3000 atoms in group substrate
2001 atoms in group slider1
  1 rigid bodies with 2001 atoms
Generated 0 of 1 mixed pair_coeff terms from geometric mixing rule
Neighbor list info ...
  update every 1 steps, delay 0 steps, check yes
  max neighbors/atom: 2000, page size: 100000
  master list distance cutoff = 3.1
  ghost atom cutoff = 3.1
  binsize = 1.55, bins = 11594 130 130
  1 neighbor lists, perpetual/occasional/extra = 1 0 0
  (1) pair granular, perpetual
      attributes: half, newton on, size, history
      pair build: half/size/bin/newton
      stencil: half/bin/3d
      bin: standard
Setting up Verlet run ...
  Unit style    : micro
  Current step  : 0
  Time step     : 1e-05
Per MPI rank memory allocation (min/avg/max) = 416.4 | 416.4 | 416.4 Mbytes
   Step           Lx             Ly             Lz           Press           Pxx            Pyy            Pzz           KinEng         PotEng          Temp          c_1[1]         c_1[2]         c_1[3]    
         0   17970          200            200            0              0              0              0              0              0              0              1.1971759e-13  0              6            
    100000   17970          200            200            0.002242153   -7.8666594e-36  0              0.006726459    1154410.8      0              5.5742365e+10  1.1971759e-13  0              3.332187     
    200000   17970          200            200            0.00075583209 -3.5961543e-35  0              0.0022674963   260100.82      0              1.2559338e+10  1.1971759e-13  0              3.0839073    
    300000   17970          200            200           -1.1620988e-05  5.3942854e-35  0             -3.4862964e-05  137.84776      0              6656175        1.1971759e-13  0              3.043419     
    400000   17970          200            200           -2.1405458e-05  1.1238087e-35  0             -6.4216375e-05  491.76887      0              23745759       1.1971759e-13  0              3.0050448    
    500000   17970          200            200            0.0013329148  -0.0032587177   0              0.0072574622   2745.4496      0              1.3256793e+08  1.1971759e-13  0              2.9943083    
    600000   17970          200            200            0.0011525137  -0.0021321903   0              0.0055897314   2.4096396      0              116352.87      1.1971759e-13  0              2.9950533    
    700000   17970          200            200            0.0020210503  -0.0030896121   0              0.009152763    22.130038      0              1068580.3      1.1971759e-13  0              2.9936763    
    800000   17970          200            200            0.0017436772  -0.002970677    0              0.0082017085   5.9447061      0              287048.58      1.1971759e-13  0              2.9940068    
    900000   17970          200            200            0.0017762056  -0.0029744649   0              0.0083030816   0.85052455     0              41068.787      1.1971759e-13  0              2.9939733    
   1000000   17970          200            200            0.0017967318  -0.0029815366   0              0.008371732    0.059601659    0              2877.9508      1.1971759e-13  0              2.9939471    
   1100000   17970          200            200            0.0017799676  -0.0029759649   0              0.0083158677   0.00083492919  0              40.315743      1.1971759e-13  0              2.9939677    
   1200000   17970          200            200            0.0017876556  -0.0029783877   0              0.0083413546   0.00021149731  0              10.212448      1.1971759e-13  0              2.9939584    
   1300000   17970          200            200            0.0017850909  -0.0029776237   0              0.0083328964   0.00016898288  0              8.1595784      1.1971759e-13  0              2.9939615    
   1400000   17970          200            200            0.0017856614  -0.0029777891   0              0.0083347732   3.8454655e-05  0              1.8568377      1.1971759e-13  0              2.9939608    
   1500000   17970          200            200            0.0017856485  -0.0029777877   0              0.0083347332   4.5899237e-06  0              0.22163099     1.1971759e-13  0              2.9939608    
   1600000   17970          200            200            0.0017855798  -0.0029777663   0              0.0083345058   2.6026322e-07  0              0.012567179    1.1971759e-13  0              2.9939609    
   1700000   17970          200            200            0.0017856247  -0.0029777799   0              0.0083346539   1.0192687e-09  0              4.9216836e-05  1.1971759e-13  0              2.9939608    
   1800000   17970          200            200            0.0017856058  -0.0029777743   0              0.0083345916   2.3613115e-09  0              0.00011401928  1.1971759e-13  0              2.9939609    
   1900000   17970          200            200            0.0017856116  -0.002977776    0              0.0083346107   1.2101153e-09  0              5.8432135e-05  1.1971759e-13  0              2.9939608    
   2000000   17970          200            200            0.0017856105  -0.0029777757   0              0.0083346071   2.3381981e-10  0              1.1290322e-05  1.1971759e-13  0              2.9939608    
   2100000   17970          200            200            0.0017856104  -0.0029777756   0              0.0083346068   2.4170702e-11  0              1.1671167e-06  1.1971759e-13  0              2.9939608    
   2200000   17970          200            200            0.0017856106  -0.0029777757   0              0.0083346075   1.0552047e-12  0              5.0952058e-08  1.1971759e-13  0              2.9939608    
   2300000   17970          200            200            0.0017856105  -0.0029777757   0              0.0083346071   2.3911443e-16  0              1.154598e-11   1.1971759e-13  0              2.9939608    
   2400000   17970          200            200            0.0017856105  -0.0029777757   0              0.0083346072   2.1748587e-14  0              1.0501614e-09  1.1971759e-13  0              2.9939608    
   2500000   17970          200            200            0.0017856105  -0.0029777757   0              0.0083346072   8.1298758e-15  0              3.9256261e-10  1.1971759e-13  0              2.9939608    
   2600000   17970          200            200            0.0017856105  -0.0029777757   0              0.0083346072   1.3870125e-15  0              6.6973871e-11  1.1971759e-13  0              2.9939608    
   2700000   17970          200            200            0.0017856105  -0.0029777757   0              0.0083346072   1.6497224e-16  0              7.9659192e-12  1.1971759e-13  0              2.9939608    
   2800000   17970          200            200            0.0017856105  -0.0029777757   0              0.0083346072   1.4960995e-17  0              7.2241292e-13  1.1971759e-13  0              2.9939608    
   2900000   17970          200            200            0.0017856105  -0.0029777757   0              0.0083346072   1.5648819e-21  0              7.5562547e-17  1.1971759e-13  0              2.9939608    
   3000000   17970          200            200            0.0017856105  -0.0029777757   0              0.0083346072   2.2791853e-18  0              1.100537e-13   1.1971759e-13  0              2.9939608    
Loop time of 713.281 on 2 procs for 3000000 steps with 5001 atoms

Performance: 3633909.596 ns/day, 0.000 hours/ns, 4205.914 timesteps/s
99.9% CPU use with 2 MPI tasks x 1 OpenMP threads

MPI task timing breakdown:
Section |  min time  |  avg time  |  max time  |%varavg| %total
---------------------------------------------------------------
Pair    | 152.15     | 152.34     | 152.54     |   1.6 | 21.36
Neigh   | 22.031     | 22.034     | 22.037     |   0.1 |  3.09
Comm    | 52.315     | 52.517     | 52.719     |   2.8 |  7.36
Output  | 0.64447    | 0.64447    | 0.64447    |   0.0 |  0.09
Modify  | 427.29     | 427.35     | 427.41     |   0.3 | 59.91
Other   |            | 58.39      |            |       |  8.19

Nlocal:         2500.5 ave        2501 max        2500 min
Histogram: 1 0 0 0 0 0 0 0 0 1
Nghost:            2.5 ave           3 max           2 min
Histogram: 1 0 0 0 0 0 0 0 0 1
Neighs:         1235.5 ave        1236 max        1235 min
Histogram: 1 0 0 0 0 0 0 0 0 1

Total # of neighbors = 2471
Ave neighs/atom = 0.49410118
Neighbor list builds = 166
Dangerous builds = 0
  using 1 OpenMP thread(s) per MPI task
Total wall time: 20:15:12
