LAMMPS (23 Jun 2022 - Update 1)
  using 1 OpenMP thread(s) per MPI task
Lattice spacing in x,y,z = 4.2426407 4.2426407 4.2426407
Created orthogonal box = (-2121.3203 -50 -50) to (2121.3203 50 50)
  2 by 1 by 1 MPI processor grid
Created 1000 atoms
  using lattice units in orthogonal box = (-2121.3203 -50 -50) to (2121.3203 50 50)
  create_atoms CPU = 0.001 seconds
Lattice spacing in x,y,z = 3 3 3
Created 1001 atoms
  using lattice units in orthogonal box = (-2121.3203 -50 -50) to (2121.3203 50 50)
  create_atoms CPU = 0.001 seconds
Setting atom values ...
  1000 settings made for diameter
Setting atom values ...
  1000 settings made for mass
Setting atom values ...
  1001 settings made for diameter
Setting atom values ...
  1001 settings made for mass
1000 atoms in group substrate
1001 atoms in group slider1
  1 rigid bodies with 1001 atoms
Generated 0 of 1 mixed pair_coeff terms from geometric mixing rule
Neighbor list info ...
  update every 1 steps, delay 0 steps, check yes
  max neighbors/atom: 2000, page size: 100000
  master list distance cutoff = 3.1
  ghost atom cutoff = 3.1
  binsize = 1.55, bins = 2738 65 65
  1 neighbor lists, perpetual/occasional/extra = 1 0 0
  (1) pair granular, perpetual
      attributes: half, newton on, size, history
      pair build: half/size/bin/newton
      stencil: half/bin/3d
      bin: standard
Setting up Verlet run ...
  Unit style    : micro
  Current step  : 0
  Time step     : 1e-05
Per MPI rank memory allocation (min/avg/max) = 38.47 | 38.47 | 38.47 Mbytes
   Step           Lx             Ly             Lz           Press           Pxx            Pyy            Pzz           KinEng         PotEng          Temp          c_1[1]         c_1[2]         c_1[3]    
         0   4242.6407      100            100            0              0              0              0              0              0              0              1.1965779e-13  0              6            
    100000   4242.6407      100            100            0.009961263   -2.3799838e-36  0              0.0573482      0              0              0              1.1965779e-13  0              3.3284284    
    200000   4242.6407      100            100            0.0044876897  -1.523184e-34   0              0.019983897    0              0              0              1.1965779e-13  0              3.0775657    
    300000   4242.6407      100            100            0.00027467184 -2.6655818e-34  0              0.00084904538  0              0              0              1.1965779e-13  0              3.0453181    
    400000   4242.6407      100            100            0.00072898765 -1.5231714e-34  0              0.0023678877   0              0              0              1.1965779e-13  0              3.0029163    
    500000   4242.6407      100            100            0.0046567925  -0.0072037404   0              0.021206136    0              0              0              1.1965779e-13  0              2.9972061    
    600000   4242.6407      100            100            0.02597778    -0.019747254    0              0.097682406    0              0              0              1.1965779e-13  0              2.9940946    
    700000   4242.6407      100            100            0.0209388     -0.018503331    0              0.081319732    0              0              0              1.1965779e-13  0              2.9946242    
    800000   4242.6407      100            100            0.018659644   -0.018459515    0              0.074438454    0              0              0              1.1965779e-13  0              2.9948593    
    900000   4242.6407      100            100            0.017807733   -0.018568677    0              0.07199188     0              0              0              1.1965779e-13  0              2.994945     
   1000000   4242.6407      100            100            0.017534237   -0.018522324    0              0.071125035    0              0              0              1.1965779e-13  0              2.9949756    
   1100000   4242.6407      100            100            0.017433956   -0.018519033    0              0.0708209      0              0              0              1.1965779e-13  0              2.9949864    
   1200000   4242.6407      100            100            0.017399344   -0.018517841    0              0.070715873    0              0              0              1.1965779e-13  0              2.9949901    
   1300000   4242.6407      100            100            0.017387633   -0.018517432    0              0.07068033     0              0              0              1.1965779e-13  0              2.9949913    
   1400000   4242.6407      100            100            0.017383765   -0.018517297    0              0.070668591    0              0              0              1.1965779e-13  0              2.9949917    
   1500000   4242.6407      100            100            0.017382526   -0.018517253    0              0.07066483     0              0              0              1.1965779e-13  0              2.9949919    
   1600000   4242.6407      100            100            0.017382144   -0.01851724     0              0.070663673    0              0              0              1.1965779e-13  0              2.9949919    
   1700000   4242.6407      100            100            0.017382034   -0.018517236    0              0.070663337    0              0              0              1.1965779e-13  0              2.9949919    
   1800000   4242.6407      100            100            0.017382004   -0.018517235    0              0.070663248    0              0              0              1.1965779e-13  0              2.9949919    
   1900000   4242.6407      100            100            0.017381998   -0.018517235    0              0.070663228    0              0              0              1.1965779e-13  0              2.9949919    
   2000000   4242.6407      100            100            0.017381997   -0.018517235    0              0.070663226    0              0              0              1.1965779e-13  0              2.9949919    
   2100000   4242.6407      100            100            0.017381997   -0.018517235    0              0.070663227    0              0              0              1.1965779e-13  0              2.9949919    
   2200000   4242.6407      100            100            0.017381998   -0.018517235    0              0.070663228    0              0              0              1.1965779e-13  0              2.9949919    
   2300000   4242.6407      100            100            0.017381998   -0.018517235    0              0.070663229    0              0              0              1.1965779e-13  0              2.9949919    
   2400000   4242.6407      100            100            0.017381998   -0.018517235    0              0.070663229    0              0              0              1.1965779e-13  0              2.9949919    
   2500000   4242.6407      100            100            0.017381998   -0.018517235    0              0.070663229    0              0              0              1.1965779e-13  0              2.9949919    
   2600000   4242.6407      100            100            0.017381998   -0.018517235    0              0.070663229    0              0              0              1.1965779e-13  0              2.9949919    
   2700000   4242.6407      100            100            0.017381998   -0.018517235    0              0.07066323     0              0              0              1.1965779e-13  0              2.9949919    
   2800000   4242.6407      100            100            0.017381998   -0.018517235    0              0.07066323     0              0              0              1.1965779e-13  0              2.9949919    
   2900000   4242.6407      100            100            0.017381998   -0.018517235    0              0.07066323     0              0              0              1.1965779e-13  0              2.9949919    
   3000000   4242.6407      100            100            0.017381998   -0.018517235    0              0.07066323     0              0              0              1.1965779e-13  0              2.9949919    
Loop time of 316.068 on 2 procs for 3000000 steps with 2001 atoms

Performance: 8200764.551 ns/day, 0.000 hours/ns, 9491.626 timesteps/s
99.9% CPU use with 2 MPI tasks x 1 OpenMP threads

MPI task timing breakdown:
Section |  min time  |  avg time  |  max time  |%varavg| %total
---------------------------------------------------------------
Pair    | 81.014     | 81.263     | 81.512     |   2.8 | 25.71
Neigh   | 1.5311     | 1.5312     | 1.5312     |   0.0 |  0.48
Comm    | 11.987     | 12.128     | 12.268     |   4.0 |  3.84
Output  | 0.29581    | 0.29599    | 0.29617    |   0.0 |  0.09
Modify  | 200.44     | 200.74     | 201.03     |   2.1 | 63.51
Other   |            | 20.11      |            |       |  6.36

Nlocal:         1000.5 ave        1001 max        1000 min
Histogram: 1 0 0 0 0 0 0 0 0 1
Nghost:            2.5 ave           3 max           2 min
Histogram: 1 0 0 0 0 0 0 0 0 1
Neighs:          685.5 ave         686 max         685 min
Histogram: 1 0 0 0 0 0 0 0 0 1

Total # of neighbors = 1371
Ave neighs/atom = 0.68515742
Neighbor list builds = 164
Dangerous builds = 0
  using 1 OpenMP thread(s) per MPI task
Lattice spacing in x,y,z = 4.2426407 4.2426407 4.2426407
Created orthogonal box = (-2121.3203 -50 -50) to (2121.3203 50 50)
  2 by 1 by 1 MPI processor grid
Created 1000 atoms
  using lattice units in orthogonal box = (-2121.3203 -50 -50) to (2121.3203 50 50)
  create_atoms CPU = 0.001 seconds
Lattice spacing in x,y,z = 3 3 3
Created 1001 atoms
  using lattice units in orthogonal box = (-2121.3203 -50 -50) to (2121.3203 50 50)
  create_atoms CPU = 0.001 seconds
Setting atom values ...
  1000 settings made for diameter
Setting atom values ...
  1000 settings made for mass
Setting atom values ...
  1001 settings made for diameter
Setting atom values ...
  1001 settings made for mass
1000 atoms in group substrate
1001 atoms in group slider1
  1 rigid bodies with 1001 atoms
Generated 0 of 1 mixed pair_coeff terms from geometric mixing rule
Neighbor list info ...
  update every 1 steps, delay 0 steps, check yes
  max neighbors/atom: 2000, page size: 100000
  master list distance cutoff = 3.1
  ghost atom cutoff = 3.1
  binsize = 1.55, bins = 2738 65 65
  1 neighbor lists, perpetual/occasional/extra = 1 0 0
  (1) pair granular, perpetual
      attributes: half, newton on, size, history
      pair build: half/size/bin/newton
      stencil: half/bin/3d
      bin: standard
Setting up Verlet run ...
  Unit style    : micro
  Current step  : 0
  Time step     : 1e-05
Per MPI rank memory allocation (min/avg/max) = 38.47 | 38.47 | 38.47 Mbytes
   Step           Lx             Ly             Lz           Press           Pxx            Pyy            Pzz           KinEng         PotEng          Temp          c_1[1]         c_1[2]         c_1[3]    
         0   4242.6407      100            100            0              0              0              0              0              0              0              1.1965779e-13  0              6            
    100000   4242.6407      100            100            0.0099614422  -9.519935e-36   0              0.057350046    0              0              0              1.1965779e-13  0              3.328409     
    200000   4242.6407      100            100            0.0044883465  -3.0463459e-34  0              0.019987913    0              0              0              1.1965779e-13  0              3.0775332    
    300000   4242.6407      100            100            0.00027656416  1.0788778e-38  0              0.0008550677   0              0              0              1.1965779e-13  0              3.0453239    
    400000   4242.6407      100            100            0.00073353597  1.5232069e-34  0              0.0023838009   0              0              0              1.1965779e-13  0              3.0028753    
    500000   4242.6407      100            100            0.004431399   -0.0067248583   0              0.020048671    0              0              0              1.1965779e-13  0              2.997285     
    600000   4242.6407      100            100            0.025475884   -0.019728398    0              0.096158687    0              0              0              1.1965779e-13  0              2.9941462    
    700000   4242.6407      100            100            0.020885539   -0.018525637    0              0.081182285    0              0              0              1.1965779e-13  0              2.9946336    
    800000   4242.6407      100            100            0.018681553   -0.018470129    0              0.074514787    0              0              0              1.1965779e-13  0              2.9948616    
    900000   4242.6407      100            100            0.017832823   -0.018569743    0              0.072068211    0              0              0              1.1965779e-13  0              2.9949475    
   1000000   4242.6407      100            100            0.017549497   -0.01852697     0              0.07117546     0              0              0              1.1965779e-13  0              2.9949791    
   1100000   4242.6407      100            100            0.017442213   -0.018522947    0              0.070849587    0              0              0              1.1965779e-13  0              2.9949907    
   1200000   4242.6407      100            100            0.017403145   -0.018521409    0              0.070730844    0              0              0              1.1965779e-13  0              2.9949949    
   1300000   4242.6407      100            100            0.017388959   -0.018520841    0              0.070687718    0              0              0              1.1965779e-13  0              2.9949964    
   1400000   4242.6407      100            100            0.017383826   -0.018520635    0              0.070672114    0              0              0              1.1965779e-13  0              2.994997     
   1500000   4242.6407      100            100            0.017381977   -0.01852056     0              0.07066649     0              0              0              1.1965779e-13  0              2.9949972    
   1600000   4242.6407      100            100            0.017381313   -0.018520533    0              0.070664473    0              0              0              1.1965779e-13  0              2.9949972    
   1700000   4242.6407      100            100            0.017381076   -0.018520524    0              0.070663752    0              0              0              1.1965779e-13  0              2.9949973    
   1800000   4242.6407      100            100            0.017380992   -0.01852052     0              0.070663495    0              0              0              1.1965779e-13  0              2.9949973    
   1900000   4242.6407      100            100            0.017380962   -0.018520519    0              0.070663405    0              0              0              1.1965779e-13  0              2.9949973    
   2000000   4242.6407      100            100            0.017380951   -0.018520519    0              0.070663373    0              0              0              1.1965779e-13  0              2.9949973    
   2100000   4242.6407      100            100            0.017380948   -0.018520519    0              0.070663362    0              0              0              1.1965779e-13  0              2.9949973    
   2200000   4242.6407      100            100            0.017380946   -0.018520519    0              0.070663358    0              0              0              1.1965779e-13  0              2.9949973    
   2300000   4242.6407      100            100            0.017380946   -0.018520519    0              0.070663356    0              0              0              1.1965779e-13  0              2.9949973    
   2400000   4242.6407      100            100            0.017380946   -0.018520519    0              0.070663356    0              0              0              1.1965779e-13  0              2.9949973    
   2500000   4242.6407      100            100            0.017380946   -0.018520519    0              0.070663356    0              0              0              1.1965779e-13  0              2.9949973    
   2600000   4242.6407      100            100            0.017380946   -0.018520519    0              0.070663356    0              0              0              1.1965779e-13  0              2.9949973    
   2700000   4242.6407      100            100            0.017380946   -0.018520519    0              0.070663356    0              0              0              1.1965779e-13  0              2.9949973    
   2800000   4242.6407      100            100            0.017380946   -0.018520519    0              0.070663356    0              0              0              1.1965779e-13  0              2.9949973    
   2900000   4242.6407      100            100            0.017380946   -0.018520519    0              0.070663356    0              0              0              1.1965779e-13  0              2.9949973    
   3000000   4242.6407      100            100            0.017380946   -0.018520519    0              0.070663356    0              0              0              1.1965779e-13  0              2.9949973    
Loop time of 308.714 on 2 procs for 3000000 steps with 2001 atoms

Performance: 8396122.709 ns/day, 0.000 hours/ns, 9717.735 timesteps/s
99.9% CPU use with 2 MPI tasks x 1 OpenMP threads

MPI task timing breakdown:
Section |  min time  |  avg time  |  max time  |%varavg| %total
---------------------------------------------------------------
Pair    | 77.81      | 78.47      | 79.129     |   7.4 | 25.42
Neigh   | 1.4912     | 1.4912     | 1.4913     |   0.0 |  0.48
Comm    | 11.173     | 11.776     | 12.379     |  17.6 |  3.81
Output  | 0.29778    | 0.2982     | 0.29862    |   0.1 |  0.10
Modify  | 196.49     | 196.51     | 196.54     |   0.2 | 63.66
Other   |            | 20.16      |            |       |  6.53

Nlocal:         1000.5 ave        1001 max        1000 min
Histogram: 1 0 0 0 0 0 0 0 0 1
Nghost:            2.5 ave           3 max           2 min
Histogram: 1 0 0 0 0 0 0 0 0 1
Neighs:          686.5 ave         687 max         686 min
Histogram: 1 0 0 0 0 0 0 0 0 1

Total # of neighbors = 1373
Ave neighs/atom = 0.68615692
Neighbor list builds = 164
Dangerous builds = 0
  using 1 OpenMP thread(s) per MPI task
Lattice spacing in x,y,z = 4.2426407 4.2426407 4.2426407
Created orthogonal box = (-2121.3203 -50 -50) to (2121.3203 50 50)
  2 by 1 by 1 MPI processor grid
Created 1000 atoms
  using lattice units in orthogonal box = (-2121.3203 -50 -50) to (2121.3203 50 50)
  create_atoms CPU = 0.001 seconds
Lattice spacing in x,y,z = 3 3 3
Created 1001 atoms
  using lattice units in orthogonal box = (-2121.3203 -50 -50) to (2121.3203 50 50)
  create_atoms CPU = 0.001 seconds
Setting atom values ...
  1000 settings made for diameter
Setting atom values ...
  1000 settings made for mass
Setting atom values ...
  1001 settings made for diameter
Setting atom values ...
  1001 settings made for mass
1000 atoms in group substrate
1001 atoms in group slider1
  1 rigid bodies with 1001 atoms
Generated 0 of 1 mixed pair_coeff terms from geometric mixing rule
Neighbor list info ...
  update every 1 steps, delay 0 steps, check yes
  max neighbors/atom: 2000, page size: 100000
  master list distance cutoff = 3.1
  ghost atom cutoff = 3.1
  binsize = 1.55, bins = 2738 65 65
  1 neighbor lists, perpetual/occasional/extra = 1 0 0
  (1) pair granular, perpetual
      attributes: half, newton on, size, history
      pair build: half/size/bin/newton
      stencil: half/bin/3d
      bin: standard
Setting up Verlet run ...
  Unit style    : micro
  Current step  : 0
  Time step     : 1e-05
Per MPI rank memory allocation (min/avg/max) = 38.47 | 38.47 | 38.47 Mbytes
   Step           Lx             Ly             Lz           Press           Pxx            Pyy            Pzz           KinEng         PotEng          Temp          c_1[1]         c_1[2]         c_1[3]    
         0   4242.6407      100            100            0              0              0              0              0              0              0              1.1965779e-13  0              6            
    100000   4242.6407      100            100            0.0099616387   4.5695783e-34  0              0.057352072    0              0              0              1.1965779e-13  0              3.3283876    
    200000   4242.6407      100            100            0.0044890702   1.5232036e-34  0              0.01999234     0              0              0              1.1965779e-13  0              3.0774973    
    300000   4242.6407      100            100            0.00027865286  6.0928288e-34  0              0.00086171777  0              0              0              1.1965779e-13  0              3.0453301    
    400000   4242.6407      100            100            0.00073854856 -4.7599676e-36  0              0.0024013549   0              0              0              1.1965779e-13  0              3.0028296    
    500000   4242.6407      100            100            0.0041982492  -0.0062379378   0              0.01885971     0              0              0              1.1965779e-13  0              2.9973683    
    600000   4242.6407      100            100            0.024829685   -0.019687627    0              0.094180331    0              0              0              1.1965779e-13  0              2.9942127    
    700000   4242.6407      100            100            0.020719409   -0.018552794    0              0.08071116     0              0              0              1.1965779e-13  0              2.9946545    
    800000   4242.6407      100            100            0.018632997   -0.01848275     0              0.074381754    0              0              0              1.1965779e-13  0              2.9948717    
    900000   4242.6407      100            100            0.017814297   -0.018579938    0              0.072022831    0              0              0              1.1965779e-13  0              2.9949548    
   1000000   4242.6407      100            100            0.017540537   -0.01853912     0              0.071160731    0              0              0              1.1965779e-13  0              2.9949854    
   1100000   4242.6407      100            100            0.017436946   -0.018534706    0              0.070845546    0              0              0              1.1965779e-13  0              2.9949966    
   1200000   4242.6407      100            100            0.01739905    -0.018533019    0              0.070730168    0              0              0              1.1965779e-13  0              2.9950008    
   1300000   4242.6407      100            100            0.017385174   -0.018532392    0              0.070687915    0              0              0              1.1965779e-13  0              2.9950023    
   1400000   4242.6407      100            100            0.017380093   -0.01853216     0              0.070672438    0              0              0              1.1965779e-13  0              2.9950028    
   1500000   4242.6407      100            100            0.017378232   -0.018532075    0              0.07066677     0              0              0              1.1965779e-13  0              2.995003     
   1600000   4242.6407      100            100            0.01737755    -0.018532044    0              0.070664694    0              0              0              1.1965779e-13  0              2.9950031    
   1700000   4242.6407      100            100            0.0173773     -0.018532033    0              0.070663933    0              0              0              1.1965779e-13  0              2.9950031    
   1800000   4242.6407      100            100            0.017377209   -0.018532028    0              0.070663655    0              0              0              1.1965779e-13  0              2.9950031    
   1900000   4242.6407      100            100            0.017377175   -0.018532027    0              0.070663553    0              0              0              1.1965779e-13  0              2.9950031    
   2000000   4242.6407      100            100            0.017377163   -0.018532026    0              0.070663516    0              0              0              1.1965779e-13  0              2.9950032    
   2100000   4242.6407      100            100            0.017377159   -0.018532026    0              0.070663502    0              0              0              1.1965779e-13  0              2.9950032    
   2200000   4242.6407      100            100            0.017377157   -0.018532026    0              0.070663497    0              0              0              1.1965779e-13  0              2.9950032    
   2300000   4242.6407      100            100            0.017377156   -0.018532026    0              0.070663495    0              0              0              1.1965779e-13  0              2.9950032    
   2400000   4242.6407      100            100            0.017377156   -0.018532026    0              0.070663495    0              0              0              1.1965779e-13  0              2.9950032    
   2500000   4242.6407      100            100            0.017377156   -0.018532026    0              0.070663494    0              0              0              1.1965779e-13  0              2.9950032    
   2600000   4242.6407      100            100            0.017377156   -0.018532026    0              0.070663494    0              0              0              1.1965779e-13  0              2.9950032    
   2700000   4242.6407      100            100            0.017377156   -0.018532026    0              0.070663494    0              0              0              1.1965779e-13  0              2.9950032    
   2800000   4242.6407      100            100            0.017377156   -0.018532026    0              0.070663494    0              0              0              1.1965779e-13  0              2.9950032    
   2900000   4242.6407      100            100            0.017377156   -0.018532026    0              0.070663494    0              0              0              1.1965779e-13  0              2.9950032    
   3000000   4242.6407      100            100            0.017377156   -0.018532026    0              0.070663494    0              0              0              1.1965779e-13  0              2.9950032    
Loop time of 314.341 on 2 procs for 3000000 steps with 2001 atoms

Performance: 8245834.851 ns/day, 0.000 hours/ns, 9543.790 timesteps/s
99.9% CPU use with 2 MPI tasks x 1 OpenMP threads

MPI task timing breakdown:
Section |  min time  |  avg time  |  max time  |%varavg| %total
---------------------------------------------------------------
Pair    | 79.126     | 79.944     | 80.761     |   9.1 | 25.43
Neigh   | 1.4712     | 1.4714     | 1.4715     |   0.0 |  0.47
Comm    | 12.021     | 12.885     | 13.749     |  24.1 |  4.10
Output  | 0.29342    | 0.29384    | 0.29426    |   0.1 |  0.09
Modify  | 198.61     | 199.27     | 199.92     |   4.6 | 63.39
Other   |            | 20.48      |            |       |  6.52

Nlocal:         1000.5 ave        1001 max        1000 min
Histogram: 1 0 0 0 0 0 0 0 0 1
Nghost:            2.5 ave           3 max           2 min
Histogram: 1 0 0 0 0 0 0 0 0 1
Neighs:          686.5 ave         687 max         686 min
Histogram: 1 0 0 0 0 0 0 0 0 1

Total # of neighbors = 1373
Ave neighs/atom = 0.68615692
Neighbor list builds = 164
Dangerous builds = 0
  using 1 OpenMP thread(s) per MPI task
Lattice spacing in x,y,z = 4.2426407 4.2426407 4.2426407
Created orthogonal box = (-2121.3203 -50 -50) to (2121.3203 50 50)
  2 by 1 by 1 MPI processor grid
Created 1000 atoms
  using lattice units in orthogonal box = (-2121.3203 -50 -50) to (2121.3203 50 50)
  create_atoms CPU = 0.001 seconds
Lattice spacing in x,y,z = 3 3 3
Created 1001 atoms
  using lattice units in orthogonal box = (-2121.3203 -50 -50) to (2121.3203 50 50)
  create_atoms CPU = 0.001 seconds
Setting atom values ...
  1000 settings made for diameter
Setting atom values ...
  1000 settings made for mass
Setting atom values ...
  1001 settings made for diameter
Setting atom values ...
  1001 settings made for mass
1000 atoms in group substrate
1001 atoms in group slider1
  1 rigid bodies with 1001 atoms
Generated 0 of 1 mixed pair_coeff terms from geometric mixing rule
Neighbor list info ...
  update every 1 steps, delay 0 steps, check yes
  max neighbors/atom: 2000, page size: 100000
  master list distance cutoff = 3.1
  ghost atom cutoff = 3.1
  binsize = 1.55, bins = 2738 65 65
  1 neighbor lists, perpetual/occasional/extra = 1 0 0
  (1) pair granular, perpetual
      attributes: half, newton on, size, history
      pair build: half/size/bin/newton
      stencil: half/bin/3d
      bin: standard
Setting up Verlet run ...
  Unit style    : micro
  Current step  : 0
  Time step     : 1e-05
Per MPI rank memory allocation (min/avg/max) = 38.47 | 38.47 | 38.47 Mbytes
   Step           Lx             Ly             Lz           Press           Pxx            Pyy            Pzz           KinEng         PotEng          Temp          c_1[1]         c_1[2]         c_1[3]    
         0   4242.6407      100            100            0              0              0              0              0              0              0              1.1965779e-13  0              6            
    100000   4242.6407      100            100            0.0099618524   1.3615504e-40  0              0.057354279    0              0              0              1.1965779e-13  0              3.3283641    
    200000   4242.6407      100            100            0.0044898609  -6.8543465e-34  0              0.019997178    0              0              0              1.1965779e-13  0              3.0774578    
    300000   4242.6407      100            100            0.00028093845  1.0662371e-33  0              0.00086899798  0              0              0              1.1965779e-13  0              3.0453368    
    400000   4242.6407      100            100            0.00074402625 -9.139105e-34   0              0.0024205575   0              0              0              1.1965779e-13  0              3.0027792    
    500000   4242.6407      100            100            0.0039589672  -0.0057626373   0              0.017663809    0              0              0              1.1965779e-13  0              2.9974551    
    600000   4242.6407      100            100            0.024065806   -0.019500655    0              0.091702884    0              0              0              1.1965779e-13  0              2.9942959    
    700000   4242.6407      100            100            0.020448211   -0.018490066    0              0.079835026    0              0              0              1.1965779e-13  0              2.9946896    
    800000   4242.6407      100            100            0.0185242     -0.018415117    0              0.073987759    0              0              0              1.1965779e-13  0              2.9948914    
    900000   4242.6407      100            100            0.017771345   -0.018510981    0              0.071825023    0              0              0              1.1965779e-13  0              2.9949679    
   1000000   4242.6407      100            100            0.017531134   -0.018470722    0              0.071064124    0              0              0              1.1965779e-13  0              2.9949951    
   1100000   4242.6407      100            100            0.017444504   -0.018466635    0              0.070800148    0              0              0              1.1965779e-13  0              2.9950046    
   1200000   4242.6407      100            100            0.01741479    -0.018465181    0              0.07070955     0              0              0              1.1965779e-13  0              2.9950079    
   1300000   4242.6407      100            100            0.017404718   -0.01846468     0              0.070678835    0              0              0              1.1965779e-13  0              2.995009     
   1400000   4242.6407      100            100            0.017401353   -0.018464512    0              0.070668572    0              0              0              1.1965779e-13  0              2.9950094    
   1500000   4242.6407      100            100            0.017400249   -0.018464456    0              0.070665202    0              0              0              1.1965779e-13  0              2.9950095    
   1600000   4242.6407      100            100            0.017399894   -0.018464438    0              0.07066412     0              0              0              1.1965779e-13  0              2.9950095    
   1700000   4242.6407      100            100            0.017399783   -0.018464433    0              0.070663783    0              0              0              1.1965779e-13  0              2.9950095    
   1800000   4242.6407      100            100            0.01739975    -0.018464431    0              0.070663682    0              0              0              1.1965779e-13  0              2.9950095    
   1900000   4242.6407      100            100            0.017399741   -0.018464431    0              0.070663653    0              0              0              1.1965779e-13  0              2.9950095    
   2000000   4242.6407      100            100            0.017399739   -0.01846443     0              0.070663646    0              0              0              1.1965779e-13  0              2.9950095    
   2100000   4242.6407      100            100            0.017399738   -0.01846443     0              0.070663645    0              0              0              1.1965779e-13  0              2.9950095    
   2200000   4242.6407      100            100            0.017399738   -0.01846443     0              0.070663644    0              0              0              1.1965779e-13  0              2.9950095    
   2300000   4242.6407      100            100            0.017399738   -0.01846443     0              0.070663645    0              0              0              1.1965779e-13  0              2.9950095    
   2400000   4242.6407      100            100            0.017399738   -0.01846443     0              0.070663645    0              0              0              1.1965779e-13  0              2.9950095    
   2500000   4242.6407      100            100            0.017399738   -0.01846443     0              0.070663645    0              0              0              1.1965779e-13  0              2.9950095    
   2600000   4242.6407      100            100            0.017399738   -0.01846443     0              0.070663645    0              0              0              1.1965779e-13  0              2.9950095    
   2700000   4242.6407      100            100            0.017399738   -0.01846443     0              0.070663645    0              0              0              1.1965779e-13  0              2.9950095    
   2800000   4242.6407      100            100            0.017399738   -0.01846443     0              0.070663645    0              0              0              1.1965779e-13  0              2.9950095    
   2900000   4242.6407      100            100            0.017399738   -0.01846443     0              0.070663645    0              0              0              1.1965779e-13  0              2.9950095    
   3000000   4242.6407      100            100            0.017399738   -0.01846443     0              0.070663645    0              0              0              1.1965779e-13  0              2.9950095    
Loop time of 308.198 on 2 procs for 3000000 steps with 2001 atoms

Performance: 8410189.329 ns/day, 0.000 hours/ns, 9734.015 timesteps/s
99.9% CPU use with 2 MPI tasks x 1 OpenMP threads

MPI task timing breakdown:
Section |  min time  |  avg time  |  max time  |%varavg| %total
---------------------------------------------------------------
Pair    | 76.805     | 77.812     | 78.819     |  11.4 | 25.25
Neigh   | 1.5093     | 1.5095     | 1.5097     |   0.0 |  0.49
Comm    | 12.032     | 13.068     | 14.105     |  28.7 |  4.24
Output  | 0.29513    | 0.29529    | 0.29545    |   0.0 |  0.10
Modify  | 195.41     | 195.53     | 195.64     |   0.8 | 63.44
Other   |            | 19.99      |            |       |  6.48

Nlocal:         1000.5 ave        1001 max        1000 min
Histogram: 1 0 0 0 0 0 0 0 0 1
Nghost:            2.5 ave           3 max           2 min
Histogram: 1 0 0 0 0 0 0 0 0 1
Neighs:          685.5 ave         686 max         685 min
Histogram: 1 0 0 0 0 0 0 0 0 1

Total # of neighbors = 1371
Ave neighs/atom = 0.68515742
Neighbor list builds = 164
Dangerous builds = 0
  using 1 OpenMP thread(s) per MPI task
Lattice spacing in x,y,z = 4.2426407 4.2426407 4.2426407
Created orthogonal box = (-2121.3203 -50 -50) to (2121.3203 50 50)
  2 by 1 by 1 MPI processor grid
Created 1000 atoms
  using lattice units in orthogonal box = (-2121.3203 -50 -50) to (2121.3203 50 50)
  create_atoms CPU = 0.001 seconds
Lattice spacing in x,y,z = 3 3 3
Created 1001 atoms
  using lattice units in orthogonal box = (-2121.3203 -50 -50) to (2121.3203 50 50)
  create_atoms CPU = 0.001 seconds
Setting atom values ...
  1000 settings made for diameter
Setting atom values ...
  1000 settings made for mass
Setting atom values ...
  1001 settings made for diameter
Setting atom values ...
  1001 settings made for mass
1000 atoms in group substrate
1001 atoms in group slider1
  1 rigid bodies with 1001 atoms
Generated 0 of 1 mixed pair_coeff terms from geometric mixing rule
Neighbor list info ...
  update every 1 steps, delay 0 steps, check yes
  max neighbors/atom: 2000, page size: 100000
  master list distance cutoff = 3.1
  ghost atom cutoff = 3.1
  binsize = 1.55, bins = 2738 65 65
  1 neighbor lists, perpetual/occasional/extra = 1 0 0
  (1) pair granular, perpetual
      attributes: half, newton on, size, history
      pair build: half/size/bin/newton
      stencil: half/bin/3d
      bin: standard
Setting up Verlet run ...
  Unit style    : micro
  Current step  : 0
  Time step     : 1e-05
Per MPI rank memory allocation (min/avg/max) = 38.47 | 38.47 | 38.47 Mbytes
   Step           Lx             Ly             Lz           Press           Pxx            Pyy            Pzz           KinEng         PotEng          Temp          c_1[1]         c_1[2]         c_1[3]    
         0   4242.6407      100            100            0              0              0              0              0              0              0              1.1965779e-13  0              6            
    100000   4242.6407      100            100            0.0099620834   2.6655854e-34  0              0.057356667    0              0              0              1.1965779e-13  0              3.3283386    
    200000   4242.6407      100            100            0.0044907189  -3.8079641e-35  0              0.02000243     0              0              0              1.1965779e-13  0              3.0774148    
    300000   4242.6407      100            100            0.00028342222  1.5231952e-34  0              0.00087691339  0              0              0              1.1965779e-13  0              3.0453438    
    400000   4242.6407      100            100            0.00074997247  1.5232067e-34  0              0.002441426    0              0              0              1.1965779e-13  0              3.0027239    
    500000   4242.6407      100            100            0.0037321785  -0.0052590826   0              0.016477007    0              0              0              1.1965779e-13  0              2.9975443    
    600000   4242.6407      100            100            0.023083764   -0.019437927    0              0.088695292    0              0              0              1.1965779e-13  0              2.9943975    
    700000   4242.6407      100            100            0.020057174   -0.018329785    0              0.07850189     0              0              0              1.1965779e-13  0              2.9947407    
    800000   4242.6407      100            100            0.018346737   -0.018260753    0              0.073301054    0              0              0              1.1965779e-13  0              2.9949219    
    900000   4242.6407      100            100            0.017702212   -0.018356294    0              0.071462945    0              0              0              1.1965779e-13  0              2.9949874    
   1000000   4242.6407      100            100            0.01752104    -0.018320864    0              0.070883985    0              0              0              1.1965779e-13  0              2.9950083    
   1100000   4242.6407      100            100            0.017465886   -0.018317678    0              0.070715336    0              0              0              1.1965779e-13  0              2.9950145    
   1200000   4242.6407      100            100            0.017451507   -0.018316902    0              0.070671425    0              0              0              1.1965779e-13  0              2.9950161    
   1300000   4242.6407      100            100            0.017448546   -0.018316735    0              0.070662375    0              0              0              1.1965779e-13  0              2.9950165    
   1400000   4242.6407      100            100            0.017448341   -0.01831672     0              0.070661742    0              0              0              1.1965779e-13  0              2.9950165    
   1500000   4242.6407      100            100            0.017448591   -0.018316731    0              0.070662505    0              0              0              1.1965779e-13  0              2.9950165    
   1600000   4242.6407      100            100            0.0174488     -0.018316741    0              0.070663143    0              0              0              1.1965779e-13  0              2.9950165    
   1700000   4242.6407      100            100            0.017448918   -0.018316747    0              0.070663502    0              0              0              1.1965779e-13  0              2.9950164    
   1800000   4242.6407      100            100            0.017448975   -0.01831675     0              0.070663676    0              0              0              1.1965779e-13  0              2.9950164    
   1900000   4242.6407      100            100            0.017449001   -0.018316751    0              0.070663753    0              0              0              1.1965779e-13  0              2.9950164    
   2000000   4242.6407      100            100            0.017449011   -0.018316752    0              0.070663786    0              0              0              1.1965779e-13  0              2.9950164    
   2100000   4242.6407      100            100            0.017449016   -0.018316752    0              0.070663799    0              0              0              1.1965779e-13  0              2.9950164    
   2200000   4242.6407      100            100            0.017449018   -0.018316752    0              0.070663805    0              0              0              1.1965779e-13  0              2.9950164    
   2300000   4242.6407      100            100            0.017449018   -0.018316752    0              0.070663807    0              0              0              1.1965779e-13  0              2.9950164    
   2400000   4242.6407      100            100            0.017449018   -0.018316752    0              0.070663807    0              0              0              1.1965779e-13  0              2.9950164    
   2500000   4242.6407      100            100            0.017449018   -0.018316752    0              0.070663808    0              0              0              1.1965779e-13  0              2.9950164    
   2600000   4242.6407      100            100            0.017449019   -0.018316752    0              0.070663808    0              0              0              1.1965779e-13  0              2.9950164    
   2700000   4242.6407      100            100            0.017449019   -0.018316752    0              0.070663808    0              0              0              1.1965779e-13  0              2.9950164    
   2800000   4242.6407      100            100            0.017449019   -0.018316752    0              0.070663808    0              0              0              1.1965779e-13  0              2.9950164    
   2900000   4242.6407      100            100            0.017449019   -0.018316752    0              0.070663808    0              0              0              1.1965779e-13  0              2.9950164    
   3000000   4242.6407      100            100            0.017449019   -0.018316752    0              0.070663808    0              0              0              1.1965779e-13  0              2.9950164    
Loop time of 307.454 on 2 procs for 3000000 steps with 2001 atoms

Performance: 8430535.375 ns/day, 0.000 hours/ns, 9757.564 timesteps/s
99.9% CPU use with 2 MPI tasks x 1 OpenMP threads

MPI task timing breakdown:
Section |  min time  |  avg time  |  max time  |%varavg| %total
---------------------------------------------------------------
Pair    | 74.339     | 75.74      | 77.141     |  16.1 | 24.63
Neigh   | 1.4881     | 1.4889     | 1.4897     |   0.1 |  0.48
Comm    | 11.947     | 13.431     | 14.914     |  40.5 |  4.37
Output  | 0.2949     | 0.29511    | 0.29533    |   0.0 |  0.10
Modify  | 196.42     | 196.57     | 196.73     |   1.1 | 63.94
Other   |            | 19.93      |            |       |  6.48

Nlocal:         1000.5 ave        1001 max        1000 min
Histogram: 1 0 0 0 0 0 0 0 0 1
Nghost:            2.5 ave           3 max           2 min
Histogram: 1 0 0 0 0 0 0 0 0 1
Neighs:          685.5 ave         686 max         685 min
Histogram: 1 0 0 0 0 0 0 0 0 1

Total # of neighbors = 1371
Ave neighs/atom = 0.68515742
Neighbor list builds = 164
Dangerous builds = 0
  using 1 OpenMP thread(s) per MPI task
Lattice spacing in x,y,z = 4.2426407 4.2426407 4.2426407
Created orthogonal box = (-2121.3203 -50 -50) to (2121.3203 50 50)
  2 by 1 by 1 MPI processor grid
Created 1000 atoms
  using lattice units in orthogonal box = (-2121.3203 -50 -50) to (2121.3203 50 50)
  create_atoms CPU = 0.001 seconds
Lattice spacing in x,y,z = 3 3 3
Created 1001 atoms
  using lattice units in orthogonal box = (-2121.3203 -50 -50) to (2121.3203 50 50)
  create_atoms CPU = 0.001 seconds
Setting atom values ...
  1000 settings made for diameter
Setting atom values ...
  1000 settings made for mass
Setting atom values ...
  1001 settings made for diameter
Setting atom values ...
  1001 settings made for mass
1000 atoms in group substrate
1001 atoms in group slider1
  1 rigid bodies with 1001 atoms
Generated 0 of 1 mixed pair_coeff terms from geometric mixing rule
Neighbor list info ...
  update every 1 steps, delay 0 steps, check yes
  max neighbors/atom: 2000, page size: 100000
  master list distance cutoff = 3.1
  ghost atom cutoff = 3.1
  binsize = 1.55, bins = 2738 65 65
  1 neighbor lists, perpetual/occasional/extra = 1 0 0
  (1) pair granular, perpetual
      attributes: half, newton on, size, history
      pair build: half/size/bin/newton
      stencil: half/bin/3d
      bin: standard
Setting up Verlet run ...
  Unit style    : micro
  Current step  : 0
  Time step     : 1e-05
Per MPI rank memory allocation (min/avg/max) = 38.47 | 38.47 | 38.47 Mbytes
   Step           Lx             Ly             Lz           Press           Pxx            Pyy            Pzz           KinEng         PotEng          Temp          c_1[1]         c_1[2]         c_1[3]    
         0   4242.6407      100            100            0              0              0              0              0              0              0              1.1965779e-13  0              6            
    100000   4242.6407      100            100            0.0099623319   2.2847955e-34  0              0.057359239    0              0              0              1.1965779e-13  0              3.3283111    
    200000   4242.6407      100            100            0.0044916449  -1.5231522e-34  0              0.020008098    0              0              0              1.1965779e-13  0              3.0773683    
    300000   4242.6407      100            100            0.00028610539 -1.5231664e-34  0              0.00088546884  0              0              0              1.1965779e-13  0              3.0453512    
    400000   4242.6407      100            100            0.00075638788  6.0928262e-34  0              0.0024639683   0              0              0              1.1965779e-13  0              3.0026636    
    500000   4242.6407      100            100            0.0035096021  -0.0047745345   0              0.015321766    0              0              0              1.1965779e-13  0              2.9976345    
    600000   4242.6407      100            100            0.021893037   -0.019469509    0              0.085155951    0              0              0              1.1965779e-13  0              2.9945184    
    700000   4242.6407      100            100            0.019549679   -0.018045087    0              0.076694995    0              0              0              1.1965779e-13  0              2.9948089    
    800000   4242.6407      100            100            0.0180877     -0.018061684    0              0.072324923    0              0              0              1.1965779e-13  0              2.9949632    
    900000   4242.6407      100            100            0.017585343   -0.018200401    0              0.070956451    0              0              0              1.1965779e-13  0              2.9950126    
   1000000   4242.6407      100            100            0.017488838   -0.018176163    0              0.070642681    0              0              0              1.1965779e-13  0              2.9950243    
   1100000   4242.6407      100            100            0.017478436   -0.018173631    0              0.07060894     0              0              0              1.1965779e-13  0              2.9950257    
   1200000   4242.6407      100            100            0.017484583   -0.018173932    0              0.070627681    0              0              0              1.1965779e-13  0              2.9950251    
   1300000   4242.6407      100            100            0.017490451   -0.018174242    0              0.070645594    0              0              0              1.1965779e-13  0              2.9950245    
   1400000   4242.6407      100            100            0.017493795   -0.018174421    0              0.070655805    0              0              0              1.1965779e-13  0              2.9950241    
   1500000   4242.6407      100            100            0.017495381   -0.018174507    0              0.070660649    0              0              0              1.1965779e-13  0              2.995024     
   1600000   4242.6407      100            100            0.017496057   -0.018174544    0              0.070662716    0              0              0              1.1965779e-13  0              2.9950239    
   1700000   4242.6407      100            100            0.017496324   -0.018174559    0              0.070663532    0              0              0              1.1965779e-13  0              2.9950239    
   1800000   4242.6407      100            100            0.017496423   -0.018174564    0              0.070663833    0              0              0              1.1965779e-13  0              2.9950239    
   1900000   4242.6407      100            100            0.017496457   -0.018174566    0              0.070663937    0              0              0              1.1965779e-13  0              2.9950239    
   2000000   4242.6407      100            100            0.017496468   -0.018174567    0              0.070663971    0              0              0              1.1965779e-13  0              2.9950239    
   2100000   4242.6407      100            100            0.017496471   -0.018174567    0              0.07066398     0              0              0              1.1965779e-13  0              2.9950239    
   2200000   4242.6407      100            100            0.017496472   -0.018174567    0              0.070663983    0              0              0              1.1965779e-13  0              2.9950239    
   2300000   4242.6407      100            100            0.017496472   -0.018174567    0              0.070663983    0              0              0              1.1965779e-13  0              2.9950239    
   2400000   4242.6407      100            100            0.017496472   -0.018174567    0              0.070663983    0              0              0              1.1965779e-13  0              2.9950239    
   2500000   4242.6407      100            100            0.017496472   -0.018174567    0              0.070663983    0              0              0              1.1965779e-13  0              2.9950239    
   2600000   4242.6407      100            100            0.017496472   -0.018174567    0              0.070663983    0              0              0              1.1965779e-13  0              2.9950239    
   2700000   4242.6407      100            100            0.017496472   -0.018174567    0              0.070663983    0              0              0              1.1965779e-13  0              2.9950239    
   2800000   4242.6407      100            100            0.017496472   -0.018174567    0              0.070663983    0              0              0              1.1965779e-13  0              2.9950239    
   2900000   4242.6407      100            100            0.017496472   -0.018174567    0              0.070663983    0              0              0              1.1965779e-13  0              2.9950239    
   3000000   4242.6407      100            100            0.017496472   -0.018174567    0              0.070663983    0              0              0              1.1965779e-13  0              2.9950239    
Loop time of 311.534 on 2 procs for 3000000 steps with 2001 atoms

Performance: 8320132.207 ns/day, 0.000 hours/ns, 9629.783 timesteps/s
99.9% CPU use with 2 MPI tasks x 1 OpenMP threads

MPI task timing breakdown:
Section |  min time  |  avg time  |  max time  |%varavg| %total
---------------------------------------------------------------
Pair    | 75.86      | 75.957     | 76.055     |   1.1 | 24.38
Neigh   | 1.5247     | 1.5253     | 1.5258     |   0.0 |  0.49
Comm    | 12.352     | 12.452     | 12.551     |   2.8 |  4.00
Output  | 0.29256    | 0.29298    | 0.2934     |   0.1 |  0.09
Modify  | 200.04     | 200.58     | 201.12     |   3.8 | 64.38
Other   |            | 20.73      |            |       |  6.65

Nlocal:         1000.5 ave        1001 max        1000 min
Histogram: 1 0 0 0 0 0 0 0 0 1
Nghost:            2.5 ave           3 max           2 min
Histogram: 1 0 0 0 0 0 0 0 0 1
Neighs:          685.5 ave         686 max         685 min
Histogram: 1 0 0 0 0 0 0 0 0 1

Total # of neighbors = 1371
Ave neighs/atom = 0.68515742
Neighbor list builds = 164
Dangerous builds = 0
  using 1 OpenMP thread(s) per MPI task
Lattice spacing in x,y,z = 4.2426407 4.2426407 4.2426407
Created orthogonal box = (-2121.3203 -50 -50) to (2121.3203 50 50)
  2 by 1 by 1 MPI processor grid
Created 1000 atoms
  using lattice units in orthogonal box = (-2121.3203 -50 -50) to (2121.3203 50 50)
  create_atoms CPU = 0.001 seconds
Lattice spacing in x,y,z = 3 3 3
Created 1001 atoms
  using lattice units in orthogonal box = (-2121.3203 -50 -50) to (2121.3203 50 50)
  create_atoms CPU = 0.001 seconds
Setting atom values ...
  1000 settings made for diameter
Setting atom values ...
  1000 settings made for mass
Setting atom values ...
  1001 settings made for diameter
Setting atom values ...
  1001 settings made for mass
1000 atoms in group substrate
1001 atoms in group slider1
  1 rigid bodies with 1001 atoms
Generated 0 of 1 mixed pair_coeff terms from geometric mixing rule
Neighbor list info ...
  update every 1 steps, delay 0 steps, check yes
  max neighbors/atom: 2000, page size: 100000
  master list distance cutoff = 3.1
  ghost atom cutoff = 3.1
  binsize = 1.55, bins = 2738 65 65
  1 neighbor lists, perpetual/occasional/extra = 1 0 0
  (1) pair granular, perpetual
      attributes: half, newton on, size, history
      pair build: half/size/bin/newton
      stencil: half/bin/3d
      bin: standard
Setting up Verlet run ...
  Unit style    : micro
  Current step  : 0
  Time step     : 1e-05
Per MPI rank memory allocation (min/avg/max) = 38.47 | 38.47 | 38.47 Mbytes
   Step           Lx             Ly             Lz           Press           Pxx            Pyy            Pzz           KinEng         PotEng          Temp          c_1[1]         c_1[2]         c_1[3]    
         0   4242.6407      100            100            0              0              0              0              0              0              0              1.1965779e-13  0              6            
    100000   4242.6407      100            100            0.009962598    4.2168264e-40  0              0.057361994    0              0              0              1.1965779e-13  0              3.3282814    
    200000   4242.6407      100            100            0.0044926389   5.3311743e-34  0              0.020014185    0              0              0              1.1965779e-13  0              3.0773181    
    300000   4242.6407      100            100            0.00028898819 -3.0462786e-34  0              0.0008946661   0              0              0              1.1965779e-13  0              3.045359     
    400000   4242.6407      100            100            0.0007632732   1.3863727e-39  0              0.0024881934   0              0              0              1.1965779e-13  0              3.0025981    
    500000   4242.6407      100            100            0.0032864412  -0.0043494739   0              0.014224232    0              0              0              1.1965779e-13  0              2.9977244    
    600000   4242.6407      100            100            0.020506293   -0.019577434    0              0.081104778    0              0              0              1.1965779e-13  0              2.9946586    
    700000   4242.6407      100            100            0.018818984   -0.017984848    0              0.074442928    0              0              0              1.1965779e-13  0              2.9948938    
    800000   4242.6407      100            100            0.017744817   -0.01787744     0              0.071112065    0              0              0              1.1965779e-13  0              2.9950136    
    900000   4242.6407      100            100            0.017458061   -0.017992678    0              0.070366884    0              0              0              1.1965779e-13  0              2.9950415    
   1000000   4242.6407      100            100            0.017456504   -0.018021315    0              0.07039083     0              0              0              1.1965779e-13  0              2.9950412    
   1100000   4242.6407      100            100            0.01749823    -0.018020171    0              0.07051486     0              0              0              1.1965779e-13  0              2.995037     
   1200000   4242.6407      100            100            0.017525393   -0.018021713    0              0.070597891    0              0              0              1.1965779e-13  0              2.9950341    
   1300000   4242.6407      100            100            0.017538691   -0.018022467    0              0.070638541    0              0              0              1.1965779e-13  0              2.9950327    
   1400000   4242.6407      100            100            0.01754421    -0.018022781    0              0.070655413    0              0              0              1.1965779e-13  0              2.9950321    
   1500000   4242.6407      100            100            0.017546228   -0.018022896    0              0.07066158     0              0              0              1.1965779e-13  0              2.9950319    
   1600000   4242.6407      100            100            0.017546876   -0.018022933    0              0.070663562    0              0              0              1.1965779e-13  0              2.9950318    
   1700000   4242.6407      100            100            0.017547052   -0.018022944    0              0.0706641      0              0              0              1.1965779e-13  0              2.9950318    
   1800000   4242.6407      100            100            0.017547086   -0.018022946    0              0.070664204    0              0              0              1.1965779e-13  0              2.9950318    
   1900000   4242.6407      100            100            0.017547086   -0.018022946    0              0.070664203    0              0              0              1.1965779e-13  0              2.9950318    
   2000000   4242.6407      100            100            0.017547081   -0.018022945    0              0.070664188    0              0              0              1.1965779e-13  0              2.9950318    
   2100000   4242.6407      100            100            0.017547078   -0.018022945    0              0.070664178    0              0              0              1.1965779e-13  0              2.9950318    
   2200000   4242.6407      100            100            0.017547076   -0.018022945    0              0.070664173    0              0              0              1.1965779e-13  0              2.9950318    
   2300000   4242.6407      100            100            0.017547075   -0.018022945    0              0.070664171    0              0              0              1.1965779e-13  0              2.9950318    
   2400000   4242.6407      100            100            0.017547075   -0.018022945    0              0.070664171    0              0              0              1.1965779e-13  0              2.9950318    
   2500000   4242.6407      100            100            0.017547075   -0.018022945    0              0.07066417     0              0              0              1.1965779e-13  0              2.9950318    
   2600000   4242.6407      100            100            0.017547075   -0.018022945    0              0.07066417     0              0              0              1.1965779e-13  0              2.9950318    
   2700000   4242.6407      100            100            0.017547075   -0.018022945    0              0.07066417     0              0              0              1.1965779e-13  0              2.9950318    
   2800000   4242.6407      100            100            0.017547075   -0.018022945    0              0.07066417     0              0              0              1.1965779e-13  0              2.9950318    
   2900000   4242.6407      100            100            0.017547075   -0.018022945    0              0.07066417     0              0              0              1.1965779e-13  0              2.9950318    
   3000000   4242.6407      100            100            0.017547075   -0.018022945    0              0.07066417     0              0              0              1.1965779e-13  0              2.9950318    
Loop time of 309.213 on 2 procs for 3000000 steps with 2001 atoms

Performance: 8382574.220 ns/day, 0.000 hours/ns, 9702.053 timesteps/s
99.9% CPU use with 2 MPI tasks x 1 OpenMP threads

MPI task timing breakdown:
Section |  min time  |  avg time  |  max time  |%varavg| %total
---------------------------------------------------------------
Pair    | 77.339     | 78.069     | 78.799     |   8.3 | 25.25
Neigh   | 1.4589     | 1.46       | 1.4611     |   0.1 |  0.47
Comm    | 11.703     | 12.416     | 13.128     |  20.2 |  4.02
Output  | 0.29278    | 0.2933     | 0.29383    |   0.1 |  0.09
Modify  | 196.3      | 196.38     | 196.47     |   0.6 | 63.51
Other   |            | 20.59      |            |       |  6.66

Nlocal:         1000.5 ave        1001 max        1000 min
Histogram: 1 0 0 0 0 0 0 0 0 1
Nghost:            2.5 ave           3 max           2 min
Histogram: 1 0 0 0 0 0 0 0 0 1
Neighs:          685.5 ave         686 max         685 min
Histogram: 1 0 0 0 0 0 0 0 0 1

Total # of neighbors = 1371
Ave neighs/atom = 0.68515742
Neighbor list builds = 164
Dangerous builds = 0
  using 1 OpenMP thread(s) per MPI task
Lattice spacing in x,y,z = 4.2426407 4.2426407 4.2426407
Created orthogonal box = (-2121.3203 -50 -50) to (2121.3203 50 50)
  2 by 1 by 1 MPI processor grid
Created 1000 atoms
  using lattice units in orthogonal box = (-2121.3203 -50 -50) to (2121.3203 50 50)
  create_atoms CPU = 0.001 seconds
Lattice spacing in x,y,z = 3 3 3
Created 1001 atoms
  using lattice units in orthogonal box = (-2121.3203 -50 -50) to (2121.3203 50 50)
  create_atoms CPU = 0.001 seconds
Setting atom values ...
  1000 settings made for diameter
Setting atom values ...
  1000 settings made for mass
Setting atom values ...
  1001 settings made for diameter
Setting atom values ...
  1001 settings made for mass
1000 atoms in group substrate
1001 atoms in group slider1
  1 rigid bodies with 1001 atoms
Generated 0 of 1 mixed pair_coeff terms from geometric mixing rule
Neighbor list info ...
  update every 1 steps, delay 0 steps, check yes
  max neighbors/atom: 2000, page size: 100000
  master list distance cutoff = 3.1
  ghost atom cutoff = 3.1
  binsize = 1.55, bins = 2738 65 65
  1 neighbor lists, perpetual/occasional/extra = 1 0 0
  (1) pair granular, perpetual
      attributes: half, newton on, size, history
      pair build: half/size/bin/newton
      stencil: half/bin/3d
      bin: standard
Setting up Verlet run ...
  Unit style    : micro
  Current step  : 0
  Time step     : 1e-05
Per MPI rank memory allocation (min/avg/max) = 38.47 | 38.47 | 38.47 Mbytes
   Step           Lx             Ly             Lz           Press           Pxx            Pyy            Pzz           KinEng         PotEng          Temp          c_1[1]         c_1[2]         c_1[3]    
         0   4242.6407      100            100            0              0              0              0              0              0              0              1.1965779e-13  0              6            
    100000   4242.6407      100            100            0.0099628817   1.3327919e-34  0              0.057364933    0              0              0              1.1965779e-13  0              3.3282497    
    200000   4242.6407      100            100            0.0044937013   1.9039897e-35  0              0.020020692    0              0              0              1.1965779e-13  0              3.0772644    
    300000   4242.6407      100            100            0.00029207178 -6.0926274e-34  0              0.00090451004  0              0              0              1.1965779e-13  0              3.045367     
    400000   4242.6407      100            100            0.00077063056 -3.6556501e-33  0              0.0025141154   0              0              0              1.1965779e-13  0              3.0025273    
    500000   4242.6407      100            100            0.0031082544  -0.0038646857   0              0.013201928    0              0              0              1.1965779e-13  0              2.9978123    
    600000   4242.6407      100            100            0.019019915   -0.0195458      0              0.076614867    0              0              0              1.1965779e-13  0              2.9948173    
    700000   4242.6407      100            100            0.017922426   -0.018060754    0              0.071829317    0              0              0              1.1965779e-13  0              2.9949929    
    800000   4242.6407      100            100            0.017322888   -0.01780506     0              0.069773892    0              0              0              1.1965779e-13  0              2.9950695    
    900000   4242.6407      100            100            0.017320793   -0.01783572     0              0.069798114    0              0              0              1.1965779e-13  0              2.9950703    
   1000000   4242.6407      100            100            0.017437716   -0.017888143    0              0.07020129     0              0              0              1.1965779e-13  0              2.9950565    
   1100000   4242.6407      100            100            0.017526224   -0.017895311    0              0.070473984    0              0              0              1.1965779e-13  0              2.995047     
   1200000   4242.6407      100            100            0.017567644   -0.017897842    0              0.070600774    0              0              0              1.1965779e-13  0              2.9950425    
   1300000   4242.6407      100            100            0.017583057   -0.017898776    0              0.070647947    0              0              0              1.1965779e-13  0              2.9950409    
   1400000   4242.6407      100            100            0.017587673   -0.017899057    0              0.070662074    0              0              0              1.1965779e-13  0              2.9950404    
   1500000   4242.6407      100            100            0.017588649   -0.017899117    0              0.070665065    0              0              0              1.1965779e-13  0              2.9950403    
   1600000   4242.6407      100            100            0.017588673   -0.017899119    0              0.070665139    0              0              0              1.1965779e-13  0              2.9950403    
   1700000   4242.6407      100            100            0.017588558   -0.017899113    0              0.070664786    0              0              0              1.1965779e-13  0              2.9950403    
   1800000   4242.6407      100            100            0.017588478   -0.017899108    0              0.070664542    0              0              0              1.1965779e-13  0              2.9950403    
   1900000   4242.6407      100            100            0.017588441   -0.017899106    0              0.070664428    0              0              0              1.1965779e-13  0              2.9950403    
   2000000   4242.6407      100            100            0.017588427   -0.017899105    0              0.070664385    0              0              0              1.1965779e-13  0              2.9950403    
   2100000   4242.6407      100            100            0.017588423   -0.017899105    0              0.070664372    0              0              0              1.1965779e-13  0              2.9950403    
   2200000   4242.6407      100            100            0.017588422   -0.017899105    0              0.07066437     0              0              0              1.1965779e-13  0              2.9950403    
   2300000   4242.6407      100            100            0.017588422   -0.017899105    0              0.07066437     0              0              0              1.1965779e-13  0              2.9950403    
   2400000   4242.6407      100            100            0.017588422   -0.017899105    0              0.07066437     0              0              0              1.1965779e-13  0              2.9950403    
   2500000   4242.6407      100            100            0.017588422   -0.017899105    0              0.07066437     0              0              0              1.1965779e-13  0              2.9950403    
   2600000   4242.6407      100            100            0.017588422   -0.017899105    0              0.07066437     0              0              0              1.1965779e-13  0              2.9950403    
   2700000   4242.6407      100            100            0.017588422   -0.017899105    0              0.07066437     0              0              0              1.1965779e-13  0              2.9950403    
   2800000   4242.6407      100            100            0.017588422   -0.017899105    0              0.07066437     0              0              0              1.1965779e-13  0              2.9950403    
   2900000   4242.6407      100            100            0.017588422   -0.017899105    0              0.07066437     0              0              0              1.1965779e-13  0              2.9950403    
   3000000   4242.6407      100            100            0.017588422   -0.017899105    0              0.07066437     0              0              0              1.1965779e-13  0              2.9950403    
Loop time of 307.398 on 2 procs for 3000000 steps with 2001 atoms

Performance: 8432051.973 ns/day, 0.000 hours/ns, 9759.319 timesteps/s
99.9% CPU use with 2 MPI tasks x 1 OpenMP threads

MPI task timing breakdown:
Section |  min time  |  avg time  |  max time  |%varavg| %total
---------------------------------------------------------------
Pair    | 75.853     | 75.875     | 75.896     |   0.2 | 24.68
Neigh   | 1.5028     | 1.5035     | 1.5042     |   0.1 |  0.49
Comm    | 12.213     | 12.222     | 12.231     |   0.3 |  3.98
Output  | 0.29431    | 0.29448    | 0.29465    |   0.0 |  0.10
Modify  | 197.26     | 197.35     | 197.44     |   0.6 | 64.20
Other   |            | 20.16      |            |       |  6.56

Nlocal:         1000.5 ave        1001 max        1000 min
Histogram: 1 0 0 0 0 0 0 0 0 1
Nghost:            2.5 ave           3 max           2 min
Histogram: 1 0 0 0 0 0 0 0 0 1
Neighs:          685.5 ave         686 max         685 min
Histogram: 1 0 0 0 0 0 0 0 0 1

Total # of neighbors = 1371
Ave neighs/atom = 0.68515742
Neighbor list builds = 164
Dangerous builds = 0
  using 1 OpenMP thread(s) per MPI task
Lattice spacing in x,y,z = 4.2426407 4.2426407 4.2426407
Created orthogonal box = (-2121.3203 -50 -50) to (2121.3203 50 50)
  2 by 1 by 1 MPI processor grid
Created 1000 atoms
  using lattice units in orthogonal box = (-2121.3203 -50 -50) to (2121.3203 50 50)
  create_atoms CPU = 0.001 seconds
Lattice spacing in x,y,z = 3 3 3
Created 1001 atoms
  using lattice units in orthogonal box = (-2121.3203 -50 -50) to (2121.3203 50 50)
  create_atoms CPU = 0.001 seconds
Setting atom values ...
  1000 settings made for diameter
Setting atom values ...
  1000 settings made for mass
Setting atom values ...
  1001 settings made for diameter
Setting atom values ...
  1001 settings made for mass
1000 atoms in group substrate
1001 atoms in group slider1
  1 rigid bodies with 1001 atoms
Generated 0 of 1 mixed pair_coeff terms from geometric mixing rule
Neighbor list info ...
  update every 1 steps, delay 0 steps, check yes
  max neighbors/atom: 2000, page size: 100000
  master list distance cutoff = 3.1
  ghost atom cutoff = 3.1
  binsize = 1.55, bins = 2738 65 65
  1 neighbor lists, perpetual/occasional/extra = 1 0 0
  (1) pair granular, perpetual
      attributes: half, newton on, size, history
      pair build: half/size/bin/newton
      stencil: half/bin/3d
      bin: standard
Setting up Verlet run ...
  Unit style    : micro
  Current step  : 0
  Time step     : 1e-05
Per MPI rank memory allocation (min/avg/max) = 38.47 | 38.47 | 38.47 Mbytes
   Step           Lx             Ly             Lz           Press           Pxx            Pyy            Pzz           KinEng         PotEng          Temp          c_1[1]         c_1[2]         c_1[3]    
         0   4242.6407      100            100            0              0              0              0              0              0              0              1.1965779e-13  0              6            
    100000   4242.6407      100            100            0.0099631832   1.5231913e-34  0              0.057368059    0              0              0              1.1965779e-13  0              3.3282158    
    200000   4242.6407      100            100            0.0044948325   2.3799847e-36  0              0.020027622    0              0              0              1.1965779e-13  0              3.077207     
    300000   4242.6407      100            100            0.00029535722  7.6160428e-35  0              0.00091500529  0              0              0              1.1965779e-13  0              3.0453754    
    400000   4242.6407      100            100            0.00077846172 -1.5231832e-34  0              0.0025417477   0              0              0              1.1965779e-13  0              3.002451     
    500000   4242.6407      100            100            0.002929438   -0.0034717723   0              0.012269719    0              0              0              1.1965779e-13  0              2.9978967    
    600000   4242.6407      100            100            0.017643581   -0.018856889    0              0.071797384    0              0              0              1.1965779e-13  0              2.9949919    
    700000   4242.6407      100            100            0.016911509   -0.018272101    0              0.069007905    0              0              0              1.1965779e-13  0              2.9951015    
    800000   4242.6407      100            100            0.016904018   -0.017767503    0              0.068479678    0              0              0              1.1965779e-13  0              2.9951249    
    900000   4242.6407      100            100            0.017221313   -0.017719409    0              0.069383353    0              0              0              1.1965779e-13  0              2.9950943    
   1000000   4242.6407      100            100            0.017468256   -0.01774425     0              0.070149019    0              0              0              1.1965779e-13  0              2.9950675    
   1100000   4242.6407      100            100            0.01758514    -0.017759665    0              0.070515084    0              0              0              1.1965779e-13  0              2.9950546    
   1200000   4242.6407      100            100            0.017626166   -0.017762273    0              0.070640772    0              0              0              1.1965779e-13  0              2.9950502    
   1300000   4242.6407      100            100            0.017635665   -0.017762878    0              0.070669872    0              0              0              1.1965779e-13  0              2.9950491    
   1400000   4242.6407      100            100            0.017636062   -0.017762909    0              0.070671096    0              0              0              1.1965779e-13  0              2.9950491    
   1500000   4242.6407      100            100            0.01763503    -0.017762848    0              0.070667937    0              0              0              1.1965779e-13  0              2.9950492    
   1600000   4242.6407      100            100            0.017634332   -0.017762805    0              0.0706658      0              0              0              1.1965779e-13  0              2.9950492    
   1700000   4242.6407      100            100            0.017634035   -0.017762786    0              0.070664891    0              0              0              1.1965779e-13  0              2.9950493    
   1800000   4242.6407      100            100            0.017633943   -0.017762781    0              0.070664611    0              0              0              1.1965779e-13  0              2.9950493    
   1900000   4242.6407      100            100            0.017633926   -0.017762779    0              0.070664559    0              0              0              1.1965779e-13  0              2.9950493    
   2000000   4242.6407      100            100            0.017633928   -0.01776278     0              0.070664564    0              0              0              1.1965779e-13  0              2.9950493    
[...]
   3000000   4242.6407      100            100            0.017719815   -0.017514805    0              0.070674249    0              0              0              1.1965779e-13  0              2.995459     
Loop time of 307.058 on 2 procs for 3000000 steps with 2001 atoms

Performance: 8441397.174 ns/day, 0.000 hours/ns, 9770.136 timesteps/s
99.9% CPU use with 2 MPI tasks x 1 OpenMP threads

MPI task timing breakdown:
Section |  min time  |  avg time  |  max time  |%varavg| %total
---------------------------------------------------------------
Pair    | 74.557     | 74.562     | 74.567     |   0.1 | 24.28
Neigh   | 1.4373     | 1.4379     | 1.4384     |   0.0 |  0.47
Comm    | 12.706     | 12.718     | 12.73      |   0.3 |  4.14
Output  | 0.29592    | 0.29635    | 0.29678    |   0.1 |  0.10
Modify  | 196.46     | 196.57     | 196.67     |   0.7 | 64.02
Other   |            | 21.48      |            |       |  6.99

Nlocal:         1000.5 ave        1001 max        1000 min
Histogram: 1 0 0 0 0 0 0 0 0 1
Nghost:            2.5 ave           3 max           2 min
Histogram: 1 0 0 0 0 0 0 0 0 1
Neighs:          685.5 ave         686 max         685 min
Histogram: 1 0 0 0 0 0 0 0 0 1

Total # of neighbors = 1371
Ave neighs/atom = 0.68515742
Neighbor list builds = 164
Dangerous builds = 0
  using 1 OpenMP thread(s) per MPI task
Lattice spacing in x,y,z = 4.2426407 4.2426407 4.2426407
Created orthogonal box = (-2121.3203 -50 -50) to (2121.3203 50 50)
  2 by 1 by 1 MPI processor grid
Created 1000 atoms
  using lattice units in orthogonal box = (-2121.3203 -50 -50) to (2121.3203 50 50)
  create_atoms CPU = 0.001 seconds
Lattice spacing in x,y,z = 3 3 3
Created 1001 atoms
  using lattice units in orthogonal box = (-2121.3203 -50 -50) to (2121.3203 50 50)
  create_atoms CPU = 0.001 seconds
Setting atom values ...
  1000 settings made for diameter
Setting atom values ...
  1000 settings made for mass
Setting atom values ...
  1001 settings made for diameter
Setting atom values ...
  1001 settings made for mass
1000 atoms in group substrate
1001 atoms in group slider1
  1 rigid bodies with 1001 atoms
Generated 0 of 1 mixed pair_coeff terms from geometric mixing rule
Neighbor list info ...
  update every 1 steps, delay 0 steps, check yes
  max neighbors/atom: 2000, page size: 100000
  master list distance cutoff = 3.1
  ghost atom cutoff = 3.1
  binsize = 1.55, bins = 2738 65 65
  1 neighbor lists, perpetual/occasional/extra = 1 0 0
  (1) pair granular, perpetual
      attributes: half, newton on, size, history
      pair build: half/size/bin/newton
      stencil: half/bin/3d
      bin: standard
Setting up Verlet run ...
  Unit style    : micro
  Current step  : 0
  Time step     : 1e-05
Per MPI rank memory allocation (min/avg/max) = 38.47 | 38.47 | 38.47 Mbytes
   Step           Lx             Ly             Lz           Press           Pxx            Pyy            Pzz           KinEng         PotEng          Temp          c_1[1]         c_1[2]         c_1[3]    
         0   4242.6407      100            100            0              0              0              0              0              0              0              1.1965779e-13  0              6            
    100000   4242.6407      100            100            0.0099778682   7.615961e-35   0              0.057521182    0              0              0              1.1965779e-13  0              3.3265257    
    200000   4242.6407      100            100            0.0045505844  -2.2847843e-34  0              0.020370846    0              0              0              1.1965779e-13  0              3.0743052    
    300000   4242.6407      100            100            0.00045770475  1.5232197e-34  0              0.0014425081   0              0              0              1.1965779e-13  0              3.0455808    
    400000   4242.6407      100            100            0.0070336694  -0.0025843727   0              0.02413268     0              0              0              1.1965779e-13  0              2.997584     
    500000   4242.6407      100            100            0.044043702   -0.027762517    0              0.15990576     0              0              0              1.1965779e-13  0              2.9931911    
    600000   4242.6407      100            100            0.010333697   -0.012499596    0              0.043501703    0              0              0              1.1965779e-13  0              2.9964679    
    700000   4242.6407      100            100            0.014640113   -0.016120577    0              0.060041029    0              0              0              1.1965779e-13  0              2.9958366    
    800000   4242.6407      100            100            0.016784723   -0.01712913     0              0.067483376    0              0              0              1.1965779e-13  0              2.9955856    
    900000   4242.6407      100            100            0.017495538   -0.017410949    0              0.069897583    0              0              0              1.1965779e-13  0              2.9955077    
   1000000   4242.6407      100            100            0.017698538   -0.017468775    0              0.070564393    0              0              0              1.1965779e-13  0              2.9954867    
   1100000   4242.6407      100            100            0.017740933   -0.017479964    0              0.070702762    0              0              0              1.1965779e-13  0              2.9954824    
   1200000   4242.6407      100            100            0.017742923   -0.017480296    0              0.070709066    0              0              0              1.1965779e-13  0              2.9954823    
   1300000   4242.6407      100            100            0.017738599   -0.017479022    0              0.070694818    0              0              0              1.1965779e-13  0              2.9954828    
   1400000   4242.6407      100            100            0.017735331   -0.017478093    0              0.070684085    0              0              0              1.1965779e-13  0              2.9954831    
   1500000   4242.6407      100            100            0.017733646   -0.01747762     0              0.070678557    0              0              0              1.1965779e-13  0              2.9954833    
   1600000   4242.6407      100            100            0.017732917   -0.017477417    0              0.070676167    0              0              0              1.1965779e-13  0              2.9954834    
   1700000   4242.6407      100            100            0.017732638   -0.01747734     0              0.070675254    0              0              0              1.1965779e-13  0              2.9954834    
   1800000   4242.6407      100            100            0.017732543   -0.017477314    0              0.070674942    0              0              0              1.1965779e-13  0              2.9954834    
   1900000   4242.6407      100            100            0.017732514   -0.017477306    0              0.070674849    0              0              0              1.1965779e-13  0              2.9954834    
   2000000   4242.6407      100            100            0.017732507   -0.017477304    0              0.070674826    0              0              0              1.1965779e-13  0              2.9954834    
   2100000   4242.6407      100            100            0.017732506   -0.017477304    0              0.070674823    0              0              0              1.1965779e-13  0              2.9954834    
   2200000   4242.6407      100            100            0.017732507   -0.017477304    0              0.070674824    0              0              0              1.1965779e-13  0              2.9954834    
   2300000   4242.6407      100            100            0.017732507   -0.017477304    0              0.070674825    0              0              0              1.1965779e-13  0              2.9954834    
   2400000   4242.6407      100            100            0.017732507   -0.017477304    0              0.070674825    0              0              0              1.1965779e-13  0              2.9954834    
   2500000   4242.6407      100            100            0.017732507   -0.017477304    0              0.070674826    0              0              0              1.1965779e-13  0              2.9954834    
   2600000   4242.6407      100            100            0.017732507   -0.017477304    0              0.070674826    0              0              0              1.1965779e-13  0              2.9954834    
   2700000   4242.6407      100            100            0.017732507   -0.017477304    0              0.070674826    0              0              0              1.1965779e-13  0              2.9954834    
   2800000   4242.6407      100            100            0.017732507   -0.017477304    0              0.070674826    0              0              0              1.1965779e-13  0              2.9954834    
   2900000   4242.6407      100            100            0.017732507   -0.017477304    0              0.070674826    0              0              0              1.1965779e-13  0              2.9954834    
   3000000   4242.6407      100            100            0.017732507   -0.017477304    0              0.070674826    0              0              0              1.1965779e-13  0              2.9954834    
Loop time of 310.202 on 2 procs for 3000000 steps with 2001 atoms

Performance: 8355857.617 ns/day, 0.000 hours/ns, 9671.132 timesteps/s
99.9% CPU use with 2 MPI tasks x 1 OpenMP threads

MPI task timing breakdown:
Section |  min time  |  avg time  |  max time  |%varavg| %total
---------------------------------------------------------------
Pair    | 73.43      | 74.245     | 75.06      |   9.5 | 23.93
Neigh   | 1.5301     | 1.5311     | 1.532      |   0.1 |  0.49
Comm    | 12.193     | 12.936     | 13.68      |  20.7 |  4.17
Output  | 0.2937     | 0.29408    | 0.29446    |   0.1 |  0.09
Modify  | 197.43     | 197.69     | 197.96     |   1.9 | 63.73
Other   |            | 23.5       |            |       |  7.58

Nlocal:         1000.5 ave        1001 max        1000 min
Histogram: 1 0 0 0 0 0 0 0 0 1
Nghost:            2.5 ave           3 max           2 min
Histogram: 1 0 0 0 0 0 0 0 0 1
Neighs:          685.5 ave         686 max         685 min
Histogram: 1 0 0 0 0 0 0 0 0 1

Total # of neighbors = 1371
Ave neighs/atom = 0.68515742
Neighbor list builds = 164
Dangerous builds = 0
  using 1 OpenMP thread(s) per MPI task
Lattice spacing in x,y,z = 4.2426407 4.2426407 4.2426407
Created orthogonal box = (-2121.3203 -50 -50) to (2121.3203 50 50)
  2 by 1 by 1 MPI processor grid
Created 1000 atoms
  using lattice units in orthogonal box = (-2121.3203 -50 -50) to (2121.3203 50 50)
  create_atoms CPU = 0.001 seconds
Lattice spacing in x,y,z = 3 3 3
Created 1001 atoms
  using lattice units in orthogonal box = (-2121.3203 -50 -50) to (2121.3203 50 50)
  create_atoms CPU = 0.001 seconds
Setting atom values ...
  1000 settings made for diameter
Setting atom values ...
  1000 settings made for mass
Setting atom values ...
  1001 settings made for diameter
Setting atom values ...
  1001 settings made for mass
1000 atoms in group substrate
1001 atoms in group slider1
  1 rigid bodies with 1001 atoms
Generated 0 of 1 mixed pair_coeff terms from geometric mixing rule
Neighbor list info ...
  update every 1 steps, delay 0 steps, check yes
  max neighbors/atom: 2000, page size: 100000
  master list distance cutoff = 3.1
  ghost atom cutoff = 3.1
  binsize = 1.55, bins = 2738 65 65
  1 neighbor lists, perpetual/occasional/extra = 1 0 0
  (1) pair granular, perpetual
      attributes: half, newton on, size, history
      pair build: half/size/bin/newton
      stencil: half/bin/3d
      bin: standard
Setting up Verlet run ...
  Unit style    : micro
  Current step  : 0
  Time step     : 1e-05
Per MPI rank memory allocation (min/avg/max) = 38.47 | 38.47 | 38.47 Mbytes
   Step           Lx             Ly             Lz           Press           Pxx            Pyy            Pzz           KinEng         PotEng          Temp          c_1[1]         c_1[2]         c_1[3]    
         0   4242.6407      100            100            0              0              0              0              0              0              0              1.1965779e-13  0              6            
    100000   4242.6407      100            100            0.0099787312  -1.5231867e-34  0              0.057530208    0              0              0              1.1965779e-13  0              3.3264253    
    200000   4242.6407      100            100            0.0045538664   7.6160151e-35  0              0.020391148    0              0              0              1.1965779e-13  0              3.0741313    
    300000   4242.6407      100            100            0.00046725474  1.5232324e-34  0              0.001474081    0              0              0              1.1965779e-13  0              3.0455811    
    400000   4242.6407      100            100            0.0089036422  -0.0036157799   0              0.03078587     0              0              0              1.1965779e-13  0              2.9972363    
    500000   4242.6407      100            100            0.046179799   -0.029107506    0              0.16764923     0              0              0              1.1965779e-13  0              2.9930582    
    600000   4242.6407      100            100            0.012346814   -0.013205473    0              0.050251201    0              0              0              1.1965779e-13  0              2.9962301    
    700000   4242.6407      100            100            0.015059325   -0.015935185    0              0.061113517    0              0              0              1.1965779e-13  0              2.9958281    
    800000   4242.6407      100            100            0.016658325   -0.017037492    0              0.067012506    0              0              0              1.1965779e-13  0              2.9956281    
    900000   4242.6407      100            100            0.01737543    -0.017207577    0              0.069333873    0              0              0              1.1965779e-13  0              2.995552     
   1000000   4242.6407      100            100            0.017638636   -0.017272573    0              0.070188482    0              0              0              1.1965779e-13  0              2.9955243    
   1100000   4242.6407      100            100            0.017733012   -0.017300069    0              0.070499106    0              0              0              1.1965779e-13  0              2.9955142    
   1200000   4242.6407      100            100            0.017767213   -0.017310019    0              0.070611658    0              0              0              1.1965779e-13  0              2.9955106    
   1300000   4242.6407      100            100            0.017779588   -0.017313619    0              0.070652383    0              0              0              1.1965779e-13  0              2.9955093    
   1400000   4242.6407      100            100            0.017784061   -0.01731492     0              0.070667104    0              0              0              1.1965779e-13  0              2.9955088    
   1500000   4242.6407      100            100            0.017785676   -0.017315391    0              0.07067242     0              0              0              1.1965779e-13  0              2.9955086    
   1600000   4242.6407      100            100            0.017786259   -0.01731556     0              0.070674338    0              0              0              1.1965779e-13  0              2.9955086    
   1700000   4242.6407      100            100            0.017786469   -0.017315622    0              0.07067503     0              0              0              1.1965779e-13  0              2.9955086    
   1800000   4242.6407      100            100            0.017786545   -0.017315644    0              0.070675279    0              0              0              1.1965779e-13  0              2.9955086    
   1900000   4242.6407      100            100            0.017786572   -0.017315652    0              0.070675368    0              0              0              1.1965779e-13  0              2.9955085    
   2000000   4242.6407      100            100            0.017786582   -0.017315655    0              0.0706754      0              0              0              1.1965779e-13  0              2.9955085    
   2100000   4242.6407      100            100            0.017786585   -0.017315656    0              0.070675412    0              0              0              1.1965779e-13  0              2.9955085    
   2200000   4242.6407      100            100            0.017786587   -0.017315656    0              0.070675416    0              0              0              1.1965779e-13  0              2.9955085    
   2300000   4242.6407      100            100            0.017786587   -0.017315656    0              0.070675418    0              0              0              1.1965779e-13  0              2.9955085    
   2400000   4242.6407      100            100            0.017786587   -0.017315656    0              0.070675418    0              0              0              1.1965779e-13  0              2.9955085    
   2500000   4242.6407      100            100            0.017786587   -0.017315656    0              0.070675418    0              0              0              1.1965779e-13  0              2.9955085    
   2600000   4242.6407      100            100            0.017786587   -0.017315656    0              0.070675418    0              0              0              1.1965779e-13  0              2.9955085    
   2700000   4242.6407      100            100            0.017786587   -0.017315656    0              0.070675418    0              0              0              1.1965779e-13  0              2.9955085    
   2800000   4242.6407      100            100            0.017786587   -0.017315656    0              0.070675418    0              0              0              1.1965779e-13  0              2.9955085    
   2900000   4242.6407      100            100            0.017786587   -0.017315656    0              0.070675418    0              0              0              1.1965779e-13  0              2.9955085    
   3000000   4242.6407      100            100            0.017786587   -0.017315656    0              0.070675418    0              0              0              1.1965779e-13  0              2.9955085    
Loop time of 308.498 on 2 procs for 3000000 steps with 2001 atoms

Performance: 8401990.572 ns/day, 0.000 hours/ns, 9724.526 timesteps/s
99.9% CPU use with 2 MPI tasks x 1 OpenMP threads

MPI task timing breakdown:
Section |  min time  |  avg time  |  max time  |%varavg| %total
---------------------------------------------------------------
Pair    | 73.431     | 74.292     | 75.152     |  10.0 | 24.08
Neigh   | 1.461      | 1.462      | 1.4631     |   0.1 |  0.47
Comm    | 13.296     | 14.189     | 15.081     |  23.7 |  4.60
Output  | 0.31645    | 0.31663    | 0.31681    |   0.0 |  0.10
Modify  | 196.76     | 196.9      | 197.03     |   1.0 | 63.82
Other   |            | 21.34      |            |       |  6.92

Nlocal:         1000.5 ave        1001 max        1000 min
Histogram: 1 0 0 0 0 0 0 0 0 1
Nghost:            2.5 ave           3 max           2 min
Histogram: 1 0 0 0 0 0 0 0 0 1
Neighs:          685.5 ave         686 max         685 min
Histogram: 1 0 0 0 0 0 0 0 0 1

Total # of neighbors = 1371
Ave neighs/atom = 0.68515742
Neighbor list builds = 164
Dangerous builds = 0
  using 1 OpenMP thread(s) per MPI task
Total wall time: 3:05:54
