LAMMPS (23 Jun 2022 - Update 1)
  using 1 OpenMP thread(s) per MPI task
variable num index 0 1 2 3 4 5 6 7 8 9 10 11 12 13 14 15 16 17 18 19 20 21 22 23 24 25 26 27 28 29 30 31 32 33 34 35  #36 37 38 39 40 41 42 43 44 45

label startloop

include granular.in
### Simulation of contact between two chain

##################### Simulation setup ####################

units micro                              # units
dimension	3                            # dimension
boundary	p p p                        # boundary condition p: periodic
atom_style	sphere                       # atom style
#processors * * 1

####################### Parameter ##################################

variable ind equal ${num}
variable ind equal 0

variable lat1 equal 3*(2^(1/2))
variable lat2 equal 3
variable d1 equal 3                      # Diamter of particle at bottom chain
variable d2 equal 3                      # Diamter of particle at upper chain

variable n2e1 equal 10*v_lat1              # Half length of top chain. 1500 is number of particles
variable n1e1 equal v_n2e1*(v_lat1/v_lat2)              # Half length of bottom chain, which is 1.5 time larger than top chain
variable n1e2 equal -v_n1e1
variable n2e2 equal -v_n2e1
#variable x_shift equal -0.25*v_d1

variable den equal 2.2 #grams/cm^3      # micrometer^3=10^-12 cm^3 Density of materials

variable V1 equal (1/6)*PI*(v_d1^3)     # Volume of particle 1
variable V2 equal (1/6)*PI*(v_d2^3)     # Volume of particle 2

variable mass1 equal v_den*v_V1  # Mass of particle 1 (picograms)
variable mass2 equal v_den*v_V2  # Mass of particle 2 (picograms)

# E GPa to picogram/(micrometer-microsecond^2)= 10^3 Pa= 10^-6 GPa
# Force unit(picogram-micrometer/microsecond^2)=10^-9 N= 1nN
# Spring stiffness (force/distance) 10^-3 N/m


variable E equal 100*(10^6)                    # Young's Modulus using for Hertz/material model
variable PR equal 0.1+(0.01*v_ind)                          # Poisson's ratio using for Hertz/material model
variable Fn equal -1000                        # Force apply to each particles in top chain
variable dt equal 0.00001                      # Time step units microsecond
variable lgv equal 0.5                         #damping for langevin thermostat for slider



################### Creating the model #################################
lattice sc ${lat1}                                                               # Bottom chain type1
lattice sc 4.24264068711929                                                               
Lattice spacing in x,y,z = 4.2426407 4.2426407 4.2426407

region box block ${n1e2} ${n1e1} -50 50 -50 50 units box
region box block -60.0000000000001 ${n1e1} -50 50 -50 50 units box
region box block -60.0000000000001 60.0000000000001 -50 50 -50 50 units box
region substrate block ${n1e2} ${n1e1} -0.1 0.1 0 0.1 units box
region substrate block -60.0000000000001 ${n1e1} -0.1 0.1 0 0.1 units box
region substrate block -60.0000000000001 60.0000000000001 -0.1 0.1 0 0.1 units box

create_box 2 box
Created orthogonal box = (-60 -50 -50) to (60 50 50)
  2 by 1 by 1 MPI processor grid
create_atoms 1 region substrate
Created 29 atoms
  using lattice units in orthogonal box = (-60 -50 -50) to (60 50 50)
  create_atoms CPU = 0.001 seconds

lattice sc ${lat2}                                                             # Top chain type2
lattice sc 3                                                             
Lattice spacing in x,y,z = 3 3 3

region slider1 block ${n2e2} ${n2e1} -0.1 0.1 5.9 6.1 units box
region slider1 block -42.4264068711929 ${n2e1} -0.1 0.1 5.9 6.1 units box
region slider1 block -42.4264068711929 42.4264068711929 -0.1 0.1 5.9 6.1 units box

create_atoms 2 region slider1
Created 29 atoms
  using lattice units in orthogonal box = (-60 -50 -50) to (60 50 50)
  create_atoms CPU = 0.000 seconds


set type 1 diameter ${d1}                    # Set mass and diameter for each particles type
set type 1 diameter 3                    
Setting atom values ...
  29 settings made for diameter
set type 1 mass ${mass1}
set type 1 mass 31.101767270539
Setting atom values ...
  29 settings made for mass
set type 2 diameter ${d2}                    # Set mass and diameter for each particles type
set type 2 diameter 3                    
Setting atom values ...
  29 settings made for diameter
set type 2 mass ${mass2}
set type 2 mass 31.101767270539
Setting atom values ...
  29 settings made for mass


group substrate region substrate           # Define gorup
29 atoms in group substrate
group slider1 region slider1
29 atoms in group slider1
#displace_atoms slider1 move ${x_shift} 0.0 0.0
#group substrate_slider union substrate slider1

########################## Potential ###################################
pair_style granular
pair_coeff 1 1 hertz/material 0.00000001 0.001 ${PR} tangential mindlin NULL 0.1 0.01 damping viscoelastic
pair_coeff 1 1 hertz/material 0.00000001 0.001 0.1 tangential mindlin NULL 0.1 0.01 damping viscoelastic
pair_coeff 2 2 hertz/material 0.00000001 0.001 ${PR} tangential mindlin NULL 0.1 0.01 damping viscoelastic
pair_coeff 2 2 hertz/material 0.00000001 0.001 0.1 tangential mindlin NULL 0.1 0.01 damping viscoelastic
pair_coeff 1 2 hertz/material ${E} 0.001 ${PR} tangential mindlin NULL 0.1 0.01 damping viscoelastic
pair_coeff 1 2 hertz/material 100000000 0.001 ${PR} tangential mindlin NULL 0.1 0.01 damping viscoelastic
pair_coeff 1 2 hertz/material 100000000 0.001 0.1 tangential mindlin NULL 0.1 0.01 damping viscoelastic

comm_modify     vel yes
neigh_modify    delay 0 every 1 check yes

### Compute properties ###

compute 1 slider1 com                      # Compute the center of mass of top chain

variable p0 equal "step"

variable slider_z equal "c_1[3]"          # output the position of top chain in z-direction


thermo 100000
thermo_style custom step lx ly lz press pxx pyy pzz ke pe temp c_1[1] c_1[2] c_1[3]

############### Fix ##################


############## Equilibrium the system with apply force ########################

fix force_slider1 slider1 setforce NULL 0 NULL                                # Fix top chain not to move in y-direction

fix f_sub substrate freeze                                                    # Freeze the bottom chain

#fix nve_slider1 slider1 nve                   # Integrate motion for slider1 group
#fix lan_slider slider1 langevin 0 0 ${lgv} 6987532
fix rigid_top slider1 rigid/nve group 1 slider1 langevin 0 0 ${lgv} 6987532   # NVE+langevin
fix rigid_top slider1 rigid/nve group 1 slider1 langevin 0 0 0.5 6987532   
  1 rigid bodies with 29 atoms

fix add slider1 addforce 0 0 ${Fn} every 1                                    # Add force to top layer
fix add slider1 addforce 0 0 -1000 every 1                                    

timestep ${dt}
timestep 1e-05

dump 		D1 all custom 100000 Equi_${num}_*.dump id type diameter mass xu yu zu fx fy fz
dump 		D1 all custom 100000 Equi_0_*.dump id type diameter mass xu yu zu fx fy fz
dump_modify D1 format 5 %.12g
dump_modify D1 format 7 %.12g

run 3000000
Generated 0 of 1 mixed pair_coeff terms from geometric mixing rule
Neighbor list info ...
  update every 1 steps, delay 0 steps, check yes
  max neighbors/atom: 2000, page size: 100000
  master list distance cutoff = 3.1
  ghost atom cutoff = 3.1
  binsize = 1.55, bins = 78 65 65
  1 neighbor lists, perpetual/occasional/extra = 1 0 0
  (1) pair granular, perpetual
      attributes: half, newton on, size, history
      pair build: half/size/bin/newton
      stencil: half/bin/3d
      bin: standard
Per MPI rank memory allocation (min/avg/max) = 13.49 | 13.49 | 13.49 Mbytes
   Step           Lx             Ly             Lz           Press           Pxx            Pyy            Pzz           KinEng         PotEng          Temp          c_1[1]         c_1[2]         c_1[3]    
         0   120            100            100            4.6944256e-15  1.4083277e-14  0              0              0              0              0              0              0              6            
    100000   120            100            100            0.019573611    1.4083277e-14  0              0.058720834    16874.909      0              8.1482897e+11  0              0              3.3273508    
    200000   120            100            100            0.0068111099   1.4083277e-14  0              0.02043333     3998.9609      0              1.9309551e+11  0              0              3.07603      
    300000   120            100            100            0.0002141941   1.4083277e-14  0              0.0006425823   8.5449962      0              4.1260729e+08  0              0              3.0436223    
    400000   120            100            100            3.0398129e-05  1.4083277e-14  0              9.1194388e-05  0.188378       0              9096099.7      0              0              3.0052305    
    500000   120            100            100            0.0098011404   1.4083277e-14  0              0.029403421    9.9319421      0              4.7957794e+08  0              0              2.996612     
    600000   120            100            100            0.023052283    1.4083277e-14  0              0.069156849    4.6546476      0              2.2475627e+08  0              0              2.9939369    
    700000   120            100            100            0.022915852    1.4083277e-14  0              0.068747555    0.48995969     0              23658400       0              0              2.9939424    
    800000   120            100            100            0.023448932    1.4083277e-14  0              0.070346795    0.039944466    0              1928775.3      0              0              2.9938423    
    900000   120            100            100            0.023811657    1.4083277e-14  0              0.071434972    0.0020550506   0              99231.04       0              0              2.9937769    
   1000000   120            100            100            0.023993212    1.4083277e-14  0              0.071979635    2.1848276e-05  0              1054.975       0              0              2.9937448    
   1100000   120            100            100            0.024071277    1.4083277e-14  0              0.07221383     8.217519e-06   0              396.79458      0              0              2.9937311    
   1200000   120            100            100            0.024101355    1.4083277e-14  0              0.072304065    6.9691541e-06  0              336.51551      0              0              2.9937259    
   1300000   120            100            100            0.024111845    1.4083277e-14  0              0.072335536    2.1324374e-06  0              102.96777      0              0              2.9937241    
   1400000   120            100            100            0.024115119    1.4083277e-14  0              0.072345356    4.4235067e-07  0              21.359531      0              0              2.9937235    
   1500000   120            100            100            0.024115991    1.4083277e-14  0              0.072347972    7.1834169e-08  0              3.4686149      0              0              2.9937233    
   1600000   120            100            100            0.024116158    1.4083277e-14  0              0.072348475    9.5329272e-09  0              0.46031094     0              0              2.9937233    
   1700000   120            100            100            0.024116158    1.4083277e-14  0              0.072348473    1.0295154e-09  0              0.049711613    0              0              2.9937233    
   1800000   120            100            100            0.024116134    1.4083277e-14  0              0.072348403    8.5577553e-11  0              0.0041322337   0              0              2.9937233    
   1900000   120            100            100            0.024116118    1.4083277e-14  0              0.072348355    4.5563173e-12  0              0.00022000826  0              0              2.9937233    
   2000000   120            100            100            0.02411611     1.4083277e-14  0              0.072348331    5.8824474e-14  0              2.8404233e-06  0              0              2.9937233    
   2100000   120            100            100            0.024116107    1.4083277e-14  0              0.07234832     1.41694e-14    0              6.8418961e-07  0              0              2.9937233    
   2200000   120            100            100            0.024116105    1.4083277e-14  0              0.072348316    1.3501088e-14  0              6.5191921e-07  0              0              2.9937233    
   2300000   120            100            100            0.024116105    1.4083277e-14  0              0.072348314    4.2495052e-15  0              2.051934e-07   0              0              2.9937233    
   2400000   120            100            100            0.024116105    1.4083277e-14  0              0.072348314    8.9420301e-16  0              4.3177863e-08  0              0              2.9937233    
   2500000   120            100            100            0.024116105    1.4083277e-14  0              0.072348314    1.4706957e-16  0              7.101463e-09   0              0              2.9937233    
   2600000   120            100            100            0.024116105    1.4083277e-14  0              0.072348314    1.9818378e-17  0              9.5695857e-10  0              0              2.9937233    
   2700000   120            100            100            0.024116105    1.4083277e-14  0              0.072348314    2.5245996e-18  0              1.2190388e-10  0              0              2.9937233    
   2800000   120            100            100            0.024116105    1.4083277e-14  0              0.072348314    1.5978106e-19  0              7.7152556e-12  0              0              2.9937233    
   2900000   120            100            100            0.024116105    1.4083277e-14  0              0.072348314    3.3432996e-20  0              1.6143597e-12  0              0              2.9937233    
   3000000   120            100            100            0.024116105    1.4083277e-14  0              0.072348314    1.0851157e-20  0              5.2396354e-13  0              0              2.9937233    
Loop time of 26.6861 on 2 procs for 3000000 steps with 58 atoms

Performance: 97129148.782 ns/day, 0.000 hours/ns, 112417.996 timesteps/s
99.7% CPU use with 2 MPI tasks x 1 OpenMP threads

MPI task timing breakdown:
Section |  min time  |  avg time  |  max time  |%varavg| %total
---------------------------------------------------------------
Pair    | 2.5601     | 2.7771     | 2.9941     |  13.0 | 10.41
Neigh   | 0.040535   | 0.040569   | 0.040603   |   0.0 |  0.15
Comm    | 8.4811     | 8.6783     | 8.8756     |   6.7 | 32.52
Output  | 0.12066    | 0.12069    | 0.12073    |   0.0 |  0.45
Modify  | 11.854     | 11.945     | 12.037     |   2.7 | 44.76
Other   |            | 3.124      |            |       | 11.71

Nlocal:             29 ave          30 max          28 min
Histogram: 1 0 0 0 0 0 0 0 0 1
Nghost:              3 ave           4 max           2 min
Histogram: 1 0 0 0 0 0 0 0 0 1
Neighs:             20 ave          21 max          19 min
Histogram: 1 0 0 0 0 0 0 0 0 1

Total # of neighbors = 40
Ave neighs/atom = 0.68965517
Neighbor list builds = 164
Dangerous builds = 0

undump D1


clear
  using 1 OpenMP thread(s) per MPI task

next num

jump SELF startloop

include granular.in
### Simulation of contact between two chain

##################### Simulation setup ####################

units micro                              # units
dimension	3                            # dimension
boundary	p p p                        # boundary condition p: periodic
atom_style	sphere                       # atom style
#processors * * 1

####################### Parameter ##################################

variable ind equal ${num}
variable ind equal 1

variable lat1 equal 3*(2^(1/2))
variable lat2 equal 3
variable d1 equal 3                      # Diamter of particle at bottom chain
variable d2 equal 3                      # Diamter of particle at upper chain

variable n2e1 equal 10*v_lat1              # Half length of top chain. 1500 is number of particles
variable n1e1 equal v_n2e1*(v_lat1/v_lat2)              # Half length of bottom chain, which is 1.5 time larger than top chain
variable n1e2 equal -v_n1e1
variable n2e2 equal -v_n2e1
#variable x_shift equal -0.25*v_d1

variable den equal 2.2 #grams/cm^3      # micrometer^3=10^-12 cm^3 Density of materials

variable V1 equal (1/6)*PI*(v_d1^3)     # Volume of particle 1
variable V2 equal (1/6)*PI*(v_d2^3)     # Volume of particle 2

variable mass1 equal v_den*v_V1  # Mass of particle 1 (picograms)
variable mass2 equal v_den*v_V2  # Mass of particle 2 (picograms)

# E GPa to picogram/(micrometer-microsecond^2)= 10^3 Pa= 10^-6 GPa
# Force unit(picogram-micrometer/microsecond^2)=10^-9 N= 1nN
# Spring stiffness (force/distance) 10^-3 N/m


variable E equal 100*(10^6)                    # Young's Modulus using for Hertz/material model
variable PR equal 0.1+(0.01*v_ind)                          # Poisson's ratio using for Hertz/material model
variable Fn equal -1000                        # Force apply to each particles in top chain
variable dt equal 0.00001                      # Time step units microsecond
variable lgv equal 0.5                         #damping for langevin thermostat for slider



################### Creating the model #################################
lattice sc ${lat1}                                                               # Bottom chain type1
lattice sc 4.24264068711929                                                               
Lattice spacing in x,y,z = 4.2426407 4.2426407 4.2426407

region box block ${n1e2} ${n1e1} -50 50 -50 50 units box
region box block -60.0000000000001 ${n1e1} -50 50 -50 50 units box
region box block -60.0000000000001 60.0000000000001 -50 50 -50 50 units box
region substrate block ${n1e2} ${n1e1} -0.1 0.1 0 0.1 units box
region substrate block -60.0000000000001 ${n1e1} -0.1 0.1 0 0.1 units box
region substrate block -60.0000000000001 60.0000000000001 -0.1 0.1 0 0.1 units box

create_box 2 box
Created orthogonal box = (-60 -50 -50) to (60 50 50)
  2 by 1 by 1 MPI processor grid
create_atoms 1 region substrate
Created 29 atoms
  using lattice units in orthogonal box = (-60 -50 -50) to (60 50 50)
  create_atoms CPU = 0.001 seconds

lattice sc ${lat2}                                                             # Top chain type2
lattice sc 3                                                             
Lattice spacing in x,y,z = 3 3 3

region slider1 block ${n2e2} ${n2e1} -0.1 0.1 5.9 6.1 units box
region slider1 block -42.4264068711929 ${n2e1} -0.1 0.1 5.9 6.1 units box
region slider1 block -42.4264068711929 42.4264068711929 -0.1 0.1 5.9 6.1 units box

create_atoms 2 region slider1
Created 29 atoms
  using lattice units in orthogonal box = (-60 -50 -50) to (60 50 50)
  create_atoms CPU = 0.000 seconds


set type 1 diameter ${d1}                    # Set mass and diameter for each particles type
set type 1 diameter 3                    
Setting atom values ...
  29 settings made for diameter
set type 1 mass ${mass1}
set type 1 mass 31.101767270539
Setting atom values ...
  29 settings made for mass
set type 2 diameter ${d2}                    # Set mass and diameter for each particles type
set type 2 diameter 3                    
Setting atom values ...
  29 settings made for diameter
set type 2 mass ${mass2}
set type 2 mass 31.101767270539
Setting atom values ...
  29 settings made for mass


group substrate region substrate           # Define gorup
29 atoms in group substrate
group slider1 region slider1
29 atoms in group slider1
#displace_atoms slider1 move ${x_shift} 0.0 0.0
#group substrate_slider union substrate slider1

########################## Potential ###################################
pair_style granular
pair_coeff 1 1 hertz/material 0.00000001 0.001 ${PR} tangential mindlin NULL 0.1 0.01 damping viscoelastic
pair_coeff 1 1 hertz/material 0.00000001 0.001 0.11 tangential mindlin NULL 0.1 0.01 damping viscoelastic
pair_coeff 2 2 hertz/material 0.00000001 0.001 ${PR} tangential mindlin NULL 0.1 0.01 damping viscoelastic
pair_coeff 2 2 hertz/material 0.00000001 0.001 0.11 tangential mindlin NULL 0.1 0.01 damping viscoelastic
pair_coeff 1 2 hertz/material ${E} 0.001 ${PR} tangential mindlin NULL 0.1 0.01 damping viscoelastic
pair_coeff 1 2 hertz/material 100000000 0.001 ${PR} tangential mindlin NULL 0.1 0.01 damping viscoelastic
pair_coeff 1 2 hertz/material 100000000 0.001 0.11 tangential mindlin NULL 0.1 0.01 damping viscoelastic

comm_modify     vel yes
neigh_modify    delay 0 every 1 check yes

### Compute properties ###

compute 1 slider1 com                      # Compute the center of mass of top chain

variable p0 equal "step"

variable slider_z equal "c_1[3]"          # output the position of top chain in z-direction


thermo 100000
thermo_style custom step lx ly lz press pxx pyy pzz ke pe temp c_1[1] c_1[2] c_1[3]

############### Fix ##################


############## Equilibrium the system with apply force ########################

fix force_slider1 slider1 setforce NULL 0 NULL                                # Fix top chain not to move in y-direction

fix f_sub substrate freeze                                                    # Freeze the bottom chain

#fix nve_slider1 slider1 nve                   # Integrate motion for slider1 group
#fix lan_slider slider1 langevin 0 0 ${lgv} 6987532
fix rigid_top slider1 rigid/nve group 1 slider1 langevin 0 0 ${lgv} 6987532   # NVE+langevin
fix rigid_top slider1 rigid/nve group 1 slider1 langevin 0 0 0.5 6987532   
  1 rigid bodies with 29 atoms

fix add slider1 addforce 0 0 ${Fn} every 1                                    # Add force to top layer
fix add slider1 addforce 0 0 -1000 every 1                                    

timestep ${dt}
timestep 1e-05

dump 		D1 all custom 100000 Equi_${num}_*.dump id type diameter mass xu yu zu fx fy fz
dump 		D1 all custom 100000 Equi_1_*.dump id type diameter mass xu yu zu fx fy fz
dump_modify D1 format 5 %.12g
dump_modify D1 format 7 %.12g

run 3000000
Generated 0 of 1 mixed pair_coeff terms from geometric mixing rule
Neighbor list info ...
  update every 1 steps, delay 0 steps, check yes
  max neighbors/atom: 2000, page size: 100000
  master list distance cutoff = 3.1
  ghost atom cutoff = 3.1
  binsize = 1.55, bins = 78 65 65
  1 neighbor lists, perpetual/occasional/extra = 1 0 0
  (1) pair granular, perpetual
      attributes: half, newton on, size, history
      pair build: half/size/bin/newton
      stencil: half/bin/3d
      bin: standard
Per MPI rank memory allocation (min/avg/max) = 13.49 | 13.49 | 13.49 Mbytes
   Step           Lx             Ly             Lz           Press           Pxx            Pyy            Pzz           KinEng         PotEng          Temp          c_1[1]         c_1[2]         c_1[3]    
         0   120            100            100            4.7044046e-15  1.4113214e-14  0              0              0              0              0              0              0              6            
    100000   120            100            100            0.019574202    1.4113214e-14  0              0.058722606    16875.66       0              8.1486524e+11  0              0              3.3273333    
    200000   120            100            100            0.006812441    1.4113214e-14  0              0.020437323    4000.1809      0              1.9315442e+11  0              0              3.0759987    
    300000   120            100            100            0.0002160489   1.4113214e-14  0              0.00064814671  8.6899925      0              4.1960864e+08  0              0              3.0436306    
    400000   120            100            100            3.5074027e-05  1.4113214e-14  0              0.00010522208  0.24948503     0              12046739       0              0              3.0052376    
    500000   120            100            100            0.010008085    1.4113214e-14  0              0.030024255    10.799418      0              5.2146524e+08  0              0              2.9965705    
    600000   120            100            100            0.023476469    1.4113214e-14  0              0.070429406    4.7420431      0              2.2897629e+08  0              0              2.9938711    
    700000   120            100            100            0.023193937    1.4113214e-14  0              0.06958181     0.55445798     0              26772792       0              0              2.9939026    
    800000   120            100            100            0.023576088    1.4113214e-14  0              0.070728265    0.056283953    0              2717750.7      0              0              2.9938292    
    900000   120            100            100            0.023856315    1.4113214e-14  0              0.071568945    0.0046871808   0              226327.19      0              0              2.9937782    
   1000000   120            100            100            0.024003958    1.4113214e-14  0              0.072011874    0.00027833097  0              13439.606      0              0              2.9937519    
   1100000   120            100            100            0.02407135     1.4113214e-14  0              0.07221405     6.8785904e-06  0              332.14251      0              0              2.99374      
   1200000   120            100            100            0.024099412    1.4113214e-14  0              0.072298236    1.5122111e-07  0              7.3019261      0              0              2.9937351    
   1300000   120            100            100            0.024110293    1.4113214e-14  0              0.07233088     3.9962902e-07  0              19.296655      0              0              2.9937332    
   1400000   120            100            100            0.024114252    1.4113214e-14  0              0.072342755    1.5838261e-07  0              7.6477292      0              0              2.9937325    
   1500000   120            100            100            0.024115601    1.4113214e-14  0              0.072346802    3.9251859e-08  0              1.8953318      0              0              2.9937323    
   1600000   120            100            100            0.024116026    1.4113214e-14  0              0.072348079    7.632026e-09   0              0.36852322     0              0              2.9937322    
   1700000   120            100            100            0.024116147    1.4113214e-14  0              0.072348442    1.2573491e-09  0              0.06071289     0              0              2.9937322    
   1800000   120            100            100            0.024116176    1.4113214e-14  0              0.072348527    1.8096848e-10  0              0.0087383204   0              0              2.9937322    
   1900000   120            100            100            0.02411618     1.4113214e-14  0              0.072348539    2.2946414e-11  0              0.0011080002   0              0              2.9937322    
   2000000   120            100            100            0.024116179    1.4113214e-14  0              0.072348536    2.5406455e-12  0              0.00012267868  0              0              2.9937322    
   2100000   120            100            100            0.024116178    1.4113214e-14  0              0.072348533    2.3807965e-13  0              1.1496014e-05  0              0              2.9937322    
   2200000   120            100            100            0.024116177    1.4113214e-14  0              0.07234853     1.7449407e-14  0              8.4256942e-07  0              0              2.9937322    
   2300000   120            100            100            0.024116176    1.4113214e-14  0              0.072348529    7.8575011e-16  0              3.7941061e-08  0              0              2.9937322    
   2400000   120            100            100            0.024116176    1.4113214e-14  0              0.072348529    4.3867988e-18  0              2.1182281e-10  0              0              2.9937322    
   2500000   120            100            100            0.024116176    1.4113214e-14  0              0.072348529    4.8270004e-18  0              2.3307857e-10  0              0              2.9937322    
   2600000   120            100            100            0.024116176    1.4113214e-14  0              0.072348528    3.291603e-18   0              1.5893973e-10  0              0              2.9937322    
   2700000   120            100            100            0.024116176    1.4113214e-14  0              0.072348528    5.2839556e-19  0              2.551433e-11   0              0              2.9937322    
   2800000   120            100            100            0.024116176    1.4113214e-14  0              0.072348528    2.1578129e-19  0              1.0419306e-11  0              0              2.9937322    
   2900000   120            100            100            0.024116176    1.4113214e-14  0              0.072348528    2.0319309e-19  0              9.811467e-12   0              0              2.9937322    
   3000000   120            100            100            0.024116176    1.4113214e-14  0              0.072348528    1.9586245e-20  0              9.4574968e-13  0              0              2.9937322    
Loop time of 26.6927 on 2 procs for 3000000 steps with 58 atoms

Performance: 97105161.722 ns/day, 0.000 hours/ns, 112390.233 timesteps/s
99.6% CPU use with 2 MPI tasks x 1 OpenMP threads

MPI task timing breakdown:
Section |  min time  |  avg time  |  max time  |%varavg| %total
---------------------------------------------------------------
Pair    | 2.4279     | 2.5869     | 2.7459     |   9.9 |  9.69
Neigh   | 0.041097   | 0.041111   | 0.041124   |   0.0 |  0.15
Comm    | 8.8856     | 9.0117     | 9.1378     |   4.2 | 33.76
Output  | 0.22785    | 0.2279     | 0.22796    |   0.0 |  0.85
Modify  | 11.644     | 11.656     | 11.669     |   0.4 | 43.67
Other   |            | 3.169      |            |       | 11.87

Nlocal:             29 ave          29 max          29 min
Histogram: 2 0 0 0 0 0 0 0 0 0
Nghost:              3 ave           3 max           3 min
Histogram: 2 0 0 0 0 0 0 0 0 0
Neighs:             20 ave          20 max          20 min
Histogram: 2 0 0 0 0 0 0 0 0 0

Total # of neighbors = 40
Ave neighs/atom = 0.68965517
Neighbor list builds = 164
Dangerous builds = 0

undump D1


clear
  using 1 OpenMP thread(s) per MPI task

next num

jump SELF startloop

include granular.in
### Simulation of contact between two chain

##################### Simulation setup ####################

units micro                              # units
dimension	3                            # dimension
boundary	p p p                        # boundary condition p: periodic
atom_style	sphere                       # atom style
#processors * * 1

####################### Parameter ##################################

variable ind equal ${num}
variable ind equal 2

variable lat1 equal 3*(2^(1/2))
variable lat2 equal 3
variable d1 equal 3                      # Diamter of particle at bottom chain
variable d2 equal 3                      # Diamter of particle at upper chain

variable n2e1 equal 10*v_lat1              # Half length of top chain. 1500 is number of particles
variable n1e1 equal v_n2e1*(v_lat1/v_lat2)              # Half length of bottom chain, which is 1.5 time larger than top chain
variable n1e2 equal -v_n1e1
variable n2e2 equal -v_n2e1
#variable x_shift equal -0.25*v_d1

variable den equal 2.2 #grams/cm^3      # micrometer^3=10^-12 cm^3 Density of materials

variable V1 equal (1/6)*PI*(v_d1^3)     # Volume of particle 1
variable V2 equal (1/6)*PI*(v_d2^3)     # Volume of particle 2

variable mass1 equal v_den*v_V1  # Mass of particle 1 (picograms)
variable mass2 equal v_den*v_V2  # Mass of particle 2 (picograms)

# E GPa to picogram/(micrometer-microsecond^2)= 10^3 Pa= 10^-6 GPa
# Force unit(picogram-micrometer/microsecond^2)=10^-9 N= 1nN
# Spring stiffness (force/distance) 10^-3 N/m


variable E equal 100*(10^6)                    # Young's Modulus using for Hertz/material model
variable PR equal 0.1+(0.01*v_ind)                          # Poisson's ratio using for Hertz/material model
variable Fn equal -1000                        # Force apply to each particles in top chain
variable dt equal 0.00001                      # Time step units microsecond
variable lgv equal 0.5                         #damping for langevin thermostat for slider



################### Creating the model #################################
lattice sc ${lat1}                                                               # Bottom chain type1
lattice sc 4.24264068711929                                                               
Lattice spacing in x,y,z = 4.2426407 4.2426407 4.2426407

region box block ${n1e2} ${n1e1} -50 50 -50 50 units box
region box block -60.0000000000001 ${n1e1} -50 50 -50 50 units box
region box block -60.0000000000001 60.0000000000001 -50 50 -50 50 units box
region substrate block ${n1e2} ${n1e1} -0.1 0.1 0 0.1 units box
region substrate block -60.0000000000001 ${n1e1} -0.1 0.1 0 0.1 units box
region substrate block -60.0000000000001 60.0000000000001 -0.1 0.1 0 0.1 units box

create_box 2 box
Created orthogonal box = (-60 -50 -50) to (60 50 50)
  2 by 1 by 1 MPI processor grid
create_atoms 1 region substrate
Created 29 atoms
  using lattice units in orthogonal box = (-60 -50 -50) to (60 50 50)
  create_atoms CPU = 0.000 seconds

lattice sc ${lat2}                                                             # Top chain type2
lattice sc 3                                                             
Lattice spacing in x,y,z = 3 3 3

region slider1 block ${n2e2} ${n2e1} -0.1 0.1 5.9 6.1 units box
region slider1 block -42.4264068711929 ${n2e1} -0.1 0.1 5.9 6.1 units box
region slider1 block -42.4264068711929 42.4264068711929 -0.1 0.1 5.9 6.1 units box

create_atoms 2 region slider1
Created 29 atoms
  using lattice units in orthogonal box = (-60 -50 -50) to (60 50 50)
  create_atoms CPU = 0.000 seconds


set type 1 diameter ${d1}                    # Set mass and diameter for each particles type
set type 1 diameter 3                    
Setting atom values ...
  29 settings made for diameter
set type 1 mass ${mass1}
set type 1 mass 31.101767270539
Setting atom values ...
  29 settings made for mass
set type 2 diameter ${d2}                    # Set mass and diameter for each particles type
set type 2 diameter 3                    
Setting atom values ...
  29 settings made for diameter
set type 2 mass ${mass2}
set type 2 mass 31.101767270539
Setting atom values ...
  29 settings made for mass


group substrate region substrate           # Define gorup
29 atoms in group substrate
group slider1 region slider1
29 atoms in group slider1
#displace_atoms slider1 move ${x_shift} 0.0 0.0
#group substrate_slider union substrate slider1

########################## Potential ###################################
pair_style granular
pair_coeff 1 1 hertz/material 0.00000001 0.001 ${PR} tangential mindlin NULL 0.1 0.01 damping viscoelastic
pair_coeff 1 1 hertz/material 0.00000001 0.001 0.12 tangential mindlin NULL 0.1 0.01 damping viscoelastic
pair_coeff 2 2 hertz/material 0.00000001 0.001 ${PR} tangential mindlin NULL 0.1 0.01 damping viscoelastic
pair_coeff 2 2 hertz/material 0.00000001 0.001 0.12 tangential mindlin NULL 0.1 0.01 damping viscoelastic
pair_coeff 1 2 hertz/material ${E} 0.001 ${PR} tangential mindlin NULL 0.1 0.01 damping viscoelastic
pair_coeff 1 2 hertz/material 100000000 0.001 ${PR} tangential mindlin NULL 0.1 0.01 damping viscoelastic
pair_coeff 1 2 hertz/material 100000000 0.001 0.12 tangential mindlin NULL 0.1 0.01 damping viscoelastic

comm_modify     vel yes
neigh_modify    delay 0 every 1 check yes

### Compute properties ###

compute 1 slider1 com                      # Compute the center of mass of top chain

variable p0 equal "step"

variable slider_z equal "c_1[3]"          # output the position of top chain in z-direction


thermo 100000
thermo_style custom step lx ly lz press pxx pyy pzz ke pe temp c_1[1] c_1[2] c_1[3]

############### Fix ##################


############## Equilibrium the system with apply force ########################

fix force_slider1 slider1 setforce NULL 0 NULL                                # Fix top chain not to move in y-direction

fix f_sub substrate freeze                                                    # Freeze the bottom chain

#fix nve_slider1 slider1 nve                   # Integrate motion for slider1 group
#fix lan_slider slider1 langevin 0 0 ${lgv} 6987532
fix rigid_top slider1 rigid/nve group 1 slider1 langevin 0 0 ${lgv} 6987532   # NVE+langevin
fix rigid_top slider1 rigid/nve group 1 slider1 langevin 0 0 0.5 6987532   
  1 rigid bodies with 29 atoms

fix add slider1 addforce 0 0 ${Fn} every 1                                    # Add force to top layer
fix add slider1 addforce 0 0 -1000 every 1                                    

timestep ${dt}
timestep 1e-05

dump 		D1 all custom 100000 Equi_${num}_*.dump id type diameter mass xu yu zu fx fy fz
dump 		D1 all custom 100000 Equi_2_*.dump id type diameter mass xu yu zu fx fy fz
dump_modify D1 format 5 %.12g
dump_modify D1 format 7 %.12g

run 3000000
Generated 0 of 1 mixed pair_coeff terms from geometric mixing rule
Neighbor list info ...
  update every 1 steps, delay 0 steps, check yes
  max neighbors/atom: 2000, page size: 100000
  master list distance cutoff = 3.1
  ghost atom cutoff = 3.1
  binsize = 1.55, bins = 78 65 65
  1 neighbor lists, perpetual/occasional/extra = 1 0 0
  (1) pair granular, perpetual
      attributes: half, newton on, size, history
      pair build: half/size/bin/newton
      stencil: half/bin/3d
      bin: standard
Per MPI rank memory allocation (min/avg/max) = 13.49 | 13.49 | 13.49 Mbytes
   Step           Lx             Ly             Lz           Press           Pxx            Pyy            Pzz           KinEng         PotEng          Temp          c_1[1]         c_1[2]         c_1[3]    
         0   120            100            100            4.7153828e-15  1.4146149e-14  0              0              0              0              0              0              0              6            
    100000   120            100            100            0.01957485     1.4146149e-14  0              0.05872455     16876.485      0              8.1490507e+11  0              0              3.3273139    
    200000   120            100            100            0.0068139079   1.4146149e-14  0              0.020441724    4001.5256      0              1.9321935e+11  0              0              3.075964     
    300000   120            100            100            0.00021809594  1.4146149e-14  0              0.00065428781  8.8513698      0              4.2740097e+08  0              0              3.0436396    
    400000   120            100            100            4.0226632e-05  1.4146149e-14  0              0.0001206799   0.32665844     0              15773167       0              0              3.0052451    
    500000   120            100            100            0.010248001    1.4146149e-14  0              0.030744003    11.779818      0              5.6880526e+08  0              0              2.9965225    
    600000   120            100            100            0.023952386    1.4146149e-14  0              0.071857159    4.7942963      0              2.3149941e+08  0              0              2.9937977    
    700000   120            100            100            0.023518984    1.4146149e-14  0              0.070556951    0.60891198     0              29402180       0              0              2.9938555    
    800000   120            100            100            0.023738381    1.4146149e-14  0              0.071215142    0.072239386    0              3488181.4      0              0              2.9938109    
    900000   120            100            100            0.023924116    1.4146149e-14  0              0.071772349    0.0079164881   0              382258.88      0              0              2.9937764    
   1000000   120            100            100            0.024028266    1.4146149e-14  0              0.072084797    0.00078404072  0              37858.521      0              0              2.9937575    
   1100000   120            100            100            0.024078575    1.4146149e-14  0              0.072235726    6.7510765e-05  0              3259.8532      0              0              2.9937486    
   1200000   120            100            100            0.024100898    1.4146149e-14  0              0.072302693    4.645162e-06   0              224.29825      0              0              2.9937446    
   1300000   120            100            100            0.024110242    1.4146149e-14  0              0.072330726    2.0021947e-07  0              9.6678814      0              0              2.993743     
   1400000   120            100            100            0.024113982    1.4146149e-14  0              0.072341947    1.0296505e-09  0              0.049718136    0              0              2.9937423    
   1500000   120            100            100            0.024115424    1.4146149e-14  0              0.072346273    1.3939478e-09  0              0.067308751    0              0              2.9937421    
   1600000   120            100            100            0.024115961    1.4146149e-14  0              0.072347884    9.8322371e-10  0              0.047476354    0              0              2.993742     
   1700000   120            100            100            0.024116155    1.4146149e-14  0              0.072348464    3.1100842e-10  0              0.015017484    0              0              2.993742     
   1800000   120            100            100            0.024116222    1.4146149e-14  0              0.072348666    7.2535072e-11  0              0.003502459    0              0              2.9937419    
   1900000   120            100            100            0.024116244    1.4146149e-14  0              0.072348733    1.4256759e-11  0              0.00068840788  0              0              2.9937419    
   2000000   120            100            100            0.024116252    1.4146149e-14  0              0.072348755    2.4944607e-12  0              0.00012044858  0              0              2.9937419    
   2100000   120            100            100            0.024116254    1.4146149e-14  0              0.072348761    3.9930198e-13  0              1.9280864e-05  0              0              2.9937419    
   2200000   120            100            100            0.024116254    1.4146149e-14  0              0.072348763    5.9261897e-14  0              2.8615449e-06  0              0              2.9937419    
   2300000   120            100            100            0.024116255    1.4146149e-14  0              0.072348764    8.214171e-15   0              3.9663292e-07  0              0              2.9937419    
   2400000   120            100            100            0.024116255    1.4146149e-14  0              0.072348764    1.0645911e-15  0              5.1405296e-08  0              0              2.9937419    
   2500000   120            100            100            0.024116255    1.4146149e-14  0              0.072348764    1.2661095e-16  0              6.1135897e-09  0              0              2.9937419    
   2600000   120            100            100            0.024116255    1.4146149e-14  0              0.072348764    1.3933508e-17  0              6.7279925e-10  0              0              2.9937419    
   2700000   120            100            100            0.024116255    1.4146149e-14  0              0.072348764    1.8653821e-18  0              9.0072626e-11  0              0              2.9937419    
   2800000   120            100            100            0.024116255    1.4146149e-14  0              0.072348764    9.279766e-20   0              4.4808669e-12  0              0              2.9937419    
   2900000   120            100            100            0.024116255    1.4146149e-14  0              0.072348764    3.82255e-21    0              1.8457726e-13  0              0              2.9937419    
   3000000   120            100            100            0.024116255    1.4146149e-14  0              0.072348764    2.0504292e-19  0              9.9007887e-12  0              0              2.9937419    
Loop time of 26.458 on 2 procs for 3000000 steps with 58 atoms

Performance: 97966580.145 ns/day, 0.000 hours/ns, 113387.246 timesteps/s
99.6% CPU use with 2 MPI tasks x 1 OpenMP threads

MPI task timing breakdown:
Section |  min time  |  avg time  |  max time  |%varavg| %total
---------------------------------------------------------------
Pair    | 2.4011     | 2.5418     | 2.6824     |   8.8 |  9.61
Neigh   | 0.040425   | 0.040465   | 0.040504   |   0.0 |  0.15
Comm    | 8.89       | 9.0674     | 9.2449     |   5.9 | 34.27
Output  | 0.18598    | 0.18602    | 0.18605    |   0.0 |  0.70
Modify  | 11.45      | 11.489     | 11.528     |   1.1 | 43.42
Other   |            | 3.133      |            |       | 11.84

Nlocal:             29 ave          29 max          29 min
Histogram: 2 0 0 0 0 0 0 0 0 0
Nghost:              3 ave           3 max           3 min
Histogram: 2 0 0 0 0 0 0 0 0 0
Neighs:             20 ave          20 max          20 min
Histogram: 2 0 0 0 0 0 0 0 0 0

Total # of neighbors = 40
Ave neighs/atom = 0.68965517
Neighbor list builds = 164
Dangerous builds = 0

undump D1


clear
  using 1 OpenMP thread(s) per MPI task

next num

jump SELF startloop

include granular.in
### Simulation of contact between two chain

##################### Simulation setup ####################

units micro                              # units
dimension	3                            # dimension
boundary	p p p                        # boundary condition p: periodic
atom_style	sphere                       # atom style
#processors * * 1

####################### Parameter ##################################

variable ind equal ${num}
variable ind equal 3

variable lat1 equal 3*(2^(1/2))
variable lat2 equal 3
variable d1 equal 3                      # Diamter of particle at bottom chain
variable d2 equal 3                      # Diamter of particle at upper chain

variable n2e1 equal 10*v_lat1              # Half length of top chain. 1500 is number of particles
variable n1e1 equal v_n2e1*(v_lat1/v_lat2)              # Half length of bottom chain, which is 1.5 time larger than top chain
variable n1e2 equal -v_n1e1
variable n2e2 equal -v_n2e1
#variable x_shift equal -0.25*v_d1

variable den equal 2.2 #grams/cm^3      # micrometer^3=10^-12 cm^3 Density of materials

variable V1 equal (1/6)*PI*(v_d1^3)     # Volume of particle 1
variable V2 equal (1/6)*PI*(v_d2^3)     # Volume of particle 2

variable mass1 equal v_den*v_V1  # Mass of particle 1 (picograms)
variable mass2 equal v_den*v_V2  # Mass of particle 2 (picograms)

# E GPa to picogram/(micrometer-microsecond^2)= 10^3 Pa= 10^-6 GPa
# Force unit(picogram-micrometer/microsecond^2)=10^-9 N= 1nN
# Spring stiffness (force/distance) 10^-3 N/m


variable E equal 100*(10^6)                    # Young's Modulus using for Hertz/material model
variable PR equal 0.1+(0.01*v_ind)                          # Poisson's ratio using for Hertz/material model
variable Fn equal -1000                        # Force apply to each particles in top chain
variable dt equal 0.00001                      # Time step units microsecond
variable lgv equal 0.5                         #damping for langevin thermostat for slider



################### Creating the model #################################
lattice sc ${lat1}                                                               # Bottom chain type1
lattice sc 4.24264068711929                                                               
Lattice spacing in x,y,z = 4.2426407 4.2426407 4.2426407

region box block ${n1e2} ${n1e1} -50 50 -50 50 units box
region box block -60.0000000000001 ${n1e1} -50 50 -50 50 units box
region box block -60.0000000000001 60.0000000000001 -50 50 -50 50 units box
region substrate block ${n1e2} ${n1e1} -0.1 0.1 0 0.1 units box
region substrate block -60.0000000000001 ${n1e1} -0.1 0.1 0 0.1 units box
region substrate block -60.0000000000001 60.0000000000001 -0.1 0.1 0 0.1 units box

create_box 2 box
Created orthogonal box = (-60 -50 -50) to (60 50 50)
  2 by 1 by 1 MPI processor grid
create_atoms 1 region substrate
Created 29 atoms
  using lattice units in orthogonal box = (-60 -50 -50) to (60 50 50)
  create_atoms CPU = 0.000 seconds

lattice sc ${lat2}                                                             # Top chain type2
lattice sc 3                                                             
Lattice spacing in x,y,z = 3 3 3

region slider1 block ${n2e2} ${n2e1} -0.1 0.1 5.9 6.1 units box
region slider1 block -42.4264068711929 ${n2e1} -0.1 0.1 5.9 6.1 units box
region slider1 block -42.4264068711929 42.4264068711929 -0.1 0.1 5.9 6.1 units box

create_atoms 2 region slider1
Created 29 atoms
  using lattice units in orthogonal box = (-60 -50 -50) to (60 50 50)
  create_atoms CPU = 0.000 seconds


set type 1 diameter ${d1}                    # Set mass and diameter for each particles type
set type 1 diameter 3                    
Setting atom values ...
  29 settings made for diameter
set type 1 mass ${mass1}
set type 1 mass 31.101767270539
Setting atom values ...
  29 settings made for mass
set type 2 diameter ${d2}                    # Set mass and diameter for each particles type
set type 2 diameter 3                    
Setting atom values ...
  29 settings made for diameter
set type 2 mass ${mass2}
set type 2 mass 31.101767270539
Setting atom values ...
  29 settings made for mass


group substrate region substrate           # Define gorup
29 atoms in group substrate
group slider1 region slider1
29 atoms in group slider1
#displace_atoms slider1 move ${x_shift} 0.0 0.0
#group substrate_slider union substrate slider1

########################## Potential ###################################
pair_style granular
pair_coeff 1 1 hertz/material 0.00000001 0.001 ${PR} tangential mindlin NULL 0.1 0.01 damping viscoelastic
pair_coeff 1 1 hertz/material 0.00000001 0.001 0.13 tangential mindlin NULL 0.1 0.01 damping viscoelastic
pair_coeff 2 2 hertz/material 0.00000001 0.001 ${PR} tangential mindlin NULL 0.1 0.01 damping viscoelastic
pair_coeff 2 2 hertz/material 0.00000001 0.001 0.13 tangential mindlin NULL 0.1 0.01 damping viscoelastic
pair_coeff 1 2 hertz/material ${E} 0.001 ${PR} tangential mindlin NULL 0.1 0.01 damping viscoelastic
pair_coeff 1 2 hertz/material 100000000 0.001 ${PR} tangential mindlin NULL 0.1 0.01 damping viscoelastic
pair_coeff 1 2 hertz/material 100000000 0.001 0.13 tangential mindlin NULL 0.1 0.01 damping viscoelastic

comm_modify     vel yes
neigh_modify    delay 0 every 1 check yes

### Compute properties ###

compute 1 slider1 com                      # Compute the center of mass of top chain

variable p0 equal "step"

variable slider_z equal "c_1[3]"          # output the position of top chain in z-direction


thermo 100000
thermo_style custom step lx ly lz press pxx pyy pzz ke pe temp c_1[1] c_1[2] c_1[3]

############### Fix ##################


############## Equilibrium the system with apply force ########################

fix force_slider1 slider1 setforce NULL 0 NULL                                # Fix top chain not to move in y-direction

fix f_sub substrate freeze                                                    # Freeze the bottom chain

#fix nve_slider1 slider1 nve                   # Integrate motion for slider1 group
#fix lan_slider slider1 langevin 0 0 ${lgv} 6987532
fix rigid_top slider1 rigid/nve group 1 slider1 langevin 0 0 ${lgv} 6987532   # NVE+langevin
fix rigid_top slider1 rigid/nve group 1 slider1 langevin 0 0 0.5 6987532   
  1 rigid bodies with 29 atoms

fix add slider1 addforce 0 0 ${Fn} every 1                                    # Add force to top layer
fix add slider1 addforce 0 0 -1000 every 1                                    

timestep ${dt}
timestep 1e-05

dump 		D1 all custom 100000 Equi_${num}_*.dump id type diameter mass xu yu zu fx fy fz
dump 		D1 all custom 100000 Equi_3_*.dump id type diameter mass xu yu zu fx fy fz
dump_modify D1 format 5 %.12g
dump_modify D1 format 7 %.12g

run 3000000
Generated 0 of 1 mixed pair_coeff terms from geometric mixing rule
Neighbor list info ...
  update every 1 steps, delay 0 steps, check yes
  max neighbors/atom: 2000, page size: 100000
  master list distance cutoff = 3.1
  ghost atom cutoff = 3.1
  binsize = 1.55, bins = 78 65 65
  1 neighbor lists, perpetual/occasional/extra = 1 0 0
  (1) pair granular, perpetual
      attributes: half, newton on, size, history
      pair build: half/size/bin/newton
      stencil: half/bin/3d
      bin: standard
Per MPI rank memory allocation (min/avg/max) = 13.49 | 13.49 | 13.49 Mbytes
   Step           Lx             Ly             Lz           Press           Pxx            Pyy            Pzz           KinEng         PotEng          Temp          c_1[1]         c_1[2]         c_1[3]    
         0   120            100            100            4.727374e-15   1.4182122e-14  0              0              0              0              0              0              0              6            
    100000   120            100            100            0.019575556    1.4182122e-14  0              0.058726668    16877.384      0              8.1494847e+11  0              0              3.3272927    
    200000   120            100            100            0.0068155105   1.4182122e-14  0              0.020446531    4002.9951      0              1.9329031e+11  0              0              3.0759259    
    300000   120            100            100            0.00022033481  1.4182122e-14  0              0.00066100443  9.0294948      0              4.3600199e+08  0              0              3.0436493    
    400000   120            100            100            4.5857255e-05  1.4182122e-14  0              0.00013757176  0.42274498     0              20412842       0              0              3.0052528    
    500000   120            100            100            0.010524684    1.4182122e-14  0              0.031574052    12.877928      0              6.2182905e+08  0              0              2.9964672    
    600000   120            100            100            0.024480634    1.4182122e-14  0              0.073441902    4.7964804      0              2.3160487e+08  0              0              2.9937168    
    700000   120            100            100            0.023890146    1.4182122e-14  0              0.071670437    0.64374393     0              31084090       0              0              2.9938016    
    800000   120            100            100            0.023934786    1.4182122e-14  0              0.071804357    0.084193809    0              4065417.7      0              0              2.9937875    
    900000   120            100            100            0.024014748    1.4182122e-14  0              0.072044245    0.010757913    0              519461.14      0              0              2.9937714    
   1000000   120            100            100            0.024066494    1.4182122e-14  0              0.072199481    0.0013396007   0              64684.524      0              0              2.9937616    
   1100000   120            100            100            0.024093606    1.4182122e-14  0              0.072280817    0.00016216461  0              7830.3484      0              0              2.9937566    
   1200000   120            100            100            0.024106453    1.4182122e-14  0              0.07231936     1.9021223e-05  0              918.46679      0              0              2.9937543    
   1300000   120            100            100            0.024112184    1.4182122e-14  0              0.072336553    2.151439e-06   0              103.88529      0              0              2.9937533    
   1400000   120            100            100            0.024114638    1.4182122e-14  0              0.072343915    2.3297611e-07  0              11.249583      0              0              2.9937528    
   1500000   120            100            100            0.024115657    1.4182122e-14  0              0.072346972    2.3889669e-08  0              1.1535466      0              0              2.9937526    
   1600000   120            100            100            0.024116071    1.4182122e-14  0              0.072348213    2.2788757e-09  0              0.11003875     0              0              2.9937526    
   1700000   120            100            100            0.024116236    1.4182122e-14  0              0.072348707    1.960475e-10   0              0.0094664319   0              0              2.9937525    
   1800000   120            100            100            0.0241163      1.4182122e-14  0              0.0723489      1.4299922e-11  0              0.00069049206  0              0              2.9937525    
   1900000   120            100            100            0.024116325    1.4182122e-14  0              0.072348974    7.5904618e-13  0              3.6651624e-05  0              0              2.9937525    
   2000000   120            100            100            0.024116334    1.4182122e-14  0              0.072349003    1.5756183e-14  0              7.6080968e-07  0              0              2.9937525    
   2100000   120            100            100            0.024116338    1.4182122e-14  0              0.072349013    6.8062693e-16  0              3.2865039e-08  0              0              2.9937525    
   2200000   120            100            100            0.024116339    1.4182122e-14  0              0.072349017    1.3012181e-15  0              6.2831163e-08  0              0              2.9937525    
   2300000   120            100            100            0.02411634     1.4182122e-14  0              0.072349019    5.1842063e-16  0              2.5032677e-08  0              0              2.9937525    
   2400000   120            100            100            0.02411634     1.4182122e-14  0              0.072349019    1.397538e-16   0              6.748211e-09   0              0              2.9937525    
   2500000   120            100            100            0.02411634     1.4182122e-14  0              0.072349019    2.9297621e-17  0              1.4146773e-09  0              0              2.9937525    
   2600000   120            100            100            0.02411634     1.4182122e-14  0              0.072349019    5.3577377e-18  0              2.5870598e-10  0              0              2.9937525    
   2700000   120            100            100            0.02411634     1.4182122e-14  0              0.072349019    4.8283387e-19  0              2.3314319e-11  0              0              2.9937525    
   2800000   120            100            100            0.02411634     1.4182122e-14  0              0.072349019    1.361385e-19   0              6.573641e-12   0              0              2.9937525    
   2900000   120            100            100            0.02411634     1.4182122e-14  0              0.072349019    2.140485e-19   0              1.0335636e-11  0              0              2.9937525    
   3000000   120            100            100            0.02411634     1.4182122e-14  0              0.072349019    1.6816973e-20  0              8.1203145e-13  0              0              2.9937525    
Loop time of 26.0247 on 2 procs for 3000000 steps with 58 atoms

Performance: 99597705.761 ns/day, 0.000 hours/ns, 115275.122 timesteps/s
99.7% CPU use with 2 MPI tasks x 1 OpenMP threads

MPI task timing breakdown:
Section |  min time  |  avg time  |  max time  |%varavg| %total
---------------------------------------------------------------
Pair    | 2.4012     | 2.603      | 2.8047     |  12.5 | 10.00
Neigh   | 0.041328   | 0.041376   | 0.041424   |   0.0 |  0.16
Comm    | 8.5731     | 8.7747     | 8.9763     |   6.8 | 33.72
Output  | 0.15211    | 0.15214    | 0.15217    |   0.0 |  0.58
Modify  | 11.233     | 11.324     | 11.415     |   2.7 | 43.51
Other   |            | 3.13       |            |       | 12.03

Nlocal:             29 ave          30 max          28 min
Histogram: 1 0 0 0 0 0 0 0 0 1
Nghost:              3 ave           4 max           2 min
Histogram: 1 0 0 0 0 0 0 0 0 1
Neighs:             20 ave          21 max          19 min
Histogram: 1 0 0 0 0 0 0 0 0 1

Total # of neighbors = 40
Ave neighs/atom = 0.68965517
Neighbor list builds = 164
Dangerous builds = 0

undump D1


clear
  using 1 OpenMP thread(s) per MPI task

next num

jump SELF startloop

include granular.in
### Simulation of contact between two chain

##################### Simulation setup ####################

units micro                              # units
dimension	3                            # dimension
boundary	p p p                        # boundary condition p: periodic
atom_style	sphere                       # atom style
#processors * * 1

####################### Parameter ##################################

variable ind equal ${num}
variable ind equal 4

variable lat1 equal 3*(2^(1/2))
variable lat2 equal 3
variable d1 equal 3                      # Diamter of particle at bottom chain
variable d2 equal 3                      # Diamter of particle at upper chain

variable n2e1 equal 10*v_lat1              # Half length of top chain. 1500 is number of particles
variable n1e1 equal v_n2e1*(v_lat1/v_lat2)              # Half length of bottom chain, which is 1.5 time larger than top chain
variable n1e2 equal -v_n1e1
variable n2e2 equal -v_n2e1
#variable x_shift equal -0.25*v_d1

variable den equal 2.2 #grams/cm^3      # micrometer^3=10^-12 cm^3 Density of materials

variable V1 equal (1/6)*PI*(v_d1^3)     # Volume of particle 1
variable V2 equal (1/6)*PI*(v_d2^3)     # Volume of particle 2

variable mass1 equal v_den*v_V1  # Mass of particle 1 (picograms)
variable mass2 equal v_den*v_V2  # Mass of particle 2 (picograms)

# E GPa to picogram/(micrometer-microsecond^2)= 10^3 Pa= 10^-6 GPa
# Force unit(picogram-micrometer/microsecond^2)=10^-9 N= 1nN
# Spring stiffness (force/distance) 10^-3 N/m


variable E equal 100*(10^6)                    # Young's Modulus using for Hertz/material model
variable PR equal 0.1+(0.01*v_ind)                          # Poisson's ratio using for Hertz/material model
variable Fn equal -1000                        # Force apply to each particles in top chain
variable dt equal 0.00001                      # Time step units microsecond
variable lgv equal 0.5                         #damping for langevin thermostat for slider



################### Creating the model #################################
lattice sc ${lat1}                                                               # Bottom chain type1
lattice sc 4.24264068711929                                                               
Lattice spacing in x,y,z = 4.2426407 4.2426407 4.2426407

region box block ${n1e2} ${n1e1} -50 50 -50 50 units box
region box block -60.0000000000001 ${n1e1} -50 50 -50 50 units box
region box block -60.0000000000001 60.0000000000001 -50 50 -50 50 units box
region substrate block ${n1e2} ${n1e1} -0.1 0.1 0 0.1 units box
region substrate block -60.0000000000001 ${n1e1} -0.1 0.1 0 0.1 units box
region substrate block -60.0000000000001 60.0000000000001 -0.1 0.1 0 0.1 units box

create_box 2 box
Created orthogonal box = (-60 -50 -50) to (60 50 50)
  2 by 1 by 1 MPI processor grid
create_atoms 1 region substrate
Created 29 atoms
  using lattice units in orthogonal box = (-60 -50 -50) to (60 50 50)
  create_atoms CPU = 0.000 seconds

lattice sc ${lat2}                                                             # Top chain type2
lattice sc 3                                                             
Lattice spacing in x,y,z = 3 3 3

region slider1 block ${n2e2} ${n2e1} -0.1 0.1 5.9 6.1 units box
region slider1 block -42.4264068711929 ${n2e1} -0.1 0.1 5.9 6.1 units box
region slider1 block -42.4264068711929 42.4264068711929 -0.1 0.1 5.9 6.1 units box

create_atoms 2 region slider1
Created 29 atoms
  using lattice units in orthogonal box = (-60 -50 -50) to (60 50 50)
  create_atoms CPU = 0.000 seconds


set type 1 diameter ${d1}                    # Set mass and diameter for each particles type
set type 1 diameter 3                    
Setting atom values ...
  29 settings made for diameter
set type 1 mass ${mass1}
set type 1 mass 31.101767270539
Setting atom values ...
  29 settings made for mass
set type 2 diameter ${d2}                    # Set mass and diameter for each particles type
set type 2 diameter 3                    
Setting atom values ...
  29 settings made for diameter
set type 2 mass ${mass2}
set type 2 mass 31.101767270539
Setting atom values ...
  29 settings made for mass


group substrate region substrate           # Define gorup
29 atoms in group substrate
group slider1 region slider1
29 atoms in group slider1
#displace_atoms slider1 move ${x_shift} 0.0 0.0
#group substrate_slider union substrate slider1

########################## Potential ###################################
pair_style granular
pair_coeff 1 1 hertz/material 0.00000001 0.001 ${PR} tangential mindlin NULL 0.1 0.01 damping viscoelastic
pair_coeff 1 1 hertz/material 0.00000001 0.001 0.14 tangential mindlin NULL 0.1 0.01 damping viscoelastic
pair_coeff 2 2 hertz/material 0.00000001 0.001 ${PR} tangential mindlin NULL 0.1 0.01 damping viscoelastic
pair_coeff 2 2 hertz/material 0.00000001 0.001 0.14 tangential mindlin NULL 0.1 0.01 damping viscoelastic
pair_coeff 1 2 hertz/material ${E} 0.001 ${PR} tangential mindlin NULL 0.1 0.01 damping viscoelastic
pair_coeff 1 2 hertz/material 100000000 0.001 ${PR} tangential mindlin NULL 0.1 0.01 damping viscoelastic
pair_coeff 1 2 hertz/material 100000000 0.001 0.14 tangential mindlin NULL 0.1 0.01 damping viscoelastic

comm_modify     vel yes
neigh_modify    delay 0 every 1 check yes

### Compute properties ###

compute 1 slider1 com                      # Compute the center of mass of top chain

variable p0 equal "step"

variable slider_z equal "c_1[3]"          # output the position of top chain in z-direction


thermo 100000
thermo_style custom step lx ly lz press pxx pyy pzz ke pe temp c_1[1] c_1[2] c_1[3]

############### Fix ##################


############## Equilibrium the system with apply force ########################

fix force_slider1 slider1 setforce NULL 0 NULL                                # Fix top chain not to move in y-direction

fix f_sub substrate freeze                                                    # Freeze the bottom chain

#fix nve_slider1 slider1 nve                   # Integrate motion for slider1 group
#fix lan_slider slider1 langevin 0 0 ${lgv} 6987532
fix rigid_top slider1 rigid/nve group 1 slider1 langevin 0 0 ${lgv} 6987532   # NVE+langevin
fix rigid_top slider1 rigid/nve group 1 slider1 langevin 0 0 0.5 6987532   
  1 rigid bodies with 29 atoms

fix add slider1 addforce 0 0 ${Fn} every 1                                    # Add force to top layer
fix add slider1 addforce 0 0 -1000 every 1                                    

timestep ${dt}
timestep 1e-05

dump 		D1 all custom 100000 Equi_${num}_*.dump id type diameter mass xu yu zu fx fy fz
dump 		D1 all custom 100000 Equi_4_*.dump id type diameter mass xu yu zu fx fy fz
dump_modify D1 format 5 %.12g
dump_modify D1 format 7 %.12g

run 3000000
Generated 0 of 1 mixed pair_coeff terms from geometric mixing rule
Neighbor list info ...
  update every 1 steps, delay 0 steps, check yes
  max neighbors/atom: 2000, page size: 100000
  master list distance cutoff = 3.1
  ghost atom cutoff = 3.1
  binsize = 1.55, bins = 78 65 65
  1 neighbor lists, perpetual/occasional/extra = 1 0 0
  (1) pair granular, perpetual
      attributes: half, newton on, size, history
      pair build: half/size/bin/newton
      stencil: half/bin/3d
      bin: standard
Per MPI rank memory allocation (min/avg/max) = 13.49 | 13.49 | 13.49 Mbytes
   Step           Lx             Ly             Lz           Press           Pxx            Pyy            Pzz           KinEng         PotEng          Temp          c_1[1]         c_1[2]         c_1[3]    
         0   120            100            100            4.740393e-15   1.4221179e-14  0              0              0              0              0              0              0              6            
    100000   120            100            100            0.01957632     1.4221179e-14  0              0.058728961    16878.357      0              8.1499548e+11  0              0              3.3272697    
    200000   120            100            100            0.0068172505   1.4221179e-14  0              0.020451751    4004.591       0              1.9336737e+11  0              0              3.0758845    
    300000   120            100            100            0.00022276831  1.4221179e-14  0              0.00066830492  9.2250263      0              4.454435e+08   0              0              3.0436597    
    400000   120            100            100            5.1971536e-05  1.4221179e-14  0              0.00015591461  0.54093563     0              26119846       0              0              3.0052606    
    500000   120            100            100            0.010842432    1.4221179e-14  0              0.032527296    14.097542      0              6.8071986e+08  0              0              2.9964041    
    600000   120            100            100            0.025060521    1.4221179e-14  0              0.075181564    4.7324173      0              2.2851149e+08  0              0              2.9936287    
    700000   120            100            100            0.024302806    1.4221179e-14  0              0.072908419    0.64859264     0              31318217       0              0              2.9937417    
    800000   120            100            100            0.024159523    1.4221179e-14  0              0.072478568    0.088011047    0              4249738.5      0              0              2.9937602    
    900000   120            100            100            0.024123599    1.4221179e-14  0              0.072370796    0.011923613    0              575748.59      0              0              2.9937641    
   1000000   120            100            100            0.024115774    1.4221179e-14  0              0.072347323    0.0016132369   0              77897.437      0              0              2.9937646    
   1100000   120            100            100            0.024114956    1.4221179e-14  0              0.072344867    0.00021795363  0              10524.201      0              0              2.9937644    
   1200000   120            100            100            0.024115432    1.4221179e-14  0              0.072346295    2.9402645e-05  0              1419.7485      0              0              2.9937642    
   1300000   120            100            100            0.024115896    1.4221179e-14  0              0.072347687    3.960579e-06   0              191.24219      0              0              2.9937641    
   1400000   120            100            100            0.024116173    1.4221179e-14  0              0.072348518    5.3269364e-07  0              25.72187       0              0              2.993764     
   1500000   120            100            100            0.024116314    1.4221179e-14  0              0.072348942    7.1538421e-08  0              3.4543343      0              0              2.993764     
   1600000   120            100            100            0.02411638     1.4221179e-14  0              0.072349141    9.5926689e-09  0              0.46319565     0              0              2.993764     
   1700000   120            100            100            0.02411641     1.4221179e-14  0              0.07234923     1.2843161e-09  0              0.062015029    0              0              2.993764     
   1800000   120            100            100            0.024116423    1.4221179e-14  0              0.072349268    1.7168525e-10  0              0.0082900664   0              0              2.993764     
   1900000   120            100            100            0.024116428    1.4221179e-14  0              0.072349285    2.2914411e-11  0              0.0011064549   0              0              2.993764     
   2000000   120            100            100            0.02411643     1.4221179e-14  0              0.072349291    3.0533403e-12  0              0.00014743488  0              0              2.993764     
   2100000   120            100            100            0.024116431    1.4221179e-14  0              0.072349294    4.0623506e-13  0              1.9615637e-05  0              0              2.993764     
   2200000   120            100            100            0.024116432    1.4221179e-14  0              0.072349295    5.3948916e-14  0              2.6050001e-06  0              0              2.993764     
   2300000   120            100            100            0.024116432    1.4221179e-14  0              0.072349296    7.1548044e-15  0              3.454799e-07   0              0              2.993764     
   2400000   120            100            100            0.024116432    1.4221179e-14  0              0.072349296    9.476064e-16   0              4.5756522e-08  0              0              2.993764     
   2500000   120            100            100            0.024116432    1.4221179e-14  0              0.072349296    1.2281945e-16  0              5.9305117e-09  0              0              2.993764     
   2600000   120            100            100            0.024116432    1.4221179e-14  0              0.072349296    1.623161e-17   0              7.8376637e-10  0              0              2.993764     
   2700000   120            100            100            0.024116432    1.4221179e-14  0              0.072349296    2.4893682e-18  0              1.2020268e-10  0              0              2.993764     
   2800000   120            100            100            0.024116432    1.4221179e-14  0              0.072349296    2.6681572e-19  0              1.2883576e-11  0              0              2.993764     
   2900000   120            100            100            0.024116432    1.4221179e-14  0              0.072349296    1.012225e-20   0              4.8876721e-13  0              0              2.993764     
   3000000   120            100            100            0.024116432    1.4221179e-14  0              0.072349296    1.8662247e-19  0              9.0113309e-12  0              0              2.993764     
Loop time of 25.9615 on 2 procs for 3000000 steps with 58 atoms

Performance: 99840272.164 ns/day, 0.000 hours/ns, 115555.871 timesteps/s
99.8% CPU use with 2 MPI tasks x 1 OpenMP threads

MPI task timing breakdown:
Section |  min time  |  avg time  |  max time  |%varavg| %total
---------------------------------------------------------------
Pair    | 2.401      | 2.5724     | 2.7439     |  10.7 |  9.91
Neigh   | 0.041317   | 0.041367   | 0.041417   |   0.0 |  0.16
Comm    | 8.5228     | 8.6877     | 8.8527     |   5.6 | 33.46
Output  | 0.11766    | 0.11769    | 0.11772    |   0.0 |  0.45
Modify  | 11.33      | 11.414     | 11.498     |   2.5 | 43.97
Other   |            | 3.128      |            |       | 12.05

Nlocal:             29 ave          30 max          28 min
Histogram: 1 0 0 0 0 0 0 0 0 1
Nghost:              3 ave           4 max           2 min
Histogram: 1 0 0 0 0 0 0 0 0 1
Neighs:             20 ave          21 max          19 min
Histogram: 1 0 0 0 0 0 0 0 0 1

Total # of neighbors = 40
Ave neighs/atom = 0.68965517
Neighbor list builds = 164
Dangerous builds = 0

undump D1


clear
  using 1 OpenMP thread(s) per MPI task

next num

jump SELF startloop

include granular.in
### Simulation of contact between two chain

##################### Simulation setup ####################

units micro                              # units
dimension	3                            # dimension
boundary	p p p                        # boundary condition p: periodic
atom_style	sphere                       # atom style
#processors * * 1

####################### Parameter ##################################

variable ind equal ${num}
variable ind equal 5

variable lat1 equal 3*(2^(1/2))
variable lat2 equal 3
variable d1 equal 3                      # Diamter of particle at bottom chain
variable d2 equal 3                      # Diamter of particle at upper chain

variable n2e1 equal 10*v_lat1              # Half length of top chain. 1500 is number of particles
variable n1e1 equal v_n2e1*(v_lat1/v_lat2)              # Half length of bottom chain, which is 1.5 time larger than top chain
variable n1e2 equal -v_n1e1
variable n2e2 equal -v_n2e1
#variable x_shift equal -0.25*v_d1

variable den equal 2.2 #grams/cm^3      # micrometer^3=10^-12 cm^3 Density of materials

variable V1 equal (1/6)*PI*(v_d1^3)     # Volume of particle 1
variable V2 equal (1/6)*PI*(v_d2^3)     # Volume of particle 2

variable mass1 equal v_den*v_V1  # Mass of particle 1 (picograms)
variable mass2 equal v_den*v_V2  # Mass of particle 2 (picograms)

# E GPa to picogram/(micrometer-microsecond^2)= 10^3 Pa= 10^-6 GPa
# Force unit(picogram-micrometer/microsecond^2)=10^-9 N= 1nN
# Spring stiffness (force/distance) 10^-3 N/m


variable E equal 100*(10^6)                    # Young's Modulus using for Hertz/material model
variable PR equal 0.1+(0.01*v_ind)                          # Poisson's ratio using for Hertz/material model
variable Fn equal -1000                        # Force apply to each particles in top chain
variable dt equal 0.00001                      # Time step units microsecond
variable lgv equal 0.5                         #damping for langevin thermostat for slider



################### Creating the model #################################
lattice sc ${lat1}                                                               # Bottom chain type1
lattice sc 4.24264068711929                                                               
Lattice spacing in x,y,z = 4.2426407 4.2426407 4.2426407

region box block ${n1e2} ${n1e1} -50 50 -50 50 units box
region box block -60.0000000000001 ${n1e1} -50 50 -50 50 units box
region box block -60.0000000000001 60.0000000000001 -50 50 -50 50 units box
region substrate block ${n1e2} ${n1e1} -0.1 0.1 0 0.1 units box
region substrate block -60.0000000000001 ${n1e1} -0.1 0.1 0 0.1 units box
region substrate block -60.0000000000001 60.0000000000001 -0.1 0.1 0 0.1 units box

create_box 2 box
Created orthogonal box = (-60 -50 -50) to (60 50 50)
  2 by 1 by 1 MPI processor grid
create_atoms 1 region substrate
Created 29 atoms
  using lattice units in orthogonal box = (-60 -50 -50) to (60 50 50)
  create_atoms CPU = 0.000 seconds

lattice sc ${lat2}                                                             # Top chain type2
lattice sc 3                                                             
Lattice spacing in x,y,z = 3 3 3

region slider1 block ${n2e2} ${n2e1} -0.1 0.1 5.9 6.1 units box
region slider1 block -42.4264068711929 ${n2e1} -0.1 0.1 5.9 6.1 units box
region slider1 block -42.4264068711929 42.4264068711929 -0.1 0.1 5.9 6.1 units box

create_atoms 2 region slider1
Created 29 atoms
  using lattice units in orthogonal box = (-60 -50 -50) to (60 50 50)
  create_atoms CPU = 0.000 seconds


set type 1 diameter ${d1}                    # Set mass and diameter for each particles type
set type 1 diameter 3                    
Setting atom values ...
[...]
   1400000   120            100            100            0.024120255    1.7289737e-14  0              0.072360764    9.6301816e-08  0              4.65007        0              0              2.9945259    
   1500000   120            100            100            0.024121922    1.7289737e-14  0              0.072365766    4.1276668e-08  0              1.9931026      0              0              2.9945257    
   1600000   120            100            100            0.024122441    1.7289737e-14  0              0.072367324    9.2431564e-09  0              0.44631894     0              0              2.9945256    
   1700000   120            100            100            0.024122569    1.7289737e-14  0              0.072367707    1.434482e-09   0              0.069266       0              0              2.9945256    
   1800000   120            100            100            0.024122585    1.7289737e-14  0              0.072367756    1.6233742e-10  0              0.0078386932   0              0              2.9945256    
   1900000   120            100            100            0.024122579    1.7289737e-14  0              0.072367738    1.2514458e-11  0              0.00060427837  0              0              2.9945256    
   2000000   120            100            100            0.024122573    1.7289737e-14  0              0.072367719    4.6395641e-13  0              2.2402795e-05  0              0              2.9945256    
   2100000   120            100            100            0.024122569    1.7289737e-14  0              0.072367708    2.4433603e-16  0              1.1798112e-08  0              0              2.9945256    
   2200000   120            100            100            0.024122568    1.7289737e-14  0              0.072367703    1.0572148e-14  0              5.1049117e-07  0              0              2.9945256    
   2300000   120            100            100            0.024122567    1.7289737e-14  0              0.072367702    4.5914238e-15  0              2.2170342e-07  0              0              2.9945256    
   2400000   120            100            100            0.024122567    1.7289737e-14  0              0.072367701    1.0328216e-15  0              4.9871257e-08  0              0              2.9945256    
   2500000   120            100            100            0.024122567    1.7289737e-14  0              0.072367701    1.6159798e-16  0              7.8029882e-09  0              0              2.9945256    
   2600000   120            100            100            0.024122567    1.7289737e-14  0              0.072367701    1.7585728e-17  0              8.4915188e-10  0              0              2.9945256    
   2700000   120            100            100            0.024122567    1.7289737e-14  0              0.072367701    1.526632e-18   0              7.3715594e-11  0              0              2.9945256    
   2800000   120            100            100            0.024122567    1.7289737e-14  0              0.072367701    1.4971575e-20  0              7.229238e-13   0              0              2.9945256    
   2900000   120            100            100            0.024122567    1.7289737e-14  0              0.072367701    3.1089852e-22  0              1.5012177e-14  0              0              2.9945256    
   3000000   120            100            100            0.024122567    1.7289737e-14  0              0.072367701    6.5439609e-21  0              3.1598445e-13  0              0              2.9945256    
Loop time of 26.2043 on 2 procs for 3000000 steps with 58 atoms

Performance: 98915057.532 ns/day, 0.000 hours/ns, 114485.020 timesteps/s
99.8% CPU use with 2 MPI tasks x 1 OpenMP threads

MPI task timing breakdown:
Section |  min time  |  avg time  |  max time  |%varavg| %total
---------------------------------------------------------------
Pair    | 2.379      | 2.5161     | 2.6532     |   8.6 |  9.60
Neigh   | 0.04065    | 0.040651   | 0.040652   |   0.0 |  0.16
Comm    | 8.7825     | 8.9423     | 9.102      |   5.3 | 34.13
Output  | 0.097131   | 0.097163   | 0.097195   |   0.0 |  0.37
Modify  | 11.511     | 11.514     | 11.516     |   0.1 | 43.94
Other   |            | 3.094      |            |       | 11.81

Nlocal:             29 ave          29 max          29 min
Histogram: 2 0 0 0 0 0 0 0 0 0
Nghost:              3 ave           3 max           3 min
Histogram: 2 0 0 0 0 0 0 0 0 0
Neighs:             20 ave          20 max          20 min
Histogram: 2 0 0 0 0 0 0 0 0 0

Total # of neighbors = 40
Ave neighs/atom = 0.68965517
Neighbor list builds = 164
Dangerous builds = 0

undump D1


clear
  using 1 OpenMP thread(s) per MPI task

next num

jump SELF startloop

include granular.in
### Simulation of contact between two chain

##################### Simulation setup ####################

units micro                              # units
dimension	3                            # dimension
boundary	p p p                        # boundary condition p: periodic
atom_style	sphere                       # atom style
#processors * * 1

####################### Parameter ##################################

variable ind equal ${num}
variable ind equal 35

variable lat1 equal 3*(2^(1/2))
variable lat2 equal 3
variable d1 equal 3                      # Diamter of particle at bottom chain
variable d2 equal 3                      # Diamter of particle at upper chain

variable n2e1 equal 10*v_lat1              # Half length of top chain. 1500 is number of particles
variable n1e1 equal v_n2e1*(v_lat1/v_lat2)              # Half length of bottom chain, which is 1.5 time larger than top chain
variable n1e2 equal -v_n1e1
variable n2e2 equal -v_n2e1
#variable x_shift equal -0.25*v_d1

variable den equal 2.2 #grams/cm^3      # micrometer^3=10^-12 cm^3 Density of materials

variable V1 equal (1/6)*PI*(v_d1^3)     # Volume of particle 1
variable V2 equal (1/6)*PI*(v_d2^3)     # Volume of particle 2

variable mass1 equal v_den*v_V1  # Mass of particle 1 (picograms)
variable mass2 equal v_den*v_V2  # Mass of particle 2 (picograms)

# E GPa to picogram/(micrometer-microsecond^2)= 10^3 Pa= 10^-6 GPa
# Force unit(picogram-micrometer/microsecond^2)=10^-9 N= 1nN
# Spring stiffness (force/distance) 10^-3 N/m


variable E equal 100*(10^6)                    # Young's Modulus using for Hertz/material model
variable PR equal 0.1+(0.01*v_ind)                          # Poisson's ratio using for Hertz/material model
variable Fn equal -1000                        # Force apply to each particles in top chain
variable dt equal 0.00001                      # Time step units microsecond
variable lgv equal 0.5                         #damping for langevin thermostat for slider



################### Creating the model #################################
lattice sc ${lat1}                                                               # Bottom chain type1
lattice sc 4.24264068711929                                                               
Lattice spacing in x,y,z = 4.2426407 4.2426407 4.2426407

region box block ${n1e2} ${n1e1} -50 50 -50 50 units box
region box block -60.0000000000001 ${n1e1} -50 50 -50 50 units box
region box block -60.0000000000001 60.0000000000001 -50 50 -50 50 units box
region substrate block ${n1e2} ${n1e1} -0.1 0.1 0 0.1 units box
region substrate block -60.0000000000001 ${n1e1} -0.1 0.1 0 0.1 units box
region substrate block -60.0000000000001 60.0000000000001 -0.1 0.1 0 0.1 units box

create_box 2 box
Created orthogonal box = (-60 -50 -50) to (60 50 50)
  2 by 1 by 1 MPI processor grid
create_atoms 1 region substrate
Created 29 atoms
  using lattice units in orthogonal box = (-60 -50 -50) to (60 50 50)
  create_atoms CPU = 0.000 seconds

lattice sc ${lat2}                                                             # Top chain type2
lattice sc 3                                                             
Lattice spacing in x,y,z = 3 3 3

region slider1 block ${n2e2} ${n2e1} -0.1 0.1 5.9 6.1 units box
region slider1 block -42.4264068711929 ${n2e1} -0.1 0.1 5.9 6.1 units box
region slider1 block -42.4264068711929 42.4264068711929 -0.1 0.1 5.9 6.1 units box

create_atoms 2 region slider1
Created 29 atoms
  using lattice units in orthogonal box = (-60 -50 -50) to (60 50 50)
  create_atoms CPU = 0.000 seconds


set type 1 diameter ${d1}                    # Set mass and diameter for each particles type
set type 1 diameter 3                    
Setting atom values ...
  29 settings made for diameter
set type 1 mass ${mass1}
set type 1 mass 31.101767270539
Setting atom values ...
  29 settings made for mass
set type 2 diameter ${d2}                    # Set mass and diameter for each particles type
set type 2 diameter 3                    
Setting atom values ...
  29 settings made for diameter
set type 2 mass ${mass2}
set type 2 mass 31.101767270539
Setting atom values ...
  29 settings made for mass


group substrate region substrate           # Define gorup
29 atoms in group substrate
group slider1 region slider1
29 atoms in group slider1
#displace_atoms slider1 move ${x_shift} 0.0 0.0
#group substrate_slider union substrate slider1

########################## Potential ###################################
pair_style granular
pair_coeff 1 1 hertz/material 0.00000001 0.001 ${PR} tangential mindlin NULL 0.1 0.01 damping viscoelastic
pair_coeff 1 1 hertz/material 0.00000001 0.001 0.45 tangential mindlin NULL 0.1 0.01 damping viscoelastic
pair_coeff 2 2 hertz/material 0.00000001 0.001 ${PR} tangential mindlin NULL 0.1 0.01 damping viscoelastic
pair_coeff 2 2 hertz/material 0.00000001 0.001 0.45 tangential mindlin NULL 0.1 0.01 damping viscoelastic
pair_coeff 1 2 hertz/material ${E} 0.001 ${PR} tangential mindlin NULL 0.1 0.01 damping viscoelastic
pair_coeff 1 2 hertz/material 100000000 0.001 ${PR} tangential mindlin NULL 0.1 0.01 damping viscoelastic
pair_coeff 1 2 hertz/material 100000000 0.001 0.45 tangential mindlin NULL 0.1 0.01 damping viscoelastic

comm_modify     vel yes
neigh_modify    delay 0 every 1 check yes

### Compute properties ###

compute 1 slider1 com                      # Compute the center of mass of top chain

variable p0 equal "step"

variable slider_z equal "c_1[3]"          # output the position of top chain in z-direction


thermo 100000
thermo_style custom step lx ly lz press pxx pyy pzz ke pe temp c_1[1] c_1[2] c_1[3]

############### Fix ##################


############## Equilibrium the system with apply force ########################

fix force_slider1 slider1 setforce NULL 0 NULL                                # Fix top chain not to move in y-direction

fix f_sub substrate freeze                                                    # Freeze the bottom chain

#fix nve_slider1 slider1 nve                   # Integrate motion for slider1 group
#fix lan_slider slider1 langevin 0 0 ${lgv} 6987532
fix rigid_top slider1 rigid/nve group 1 slider1 langevin 0 0 ${lgv} 6987532   # NVE+langevin
fix rigid_top slider1 rigid/nve group 1 slider1 langevin 0 0 0.5 6987532   
  1 rigid bodies with 29 atoms

fix add slider1 addforce 0 0 ${Fn} every 1                                    # Add force to top layer
fix add slider1 addforce 0 0 -1000 every 1                                    

timestep ${dt}
timestep 1e-05

dump 		D1 all custom 100000 Equi_${num}_*.dump id type diameter mass xu yu zu fx fy fz
dump 		D1 all custom 100000 Equi_35_*.dump id type diameter mass xu yu zu fx fy fz
dump_modify D1 format 5 %.12g
dump_modify D1 format 7 %.12g

run 3000000
Generated 0 of 1 mixed pair_coeff terms from geometric mixing rule
Neighbor list info ...
  update every 1 steps, delay 0 steps, check yes
  max neighbors/atom: 2000, page size: 100000
  master list distance cutoff = 3.1
  ghost atom cutoff = 3.1
  binsize = 1.55, bins = 78 65 65
  1 neighbor lists, perpetual/occasional/extra = 1 0 0
  (1) pair granular, perpetual
      attributes: half, newton on, size, history
      pair build: half/size/bin/newton
      stencil: half/bin/3d
      bin: standard
Per MPI rank memory allocation (min/avg/max) = 13.49 | 13.49 | 13.49 Mbytes
   Step           Lx             Ly             Lz           Press           Pxx            Pyy            Pzz           KinEng         PotEng          Temp          c_1[1]         c_1[2]         c_1[3]    
         0   120            100            100            5.8275628e-15  1.7482688e-14  0              0              0              0              0              0              0              6            
    100000   120            100            100            0.019632043    1.7482688e-14  0              0.058896128    16949.577      0              8.1843443e+11  0              0              3.3255307    
    200000   120            100            100            0.0069457728   1.7482688e-14  0              0.020837318    4123.0906      0              1.9908929e+11  0              0              3.0727353    
    300000   120            100            100            0.00040381452  1.7482688e-14  0              0.0012114435   29.189573      0              1.40946e+09    0              0              3.0442062    
    400000   120            100            100            0.00051268282  1.7482688e-14  0              0.0015380485   47.179141      0              2.2781118e+09  0              0              3.0044985    
    500000   120            100            100            0.041164506    0.00043284877  0              0.12306067     15.475529      0              7.4725793e+08  0              0              2.9922517    
    600000   120            100            100            0.031834211    1.7482688e-14  0              0.095502633    0.098881441    0              4774630.9      0              0              2.9934575    
    700000   120            100            100            0.026936841    1.7482688e-14  0              0.080810523    0.00018146578  0              8762.3331      0              0              2.9941505    
    800000   120            100            100            0.025150131    1.7482688e-14  0              0.075450393    0.00013839107  0              6682.4095      0              0              2.9944127    
    900000   120            100            100            0.024498822    1.7482688e-14  0              0.073496465    8.937425e-05   0              4315.5627      0              0              2.9945096    
   1000000   120            100            100            0.024260453    1.7482688e-14  0              0.072781358    2.8182801e-05  0              1360.8466      0              0              2.9945453    
   1100000   120            100            100            0.024173164    1.7482688e-14  0              0.072519491    6.8689996e-06  0              331.67941      0              0              2.9945584    
   1200000   120            100            100            0.024141232    1.7482688e-14  0              0.072423696    1.4592774e-06  0              70.463284      0              0              2.9945632    
   1300000   120            100            100            0.02412957     1.7482688e-14  0              0.072388709    2.8435935e-07  0              13.730695      0              0              2.9945649    
   1400000   120            100            100            0.024125319    1.7482688e-14  0              0.072375956    5.2203212e-08  0              2.5207063      0              0              2.9945656    
   1500000   120            100            100            0.024123772    1.7482688e-14  0              0.072371316    9.1727523e-09  0              0.44291938     0              0              2.9945658    
   1600000   120            100            100            0.02412321     1.7482688e-14  0              0.072369631    1.5584024e-09  0              0.075249676    0              0              2.9945659    
   1700000   120            100            100            0.024123007    1.7482688e-14  0              0.072369021    2.5776841e-10  0              0.012446714    0              0              2.9945659    
   1800000   120            100            100            0.024122933    1.7482688e-14  0              0.0723688      4.1713315e-11  0              0.0020141867   0              0              2.9945659    
   1900000   120            100            100            0.024122907    1.7482688e-14  0              0.072368721    6.6277581e-12  0              0.00032003072  0              0              2.9945659    
   2000000   120            100            100            0.024122897    1.7482688e-14  0              0.072368692    1.0370214e-12  0              5.0074054e-05  0              0              2.9945659    
   2100000   120            100            100            0.024122894    1.7482688e-14  0              0.072368682    1.6003864e-13  0              7.7276931e-06  0              0              2.9945659    
   2200000   120            100            100            0.024122893    1.7482688e-14  0              0.072368678    2.4410395e-14  0              1.1786906e-06  0              0              2.9945659    
   2300000   120            100            100            0.024122892    1.7482688e-14  0              0.072368677    3.6805388e-15  0              1.7772005e-07  0              0              2.9945659    
   2400000   120            100            100            0.024122892    1.7482688e-14  0              0.072368677    5.4934346e-16  0              2.6525829e-08  0              0              2.9945659    
   2500000   120            100            100            0.024122892    1.7482688e-14  0              0.072368676    8.180912e-17   0              3.9502696e-09  0              0              2.9945659    
   2600000   120            100            100            0.024122892    1.7482688e-14  0              0.072368676    1.219932e-17   0              5.8906148e-10  0              0              2.9945659    
   2700000   120            100            100            0.024122892    1.7482688e-14  0              0.072368676    1.3539135e-18  0              6.5375636e-11  0              0              2.9945659    
   2800000   120            100            100            0.024122892    1.7482688e-14  0              0.072368676    2.2164887e-19  0              1.0702631e-11  0              0              2.9945659    
   2900000   120            100            100            0.024122892    1.7482688e-14  0              0.072368676    7.2753494e-20  0              3.5130058e-12  0              0              2.9945659    
   3000000   120            100            100            0.024122892    1.7482688e-14  0              0.072368676    1.8648857e-19  0              9.0048658e-12  0              0              2.9945659    
Loop time of 25.9829 on 2 procs for 3000000 steps with 58 atoms

Performance: 99757967.554 ns/day, 0.000 hours/ns, 115460.611 timesteps/s
99.8% CPU use with 2 MPI tasks x 1 OpenMP threads

MPI task timing breakdown:
Section |  min time  |  avg time  |  max time  |%varavg| %total
---------------------------------------------------------------
Pair    | 2.3671     | 2.5904     | 2.8137     |  13.9 |  9.97
Neigh   | 0.041084   | 0.041127   | 0.041171   |   0.0 |  0.16
Comm    | 8.7899     | 8.997      | 9.2041     |   6.9 | 34.63
Output  | 0.089445   | 0.089481   | 0.089517   |   0.0 |  0.34
Modify  | 11.177     | 11.224     | 11.27      |   1.4 | 43.20
Other   |            | 3.041      |            |       | 11.70

Nlocal:             29 ave          29 max          29 min
Histogram: 2 0 0 0 0 0 0 0 0 0
Nghost:              3 ave           3 max           3 min
Histogram: 2 0 0 0 0 0 0 0 0 0
Neighs:             20 ave          20 max          20 min
Histogram: 2 0 0 0 0 0 0 0 0 0

Total # of neighbors = 40
Ave neighs/atom = 0.68965517
Neighbor list builds = 164
Dangerous builds = 0

undump D1


clear
  using 1 OpenMP thread(s) per MPI task

next num

jump SELF startloop
Total wall time: 0:15:37
