LAMMPS (23 Jun 2022 - Update 1)
  using 1 OpenMP thread(s) per MPI task
variable num index 1 2 3 4 5 6 7 8 9 10 11 12 13 14 15 16 17 18 19 20 21 22 23 24 25 26 27 28 29 30 31 32 33 34 35 36 37 38 39 40

label startloop

include granular.in
### Simulation of contact between two chain

##################### Simulation setup ####################

units micro                              # units
dimension	3                            # dimension
boundary	p p p                        # boundary condition p: periodic
atom_style	sphere                       # atom style
#processors * * 1

####################### Parameter ##################################

variable ind equal ${num}
variable ind equal 1

variable lat1 equal 3 #*(2^(1/2))
variable lat2 equal 3
variable d1 equal 3                      # Diamter of particle at bottom chain
variable d2 equal 3                      # Diamter of particle at upper chain

variable n2e1 equal 1000*v_lat1              # Half length of top chain. 1500 is number of particles
variable n1e1 equal v_n2e1*(v_lat1/v_lat2)              # Half length of bottom chain, which is 1.5 time larger than top chain
variable n1e2 equal -v_n1e1
variable n2e2 equal -v_n2e1
#variable x_shift equal -0.25*v_d1

variable den equal 2.2 #grams/cm^3      # micrometer^3=10^-12 cm^3 Density of materials

variable V1 equal (1/6)*PI*(v_d1^3)     # Volume of particle 1
variable V2 equal (1/6)*PI*(v_d2^3)     # Volume of particle 2

variable mass1 equal v_den*v_V1  # Mass of particle 1 (picograms)
variable mass2 equal v_den*v_V2  # Mass of particle 2 (picograms)

# E GPa to picogram/(micrometer-microsecond^2)= 10^3 Pa= 10^-6 GPa
# Force unit(picogram-micrometer/microsecond^2)=10^-9 N= 1nN
# Spring stiffness (force/distance) 10^-3 N/m


variable E equal (10+(5*v_ind))*(10^6)                    # Young's Modulus using for Hertz/material model
variable PR equal 0.3                          # Poisson's ratio using for Hertz/material model
variable Fn equal -1000                        # Force apply to each particles in top chain
variable dt equal 0.00001                      # Time step units microsecond
variable lgv equal 0.5                         #damping for langevin thermostat for slider



################### Creating the model #################################
lattice sc ${lat1}                                                               # Bottom chain type1
lattice sc 3                                                               
Lattice spacing in x,y,z = 3 3 3

region box block ${n1e2} ${n1e1} -50 50 -50 50 units box
region box block -3000 ${n1e1} -50 50 -50 50 units box
region box block -3000 3000 -50 50 -50 50 units box
region substrate block ${n1e2} ${n1e1} -0.1 0.1 0 0.1 units box
region substrate block -3000 ${n1e1} -0.1 0.1 0 0.1 units box
region substrate block -3000 3000 -0.1 0.1 0 0.1 units box

create_box 2 box
Created orthogonal box = (-3000 -50 -50) to (3000 50 50)
  4 by 1 by 1 MPI processor grid
create_atoms 1 region substrate
Created 2000 atoms
  using lattice units in orthogonal box = (-3000 -50 -50) to (3000 50 50)
  create_atoms CPU = 0.001 seconds

lattice sc ${lat2}                                                             # Top chain type2
lattice sc 3                                                             
Lattice spacing in x,y,z = 3 3 3

region slider1 block ${n2e2} ${n2e1} -0.1 0.1 5.9 6.1 units box
region slider1 block -3000 ${n2e1} -0.1 0.1 5.9 6.1 units box
region slider1 block -3000 3000 -0.1 0.1 5.9 6.1 units box

create_atoms 2 region slider1
Created 2000 atoms
  using lattice units in orthogonal box = (-3000 -50 -50) to (3000 50 50)
  create_atoms CPU = 0.001 seconds


set type 1 diameter ${d1}                    # Set mass and diameter for each particles type
set type 1 diameter 3                    
Setting atom values ...
  2000 settings made for diameter
set type 1 mass ${mass1}
set type 1 mass 31.101767270539
Setting atom values ...
  2000 settings made for mass
set type 2 diameter ${d2}                    # Set mass and diameter for each particles type
set type 2 diameter 3                    
Setting atom values ...
  2000 settings made for diameter
set type 2 mass ${mass2}
set type 2 mass 31.101767270539
Setting atom values ...
  2000 settings made for mass


group substrate region substrate           # Define gorup
2000 atoms in group substrate
group slider1 region slider1
2000 atoms in group slider1
#displace_atoms slider1 move ${x_shift} 0.0 0.0
#group substrate_slider union substrate slider1

########################## Potential ###################################
pair_style granular
pair_coeff 1 1 hertz/material 0.00000001 0.001 ${PR} tangential mindlin NULL 0.1 0.01 damping viscoelastic
pair_coeff 1 1 hertz/material 0.00000001 0.001 0.3 tangential mindlin NULL 0.1 0.01 damping viscoelastic
pair_coeff 2 2 hertz/material 0.00000001 0.001 ${PR} tangential mindlin NULL 0.1 0.01 damping viscoelastic
pair_coeff 2 2 hertz/material 0.00000001 0.001 0.3 tangential mindlin NULL 0.1 0.01 damping viscoelastic
pair_coeff 1 2 hertz/material ${E} 0.001 ${PR} tangential mindlin NULL 0.1 0.01 damping viscoelastic
pair_coeff 1 2 hertz/material 15000000 0.001 ${PR} tangential mindlin NULL 0.1 0.01 damping viscoelastic
pair_coeff 1 2 hertz/material 15000000 0.001 0.3 tangential mindlin NULL 0.1 0.01 damping viscoelastic

comm_modify     vel yes
neigh_modify    delay 0 every 1 check yes

### Compute properties ###

compute 1 slider1 com                      # Compute the center of mass of top chain

variable p0 equal "step"

variable slider_z equal "c_1[3]"          # output the position of top chain in z-direction


thermo 100000
thermo_style custom step lx ly lz press pxx pyy pzz ke pe temp c_1[1] c_1[2] c_1[3]

############### Fix ##################


############## Equilibrium the system with apply force ########################

fix force_slider1 slider1 setforce NULL 0 NULL                                # Fix top chain not to move in y-direction

fix f_sub substrate freeze                                                    # Freeze the bottom chain

#fix nve_slider1 slider1 nve                   # Integrate motion for slider1 group
#fix lan_slider slider1 langevin 0 0 ${lgv} 6987532
fix rigid_top slider1 rigid/nve group 1 slider1 langevin 0 0 ${lgv} 6987532   # NVE+langevin
fix rigid_top slider1 rigid/nve group 1 slider1 langevin 0 0 0.5 6987532   
  1 rigid bodies with 2000 atoms

fix add slider1 addforce 0 0 ${Fn} every 1                                    # Add force to top layer
fix add slider1 addforce 0 0 -1000 every 1                                    

timestep ${dt}
timestep 1e-05

dump 		D1 all custom 100000 Equi_${num}_*.dump id type diameter mass xu yu zu fx fy fz
dump 		D1 all custom 100000 Equi_1_*.dump id type diameter mass xu yu zu fx fy fz
dump_modify D1 format 5 %.12g
dump_modify D1 format 7 %.12g

run 3000000
Generated 0 of 1 mixed pair_coeff terms from geometric mixing rule
Neighbor list info ...
  update every 1 steps, delay 0 steps, check yes
  max neighbors/atom: 2000, page size: 100000
  master list distance cutoff = 3.1
  ghost atom cutoff = 3.1
  binsize = 1.55, bins = 3871 65 65
  1 neighbor lists, perpetual/occasional/extra = 1 0 0
  (1) pair granular, perpetual
      attributes: half, newton on, size, history
      pair build: half/size/bin/newton
      stencil: half/bin/3d
      bin: standard
Per MPI rank memory allocation (min/avg/max) = 30.97 | 30.97 | 30.97 Mbytes
   Step           Lx             Ly             Lz           Press           Pxx            Pyy            Pzz           KinEng         PotEng          Temp          c_1[1]         c_1[2]         c_1[3]    
         0   6000           100            100            0              0              0              0              0              0              0             -1.5            0              6            
    100000   6000           100            100            0.027075015    1.0583189e-20  0              0.081225044    1168384.7      0              5.6417117e+13 -1.5            0              3.3268976    
    200000   6000           100            100            0.0097924656   2.6576258e-21  0              0.029377397    294073.55      0              1.4199759e+13 -1.5            0              3.070477     
    300000   6000           100            100            0.0013760274   5.9940671e-22  0              0.0041280822   11047.413      0              5.3344005e+11 -1.5            0              3.0441249    
    400000   6000           100            100           -0.0010945615  -1.3259928e-21  0             -0.0032836845   10592.52       0              5.1147488e+11 -1.5            0              3.0037741    
    500000   6000           100            100            0.067444569   -3.1176419e-16  0              0.20233371     2182.8433      0              1.0540169e+11 -1.5            0              2.9964155    
    600000   6000           100            100            0.052321082   -2.3871617e-16  0              0.15696325     18.498834      0              8.9324249e+08 -1.5            0              2.9969925    
    700000   6000           100            100            0.029896825   -1.3707694e-16  0              0.089690474    41.095997      0              1.9843786e+09 -1.5            0              2.9979245    
    800000   6000           100            100            0.033308051   -1.5205116e-16  0              0.099924152    7.073011       0              3.4153039e+08 -1.5            0              2.9977747    
    900000   6000           100            100            0.033687099   -1.5401556e-16  0              0.1010613      0.68557088     0              33103764      -1.5            0              2.9977559    
   1000000   6000           100            100            0.033071261   -1.511362e-16   0              0.099213782    0.03373158     0              1628777.3     -1.5            0              2.9977839    
   1100000   6000           100            100            0.033409273   -1.526924e-16   0              0.10022782     0.00013263464  0              6404.4523     -1.5            0              2.9977687    
   1200000   6000           100            100            0.033275446   -1.5208171e-16  0              0.099826337    0.00024769919  0              11960.507     -1.5            0              2.9977747    
   1300000   6000           100            100            0.03331671    -1.5226831e-16  0              0.099950131    0.00012659196  0              6112.6726     -1.5            0              2.9977729    
   1400000   6000           100            100            0.033307663   -1.5222809e-16  0              0.099922988    2.553134e-05   0              1232.817      -1.5            0              2.9977733    
   1500000   6000           100            100            0.033308158   -1.522299e-16   0              0.099924474    3.0545413e-06  0              147.49287     -1.5            0              2.9977733    
   1600000   6000           100            100            0.033308978   -1.5223378e-16  0              0.099926933    2.1131771e-07  0              10.203776     -1.5            0              2.9977732    
   1700000   6000           100            100            0.033308405   -1.5223113e-16  0              0.099925214    4.7186585e-09  0              0.22784713    -1.5            0              2.9977732    
   1800000   6000           100            100            0.03330866    -1.522323e-16   0              0.099925979    2.1006051e-10  0              0.01014307    -1.5            0              2.9977732    
   1900000   6000           100            100            0.033308572   -1.522319e-16   0              0.099925717    3.0991908e-10  0              0.014964883   -1.5            0              2.9977732    
   2000000   6000           100            100            0.033308595   -1.5223201e-16  0              0.099925785    8.4090277e-11  0              0.0040604185  -1.5            0              2.9977732    
   2100000   6000           100            100            0.033308592   -1.5223199e-16  0              0.099925775    1.2412434e-11  0              0.00059935202 -1.5            0              2.9977732    
   2200000   6000           100            100            0.033308591   -1.5223199e-16  0              0.099925773    1.1094445e-12  0              5.3571104e-05 -1.5            0              2.9977732    
   2300000   6000           100            100            0.033308592   -1.5223199e-16  0              0.099925776    4.7270197e-14  0              2.2825087e-06 -1.5            0              2.9977732    
   2400000   6000           100            100            0.033308591   -1.5223199e-16  0              0.099925774    1.9010479e-17  0              9.1794798e-10 -1.5            0              2.9977732    
   2500000   6000           100            100            0.033308592   -1.5223199e-16  0              0.099925775    6.1422863e-16  0              2.9658902e-08 -1.5            0              2.9977732    
   2600000   6000           100            100            0.033308592   -1.5223199e-16  0              0.099925775    1.9621571e-16  0              9.4745545e-09 -1.5            0              2.9977732    
   2700000   6000           100            100            0.033308592   -1.5223199e-16  0              0.099925775    1.8132907e-17  0              8.7557316e-10 -1.5            0              2.9977732    
   2800000   6000           100            100            0.033308592   -1.5223199e-16  0              0.099925775    4.4156523e-18  0              2.1321605e-10 -1.5            0              2.9977732    
   2900000   6000           100            100            0.033308592   -1.5223199e-16  0              0.099925775    3.0556935e-18  0              1.475485e-10  -1.5            0              2.9977732    
   3000000   6000           100            100            0.033308592   -1.5223199e-16  0              0.099925775    1.3311331e-18  0              6.4275653e-11 -1.5            0              2.9977732    
Loop time of 485.209 on 4 procs for 3000000 steps with 4000 atoms

Performance: 5342023.010 ns/day, 0.000 hours/ns, 6182.897 timesteps/s
100.0% CPU use with 4 MPI tasks x 1 OpenMP threads

MPI task timing breakdown:
Section |  min time  |  avg time  |  max time  |%varavg| %total
---------------------------------------------------------------
Pair    | 205.66     | 210.83     | 215.78     |  31.3 | 43.45
Neigh   | 0.94305    | 0.95159    | 0.95767    |   0.6 |  0.20
Comm    | 24.326     | 29.327     | 35.009     |  91.6 |  6.04
Output  | 0.37667    | 0.3767     | 0.37677    |   0.0 |  0.08
Modify  | 213.86     | 217.28     | 221.27     |  23.1 | 44.78
Other   |            | 26.44      |            |       |  5.45

Nlocal:           1000 ave        1000 max        1000 min
Histogram: 4 0 0 0 0 0 0 0 0 0
Nghost:              6 ave           6 max           6 min
Histogram: 4 0 0 0 0 0 0 0 0 0
Neighs:           1500 ave        1500 max        1500 min
Histogram: 4 0 0 0 0 0 0 0 0 0

Total # of neighbors = 6000
Ave neighs/atom = 1.5
Neighbor list builds = 166
Dangerous builds = 0

undump D1


clear
  using 1 OpenMP thread(s) per MPI task

next num

jump SELF startloop

include granular.in
### Simulation of contact between two chain

##################### Simulation setup ####################

units micro                              # units
dimension	3                            # dimension
boundary	p p p                        # boundary condition p: periodic
atom_style	sphere                       # atom style
#processors * * 1

####################### Parameter ##################################

variable ind equal ${num}
variable ind equal 2

variable lat1 equal 3 #*(2^(1/2))
variable lat2 equal 3
variable d1 equal 3                      # Diamter of particle at bottom chain
variable d2 equal 3                      # Diamter of particle at upper chain

variable n2e1 equal 1000*v_lat1              # Half length of top chain. 1500 is number of particles
variable n1e1 equal v_n2e1*(v_lat1/v_lat2)              # Half length of bottom chain, which is 1.5 time larger than top chain
variable n1e2 equal -v_n1e1
variable n2e2 equal -v_n2e1
#variable x_shift equal -0.25*v_d1

variable den equal 2.2 #grams/cm^3      # micrometer^3=10^-12 cm^3 Density of materials

variable V1 equal (1/6)*PI*(v_d1^3)     # Volume of particle 1
variable V2 equal (1/6)*PI*(v_d2^3)     # Volume of particle 2

variable mass1 equal v_den*v_V1  # Mass of particle 1 (picograms)
variable mass2 equal v_den*v_V2  # Mass of particle 2 (picograms)

# E GPa to picogram/(micrometer-microsecond^2)= 10^3 Pa= 10^-6 GPa
# Force unit(picogram-micrometer/microsecond^2)=10^-9 N= 1nN
# Spring stiffness (force/distance) 10^-3 N/m


variable E equal (10+(5*v_ind))*(10^6)                    # Young's Modulus using for Hertz/material model
variable PR equal 0.3                          # Poisson's ratio using for Hertz/material model
variable Fn equal -1000                        # Force apply to each particles in top chain
variable dt equal 0.00001                      # Time step units microsecond
variable lgv equal 0.5                         #damping for langevin thermostat for slider



################### Creating the model #################################
lattice sc ${lat1}                                                               # Bottom chain type1
lattice sc 3                                                               
Lattice spacing in x,y,z = 3 3 3

region box block ${n1e2} ${n1e1} -50 50 -50 50 units box
region box block -3000 ${n1e1} -50 50 -50 50 units box
region box block -3000 3000 -50 50 -50 50 units box
region substrate block ${n1e2} ${n1e1} -0.1 0.1 0 0.1 units box
region substrate block -3000 ${n1e1} -0.1 0.1 0 0.1 units box
region substrate block -3000 3000 -0.1 0.1 0 0.1 units box

create_box 2 box
Created orthogonal box = (-3000 -50 -50) to (3000 50 50)
  4 by 1 by 1 MPI processor grid
create_atoms 1 region substrate
Created 2000 atoms
  using lattice units in orthogonal box = (-3000 -50 -50) to (3000 50 50)
  create_atoms CPU = 0.001 seconds

lattice sc ${lat2}                                                             # Top chain type2
lattice sc 3                                                             
Lattice spacing in x,y,z = 3 3 3

region slider1 block ${n2e2} ${n2e1} -0.1 0.1 5.9 6.1 units box
region slider1 block -3000 ${n2e1} -0.1 0.1 5.9 6.1 units box
region slider1 block -3000 3000 -0.1 0.1 5.9 6.1 units box

create_atoms 2 region slider1
Created 2000 atoms
  using lattice units in orthogonal box = (-3000 -50 -50) to (3000 50 50)
  create_atoms CPU = 0.001 seconds


set type 1 diameter ${d1}                    # Set mass and diameter for each particles type
set type 1 diameter 3                    
Setting atom values ...
  2000 settings made for diameter
set type 1 mass ${mass1}
set type 1 mass 31.101767270539
Setting atom values ...
  2000 settings made for mass
set type 2 diameter ${d2}                    # Set mass and diameter for each particles type
set type 2 diameter 3                    
Setting atom values ...
  2000 settings made for diameter
set type 2 mass ${mass2}
set type 2 mass 31.101767270539
Setting atom values ...
  2000 settings made for mass


group substrate region substrate           # Define gorup
2000 atoms in group substrate
group slider1 region slider1
2000 atoms in group slider1
#displace_atoms slider1 move ${x_shift} 0.0 0.0
#group substrate_slider union substrate slider1

########################## Potential ###################################
pair_style granular
pair_coeff 1 1 hertz/material 0.00000001 0.001 ${PR} tangential mindlin NULL 0.1 0.01 damping viscoelastic
pair_coeff 1 1 hertz/material 0.00000001 0.001 0.3 tangential mindlin NULL 0.1 0.01 damping viscoelastic
pair_coeff 2 2 hertz/material 0.00000001 0.001 ${PR} tangential mindlin NULL 0.1 0.01 damping viscoelastic
pair_coeff 2 2 hertz/material 0.00000001 0.001 0.3 tangential mindlin NULL 0.1 0.01 damping viscoelastic
pair_coeff 1 2 hertz/material ${E} 0.001 ${PR} tangential mindlin NULL 0.1 0.01 damping viscoelastic
pair_coeff 1 2 hertz/material 20000000 0.001 ${PR} tangential mindlin NULL 0.1 0.01 damping viscoelastic
pair_coeff 1 2 hertz/material 20000000 0.001 0.3 tangential mindlin NULL 0.1 0.01 damping viscoelastic

comm_modify     vel yes
neigh_modify    delay 0 every 1 check yes

### Compute properties ###

compute 1 slider1 com                      # Compute the center of mass of top chain

variable p0 equal "step"

variable slider_z equal "c_1[3]"          # output the position of top chain in z-direction


thermo 100000
thermo_style custom step lx ly lz press pxx pyy pzz ke pe temp c_1[1] c_1[2] c_1[3]

############### Fix ##################


############## Equilibrium the system with apply force ########################

fix force_slider1 slider1 setforce NULL 0 NULL                                # Fix top chain not to move in y-direction

fix f_sub substrate freeze                                                    # Freeze the bottom chain

#fix nve_slider1 slider1 nve                   # Integrate motion for slider1 group
#fix lan_slider slider1 langevin 0 0 ${lgv} 6987532
fix rigid_top slider1 rigid/nve group 1 slider1 langevin 0 0 ${lgv} 6987532   # NVE+langevin
fix rigid_top slider1 rigid/nve group 1 slider1 langevin 0 0 0.5 6987532   
  1 rigid bodies with 2000 atoms

fix add slider1 addforce 0 0 ${Fn} every 1                                    # Add force to top layer
fix add slider1 addforce 0 0 -1000 every 1                                    

timestep ${dt}
timestep 1e-05

dump 		D1 all custom 100000 Equi_${num}_*.dump id type diameter mass xu yu zu fx fy fz
dump 		D1 all custom 100000 Equi_2_*.dump id type diameter mass xu yu zu fx fy fz
dump_modify D1 format 5 %.12g
dump_modify D1 format 7 %.12g

run 3000000
Generated 0 of 1 mixed pair_coeff terms from geometric mixing rule
Neighbor list info ...
  update every 1 steps, delay 0 steps, check yes
  max neighbors/atom: 2000, page size: 100000
  master list distance cutoff = 3.1
  ghost atom cutoff = 3.1
  binsize = 1.55, bins = 3871 65 65
  1 neighbor lists, perpetual/occasional/extra = 1 0 0
  (1) pair granular, perpetual
      attributes: half, newton on, size, history
      pair build: half/size/bin/newton
      stencil: half/bin/3d
      bin: standard
Per MPI rank memory allocation (min/avg/max) = 30.97 | 30.97 | 30.97 Mbytes
   Step           Lx             Ly             Lz           Press           Pxx            Pyy            Pzz           KinEng         PotEng          Temp          c_1[1]         c_1[2]         c_1[3]    
         0   6000           100            100            0              0              0              0              0              0              0             -1.5            0              6            
    100000   6000           100            100            0.02720083     1.0373282e-20  0              0.081602491    1176443.7      0              5.6806255e+13 -1.5            0              3.3240154    
    200000   6000           100            100            0.010044968    2.9081539e-21  0              0.030134905    305954.05      0              1.4773426e+13 -1.5            0              3.0658562    
    300000   6000           100            100            0.0017492594   6.3135846e-22  0              0.0052477781   17111.588      0              8.2625734e+11 -1.5            0              3.0425408    
    400000   6000           100            100           -0.00044236909 -8.3327187e-22  0             -0.0013271073   1511.544       0              7.2987051e+10 -1.5            0              3.0090954    
    500000   6000           100            100            0.043049539   -1.9248653e-16  0              0.12914862     3795.0981      0              1.832517e+11  -1.5            0              2.997846     
    600000   6000           100            100            0.01831671    -8.2685857e-17  0              0.054950131    226.88104      0              1.0955273e+10 -1.5            0              2.9987748    
    700000   6000           100            100            0.030015502   -1.3754778e-16  0              0.090046506    52.625927      0              2.5411177e+09 -1.5            0              2.9982819    
    800000   6000           100            100            0.035639954   -1.62846e-16    0              0.10691986     2.1801059      0              1.0526951e+08 -1.5            0              2.9980765    
    900000   6000           100            100            0.033949012   -1.5497819e-16  0              0.10184704     0.58150715     0              28078899      -1.5            0              2.9981389    
   1000000   6000           100            100            0.033103501   -1.5115059e-16  0              0.099310504    0.0788737      0              3808528.7     -1.5            0              2.9981697    
   1100000   6000           100            100            0.03320563    -1.5163947e-16  0              0.099616891    0.0034651542   0              167319.89     -1.5            0              2.9981658    
   1200000   6000           100            100            0.03332515    -1.5218396e-16  0              0.099975449    0.0018512102   0              89388.313     -1.5            0              2.9981614    
   1300000   6000           100            100            0.033327997   -1.5219399e-16  0              0.099983992    3.1041291e-06  0              149.88729     -1.5            0              2.9981613    
   1400000   6000           100            100            0.033313348   -1.5212686e-16  0              0.099940043    3.1772017e-05  0              1534.157      -1.5            0              2.9981618    
   1500000   6000           100            100            0.033311071   -1.5211681e-16  0              0.099933214    2.6751611e-07  0              12.917396     -1.5            0              2.9981619    
   1600000   6000           100            100            0.033312613   -1.5212392e-16  0              0.09993784     4.1018328e-07  0              19.806283     -1.5            0              2.9981619    
   1700000   6000           100            100            0.033313102   -1.5212612e-16  0              0.099939305    2.2173283e-08  0              1.0706685     -1.5            0              2.9981618    
   1800000   6000           100            100            0.033312972   -1.5212551e-16  0              0.099938915    3.7160673e-09  0              0.17943559    -1.5            0              2.9981618    
   1900000   6000           100            100            0.033312893   -1.5212516e-16  0              0.09993868     7.1268705e-10  0              0.034413107   -1.5            0              2.9981618    
   2000000   6000           100            100            0.033312899   -1.5212519e-16  0              0.099938698    1.7308648e-11  0              0.00083577267 -1.5            0              2.9981618    
   2100000   6000           100            100            0.03331291    -1.5212524e-16  0              0.09993873     1.5204499e-11  0              0.00073417086 -1.5            0              2.9981618    
   2200000   6000           100            100            0.033312911   -1.5212524e-16  0              0.099938732    1.2499339e-16  0              6.0354836e-09 -1.5            0              2.9981618    
   2300000   6000           100            100            0.03331291    -1.5212523e-16  0              0.099938729    2.4184885e-13  0              1.1678016e-05 -1.5            0              2.9981618    
   2400000   6000           100            100            0.033312909   -1.5212523e-16  0              0.099938728    3.8663826e-15  0              1.8669378e-07 -1.5            0              2.9981618    
   2500000   6000           100            100            0.033312909   -1.5212523e-16  0              0.099938728    2.9222501e-15  0              1.41105e-07   -1.5            0              2.9981618    
   2600000   6000           100            100            0.033312909   -1.5212523e-16  0              0.099938728    2.3066251e-16  0              1.1137867e-08 -1.5            0              2.9981618    
   2700000   6000           100            100            0.033312909   -1.5212523e-16  0              0.099938728    5.8915521e-17  0              2.8448197e-09 -1.5            0              2.9981618    
   2800000   6000           100            100            0.033312909   -1.5212523e-16  0              0.099938728    2.6776274e-18  0              1.2929305e-10 -1.5            0              2.9981618    
   2900000   6000           100            100            0.033312909   -1.5212523e-16  0              0.099938728    1.1590977e-19  0              5.5968681e-12 -1.5            0              2.9981618    
   3000000   6000           100            100            0.033312909   -1.5212523e-16  0              0.099938728    7.9919157e-18  0              3.8590101e-10 -1.5            0              2.9981618    
Loop time of 460.095 on 4 procs for 3000000 steps with 4000 atoms

Performance: 5633621.671 ns/day, 0.000 hours/ns, 6520.395 timesteps/s
100.0% CPU use with 4 MPI tasks x 1 OpenMP threads

MPI task timing breakdown:
Section |  min time  |  avg time  |  max time  |%varavg| %total
---------------------------------------------------------------
Pair    | 199.67     | 202.68     | 206.36     |  21.1 | 44.05
Neigh   | 0.95273    | 0.95607    | 0.95935    |   0.3 |  0.21
Comm    | 24.851     | 27.92      | 30.908     |  45.5 |  6.07
Output  | 0.32691    | 0.32698    | 0.32711    |   0.0 |  0.07
Modify  | 202.5      | 203.8      | 205.27     |   7.8 | 44.29
Other   |            | 24.42      |            |       |  5.31

Nlocal:           1000 ave        1000 max        1000 min
Histogram: 4 0 0 0 0 0 0 0 0 0
Nghost:              6 ave           6 max           6 min
Histogram: 4 0 0 0 0 0 0 0 0 0
Neighs:           1500 ave        1500 max        1500 min
Histogram: 4 0 0 0 0 0 0 0 0 0

Total # of neighbors = 6000
Ave neighs/atom = 1.5
Neighbor list builds = 168
Dangerous builds = 0

undump D1


clear
  using 1 OpenMP thread(s) per MPI task

next num

jump SELF startloop

include granular.in
### Simulation of contact between two chain

##################### Simulation setup ####################

units micro                              # units
dimension	3                            # dimension
boundary	p p p                        # boundary condition p: periodic
atom_style	sphere                       # atom style
#processors * * 1

####################### Parameter ##################################

variable ind equal ${num}
variable ind equal 3

variable lat1 equal 3 #*(2^(1/2))
variable lat2 equal 3
variable d1 equal 3                      # Diamter of particle at bottom chain
variable d2 equal 3                      # Diamter of particle at upper chain

variable n2e1 equal 1000*v_lat1              # Half length of top chain. 1500 is number of particles
variable n1e1 equal v_n2e1*(v_lat1/v_lat2)              # Half length of bottom chain, which is 1.5 time larger than top chain
variable n1e2 equal -v_n1e1
variable n2e2 equal -v_n2e1
#variable x_shift equal -0.25*v_d1

variable den equal 2.2 #grams/cm^3      # micrometer^3=10^-12 cm^3 Density of materials

variable V1 equal (1/6)*PI*(v_d1^3)     # Volume of particle 1
variable V2 equal (1/6)*PI*(v_d2^3)     # Volume of particle 2

variable mass1 equal v_den*v_V1  # Mass of particle 1 (picograms)
variable mass2 equal v_den*v_V2  # Mass of particle 2 (picograms)

# E GPa to picogram/(micrometer-microsecond^2)= 10^3 Pa= 10^-6 GPa
# Force unit(picogram-micrometer/microsecond^2)=10^-9 N= 1nN
# Spring stiffness (force/distance) 10^-3 N/m


variable E equal (10+(5*v_ind))*(10^6)                    # Young's Modulus using for Hertz/material model
variable PR equal 0.3                          # Poisson's ratio using for Hertz/material model
variable Fn equal -1000                        # Force apply to each particles in top chain
variable dt equal 0.00001                      # Time step units microsecond
variable lgv equal 0.5                         #damping for langevin thermostat for slider



################### Creating the model #################################
lattice sc ${lat1}                                                               # Bottom chain type1
lattice sc 3                                                               
Lattice spacing in x,y,z = 3 3 3

region box block ${n1e2} ${n1e1} -50 50 -50 50 units box
region box block -3000 ${n1e1} -50 50 -50 50 units box
region box block -3000 3000 -50 50 -50 50 units box
region substrate block ${n1e2} ${n1e1} -0.1 0.1 0 0.1 units box
region substrate block -3000 ${n1e1} -0.1 0.1 0 0.1 units box
region substrate block -3000 3000 -0.1 0.1 0 0.1 units box

create_box 2 box
Created orthogonal box = (-3000 -50 -50) to (3000 50 50)
  4 by 1 by 1 MPI processor grid
create_atoms 1 region substrate
Created 2000 atoms
  using lattice units in orthogonal box = (-3000 -50 -50) to (3000 50 50)
  create_atoms CPU = 0.001 seconds

lattice sc ${lat2}                                                             # Top chain type2
lattice sc 3                                                             
Lattice spacing in x,y,z = 3 3 3

region slider1 block ${n2e2} ${n2e1} -0.1 0.1 5.9 6.1 units box
region slider1 block -3000 ${n2e1} -0.1 0.1 5.9 6.1 units box
region slider1 block -3000 3000 -0.1 0.1 5.9 6.1 units box

create_atoms 2 region slider1
Created 2000 atoms
  using lattice units in orthogonal box = (-3000 -50 -50) to (3000 50 50)
  create_atoms CPU = 0.001 seconds


set type 1 diameter ${d1}                    # Set mass and diameter for each particles type
set type 1 diameter 3                    
Setting atom values ...
  2000 settings made for diameter
set type 1 mass ${mass1}
set type 1 mass 31.101767270539
Setting atom values ...
  2000 settings made for mass
set type 2 diameter ${d2}                    # Set mass and diameter for each particles type
set type 2 diameter 3                    
Setting atom values ...
  2000 settings made for diameter
set type 2 mass ${mass2}
set type 2 mass 31.101767270539
Setting atom values ...
  2000 settings made for mass


group substrate region substrate           # Define gorup
2000 atoms in group substrate
group slider1 region slider1
2000 atoms in group slider1
#displace_atoms slider1 move ${x_shift} 0.0 0.0
#group substrate_slider union substrate slider1

########################## Potential ###################################
pair_style granular
pair_coeff 1 1 hertz/material 0.00000001 0.001 ${PR} tangential mindlin NULL 0.1 0.01 damping viscoelastic
pair_coeff 1 1 hertz/material 0.00000001 0.001 0.3 tangential mindlin NULL 0.1 0.01 damping viscoelastic
pair_coeff 2 2 hertz/material 0.00000001 0.001 ${PR} tangential mindlin NULL 0.1 0.01 damping viscoelastic
pair_coeff 2 2 hertz/material 0.00000001 0.001 0.3 tangential mindlin NULL 0.1 0.01 damping viscoelastic
pair_coeff 1 2 hertz/material ${E} 0.001 ${PR} tangential mindlin NULL 0.1 0.01 damping viscoelastic
pair_coeff 1 2 hertz/material 25000000 0.001 ${PR} tangential mindlin NULL 0.1 0.01 damping viscoelastic
pair_coeff 1 2 hertz/material 25000000 0.001 0.3 tangential mindlin NULL 0.1 0.01 damping viscoelastic

comm_modify     vel yes
neigh_modify    delay 0 every 1 check yes

### Compute properties ###

compute 1 slider1 com                      # Compute the center of mass of top chain

variable p0 equal "step"

variable slider_z equal "c_1[3]"          # output the position of top chain in z-direction


thermo 100000
thermo_style custom step lx ly lz press pxx pyy pzz ke pe temp c_1[1] c_1[2] c_1[3]

############### Fix ##################


############## Equilibrium the system with apply force ########################

fix force_slider1 slider1 setforce NULL 0 NULL                                # Fix top chain not to move in y-direction

fix f_sub substrate freeze                                                    # Freeze the bottom chain

#fix nve_slider1 slider1 nve                   # Integrate motion for slider1 group
#fix lan_slider slider1 langevin 0 0 ${lgv} 6987532
fix rigid_top slider1 rigid/nve group 1 slider1 langevin 0 0 ${lgv} 6987532   # NVE+langevin
fix rigid_top slider1 rigid/nve group 1 slider1 langevin 0 0 0.5 6987532   
  1 rigid bodies with 2000 atoms

fix add slider1 addforce 0 0 ${Fn} every 1                                    # Add force to top layer
fix add slider1 addforce 0 0 -1000 every 1                                    

timestep ${dt}
timestep 1e-05

dump 		D1 all custom 100000 Equi_${num}_*.dump id type diameter mass xu yu zu fx fy fz
dump 		D1 all custom 100000 Equi_3_*.dump id type diameter mass xu yu zu fx fy fz
dump_modify D1 format 5 %.12g
dump_modify D1 format 7 %.12g

run 3000000
Generated 0 of 1 mixed pair_coeff terms from geometric mixing rule
Neighbor list info ...
  update every 1 steps, delay 0 steps, check yes
  max neighbors/atom: 2000, page size: 100000
  master list distance cutoff = 3.1
  ghost atom cutoff = 3.1
  binsize = 1.55, bins = 3871 65 65
  1 neighbor lists, perpetual/occasional/extra = 1 0 0
  (1) pair granular, perpetual
      attributes: half, newton on, size, history
      pair build: half/size/bin/newton
      stencil: half/bin/3d
      bin: standard
Per MPI rank memory allocation (min/avg/max) = 30.97 | 30.97 | 30.97 Mbytes
   Step           Lx             Ly             Lz           Press           Pxx            Pyy            Pzz           KinEng         PotEng          Temp          c_1[1]         c_1[2]         c_1[3]    
         0   6000           100            100            0              0              0              0              0              0              0             -1.5            0              6            
    100000   6000           100            100            0.027288853    1.0699149e-20  0              0.08186656     1182100.9      0              5.7079423e+13 -1.5            0              3.3219574    
    200000   6000           100            100            0.010223453    2.975235e-21   0              0.030670359    314443.05      0              1.518333e+13  -1.5            0              3.0624843    
    300000   6000           100            100            0.0020179813   4.003298e-22   0              0.0060539439   22126.364      0              1.0684029e+12 -1.5            0              3.0410077    
    400000   6000           100            100            5.1774734e-05 -8.319136e-22   0              0.0001553242   19.59427       0              9.461372e+08  -1.5            0              3.0104659    
    500000   6000           100            100           -0.00051995824 -2.6861645e-21  0             -0.0015598747   2132.8115      0              1.0298583e+11 -1.5            0              3.0000373    
    600000   6000           100            100            0.016176678   -7.2906015e-17  0              0.048530034    233.25366      0              1.1262984e+10 -1.5            0              2.9990291    
    700000   6000           100            100            0.03189674    -1.4621229e-16  0              0.09569022     69.463804      0              3.3541585e+09 -1.5            0              2.998458     
    800000   6000           100            100            0.036375785   -1.6614413e-16  0              0.10912736     0.24962487     0              12053492      -1.5            0              2.9983201    
    900000   6000           100            100            0.033622401   -1.5347352e-16  0              0.1008672      1.0522845      0              50811051      -1.5            0              2.9984066    
   1000000   6000           100            100            0.032960275   -1.5050922e-16  0              0.098880825    0.022545963    0              1088663.9     -1.5            0              2.9984273    
   1100000   6000           100            100            0.033244583   -1.518248e-16   0              0.099733749    0.013431544    0              648561.17     -1.5            0              2.9984181    
   1200000   6000           100            100            0.033354253   -1.523197e-16   0              0.10006276     0.00086816093  0              41920.384     -1.5            0              2.9984147    
   1300000   6000           100            100            0.033328198   -1.52198e-16    0              0.099984595    0.00014352058  0              6930.095      -1.5            0              2.9984155    
   1400000   6000           100            100            0.033311994   -1.521245e-16   0              0.099935982    2.3082969e-05  0              1114.594      -1.5            0              2.998416     
   1500000   6000           100            100            0.03331382    -1.5213323e-16  0              0.09994146     1.1638289e-06  0              56.197132     -1.5            0              2.998416     
   1600000   6000           100            100            0.033316032   -1.521433e-16   0              0.099948096    4.9623368e-07  0              23.961348     -1.5            0              2.9984159    
   1700000   6000           100            100            0.033316001   -1.5214311e-16  0              0.099948004    5.2679691e-09  0              0.25437138    -1.5            0              2.9984159    
   1800000   6000           100            100            0.033315719   -1.5214182e-16  0              0.099947157    9.1287142e-09  0              0.44079294    -1.5            0              2.9984159    
   1900000   6000           100            100            0.033315697   -1.5214173e-16  0              0.099947092    2.7986167e-13  0              1.3513519e-05 -1.5            0              2.9984159    
   2000000   6000           100            100            0.033315731   -1.5214188e-16  0              0.099947193    1.4681721e-10  0              0.0070892776  -1.5            0              2.9984159    
   2100000   6000           100            100            0.033315737   -1.5214191e-16  0              0.099947211    1.0589081e-12  0              5.1130881e-05 -1.5            0              2.9984159    
   2200000   6000           100            100            0.033315733   -1.5214189e-16  0              0.099947199    2.0669935e-12  0              9.9807719e-05 -1.5            0              2.9984159    
   2300000   6000           100            100            0.033315732   -1.5214189e-16  0              0.099947196    6.8071522e-14  0              3.2869302e-06 -1.5            0              2.9984159    
   2400000   6000           100            100            0.033315732   -1.5214189e-16  0              0.099947197    2.5178654e-14  0              1.2157871e-06 -1.5            0              2.9984159    
   2500000   6000           100            100            0.033315733   -1.5214189e-16  0              0.099947198    2.2243556e-15  0              1.0740617e-07 -1.5            0              2.9984159    
   2600000   6000           100            100            0.033315733   -1.5214189e-16  0              0.099947198    3.3603353e-16  0              1.6225857e-08 -1.5            0              2.9984159    
   2700000   6000           100            100            0.033315733   -1.5214189e-16  0              0.099947198    3.3004968e-17  0              1.5936918e-09 -1.5            0              2.9984159    
   2800000   6000           100            100            0.033315733   -1.5214189e-16  0              0.099947198    5.353022e-18   0              2.5847827e-10 -1.5            0              2.9984159    
   2900000   6000           100            100            0.033315733   -1.5214189e-16  0              0.099947198    1.4884757e-18  0              7.1873165e-11 -1.5            0              2.9984159    
   3000000   6000           100            100            0.033315733   -1.5214189e-16  0              0.099947198    6.4672696e-18  0              3.1228131e-10 -1.5            0              2.9984159    
Loop time of 457.145 on 4 procs for 3000000 steps with 4000 atoms

Performance: 5669970.070 ns/day, 0.000 hours/ns, 6562.465 timesteps/s
100.0% CPU use with 4 MPI tasks x 1 OpenMP threads

MPI task timing breakdown:
Section |  min time  |  avg time  |  max time  |%varavg| %total
---------------------------------------------------------------
Pair    | 200.24     | 201.56     | 202.81     |   7.8 | 44.09
Neigh   | 0.93749    | 0.94073    | 0.94432    |   0.3 |  0.21
Comm    | 25.895     | 26.603     | 27.603     |  14.1 |  5.82
Output  | 0.32959    | 0.32965    | 0.32975    |   0.0 |  0.07
Modify  | 202.12     | 203.3      | 204.11     |   5.1 | 44.47
Other   |            | 24.41      |            |       |  5.34

Nlocal:           1000 ave        1000 max        1000 min
Histogram: 4 0 0 0 0 0 0 0 0 0
Nghost:              6 ave           6 max           6 min
Histogram: 4 0 0 0 0 0 0 0 0 0
Neighs:           1500 ave        1500 max        1500 min
Histogram: 4 0 0 0 0 0 0 0 0 0

Total # of neighbors = 6000
Ave neighs/atom = 1.5
Neighbor list builds = 168
Dangerous builds = 0

undump D1


clear
  using 1 OpenMP thread(s) per MPI task

next num

jump SELF startloop

include granular.in
### Simulation of contact between two chain

##################### Simulation setup ####################

units micro                              # units
dimension	3                            # dimension
boundary	p p p                        # boundary condition p: periodic
atom_style	sphere                       # atom style
#processors * * 1

####################### Parameter ##################################

variable ind equal ${num}
variable ind equal 4

variable lat1 equal 3 #*(2^(1/2))
variable lat2 equal 3
variable d1 equal 3                      # Diamter of particle at bottom chain
variable d2 equal 3                      # Diamter of particle at upper chain

variable n2e1 equal 1000*v_lat1              # Half length of top chain. 1500 is number of particles
variable n1e1 equal v_n2e1*(v_lat1/v_lat2)              # Half length of bottom chain, which is 1.5 time larger than top chain
variable n1e2 equal -v_n1e1
variable n2e2 equal -v_n2e1
#variable x_shift equal -0.25*v_d1

variable den equal 2.2 #grams/cm^3      # micrometer^3=10^-12 cm^3 Density of materials

variable V1 equal (1/6)*PI*(v_d1^3)     # Volume of particle 1
variable V2 equal (1/6)*PI*(v_d2^3)     # Volume of particle 2

variable mass1 equal v_den*v_V1  # Mass of particle 1 (picograms)
variable mass2 equal v_den*v_V2  # Mass of particle 2 (picograms)

# E GPa to picogram/(micrometer-microsecond^2)= 10^3 Pa= 10^-6 GPa
# Force unit(picogram-micrometer/microsecond^2)=10^-9 N= 1nN
# Spring stiffness (force/distance) 10^-3 N/m


variable E equal (10+(5*v_ind))*(10^6)                    # Young's Modulus using for Hertz/material model
variable PR equal 0.3                          # Poisson's ratio using for Hertz/material model
variable Fn equal -1000                        # Force apply to each particles in top chain
variable dt equal 0.00001                      # Time step units microsecond
variable lgv equal 0.5                         #damping for langevin thermostat for slider



################### Creating the model #################################
lattice sc ${lat1}                                                               # Bottom chain type1
lattice sc 3                                                               
Lattice spacing in x,y,z = 3 3 3

region box block ${n1e2} ${n1e1} -50 50 -50 50 units box
region box block -3000 ${n1e1} -50 50 -50 50 units box
region box block -3000 3000 -50 50 -50 50 units box
region substrate block ${n1e2} ${n1e1} -0.1 0.1 0 0.1 units box
region substrate block -3000 ${n1e1} -0.1 0.1 0 0.1 units box
region substrate block -3000 3000 -0.1 0.1 0 0.1 units box

create_box 2 box
Created orthogonal box = (-3000 -50 -50) to (3000 50 50)
  4 by 1 by 1 MPI processor grid
create_atoms 1 region substrate
Created 2000 atoms
  using lattice units in orthogonal box = (-3000 -50 -50) to (3000 50 50)
  create_atoms CPU = 0.001 seconds

lattice sc ${lat2}                                                             # Top chain type2
lattice sc 3                                                             
Lattice spacing in x,y,z = 3 3 3

region slider1 block ${n2e2} ${n2e1} -0.1 0.1 5.9 6.1 units box
region slider1 block -3000 ${n2e1} -0.1 0.1 5.9 6.1 units box
region slider1 block -3000 3000 -0.1 0.1 5.9 6.1 units box

create_atoms 2 region slider1
Created 2000 atoms
  using lattice units in orthogonal box = (-3000 -50 -50) to (3000 50 50)
  create_atoms CPU = 0.001 seconds


set type 1 diameter ${d1}                    # Set mass and diameter for each particles type
set type 1 diameter 3                    
Setting atom values ...
  2000 settings made for diameter
set type 1 mass ${mass1}
set type 1 mass 31.101767270539
Setting atom values ...
  2000 settings made for mass
set type 2 diameter ${d2}                    # Set mass and diameter for each particles type
set type 2 diameter 3                    
Setting atom values ...
  2000 settings made for diameter
set type 2 mass ${mass2}
set type 2 mass 31.101767270539
Setting atom values ...
  2000 settings made for mass


group substrate region substrate           # Define gorup
2000 atoms in group substrate
group slider1 region slider1
2000 atoms in group slider1
#displace_atoms slider1 move ${x_shift} 0.0 0.0
#group substrate_slider union substrate slider1

########################## Potential ###################################
pair_style granular
pair_coeff 1 1 hertz/material 0.00000001 0.001 ${PR} tangential mindlin NULL 0.1 0.01 damping viscoelastic
pair_coeff 1 1 hertz/material 0.00000001 0.001 0.3 tangential mindlin NULL 0.1 0.01 damping viscoelastic
pair_coeff 2 2 hertz/material 0.00000001 0.001 ${PR} tangential mindlin NULL 0.1 0.01 damping viscoelastic
pair_coeff 2 2 hertz/material 0.00000001 0.001 0.3 tangential mindlin NULL 0.1 0.01 damping viscoelastic
pair_coeff 1 2 hertz/material ${E} 0.001 ${PR} tangential mindlin NULL 0.1 0.01 damping viscoelastic
pair_coeff 1 2 hertz/material 30000000 0.001 ${PR} tangential mindlin NULL 0.1 0.01 damping viscoelastic
pair_coeff 1 2 hertz/material 30000000 0.001 0.3 tangential mindlin NULL 0.1 0.01 damping viscoelastic

comm_modify     vel yes
neigh_modify    delay 0 every 1 check yes

### Compute properties ###

compute 1 slider1 com                      # Compute the center of mass of top chain

variable p0 equal "step"

variable slider_z equal "c_1[3]"          # output the position of top chain in z-direction


thermo 100000
thermo_style custom step lx ly lz press pxx pyy pzz ke pe temp c_1[1] c_1[2] c_1[3]

############### Fix ##################


############## Equilibrium the system with apply force ########################

fix force_slider1 slider1 setforce NULL 0 NULL                                # Fix top chain not to move in y-direction

fix f_sub substrate freeze                                                    # Freeze the bottom chain

#fix nve_slider1 slider1 nve                   # Integrate motion for slider1 group
#fix lan_slider slider1 langevin 0 0 ${lgv} 6987532
fix rigid_top slider1 rigid/nve group 1 slider1 langevin 0 0 ${lgv} 6987532   # NVE+langevin
fix rigid_top slider1 rigid/nve group 1 slider1 langevin 0 0 0.5 6987532   
  1 rigid bodies with 2000 atoms

fix add slider1 addforce 0 0 ${Fn} every 1                                    # Add force to top layer
fix add slider1 addforce 0 0 -1000 every 1                                    

timestep ${dt}
timestep 1e-05

dump 		D1 all custom 100000 Equi_${num}_*.dump id type diameter mass xu yu zu fx fy fz
dump 		D1 all custom 100000 Equi_4_*.dump id type diameter mass xu yu zu fx fy fz
dump_modify D1 format 5 %.12g
dump_modify D1 format 7 %.12g

run 3000000
Generated 0 of 1 mixed pair_coeff terms from geometric mixing rule
Neighbor list info ...
  update every 1 steps, delay 0 steps, check yes
  max neighbors/atom: 2000, page size: 100000
  master list distance cutoff = 3.1
  ghost atom cutoff = 3.1
  binsize = 1.55, bins = 3871 65 65
  1 neighbor lists, perpetual/occasional/extra = 1 0 0
  (1) pair granular, perpetual
      attributes: half, newton on, size, history
      pair build: half/size/bin/newton
      stencil: half/bin/3d
      bin: standard
Per MPI rank memory allocation (min/avg/max) = 30.97 | 30.97 | 30.97 Mbytes
   Step           Lx             Ly             Lz           Press           Pxx            Pyy            Pzz           KinEng         PotEng          Temp          c_1[1]         c_1[2]         c_1[3]    
         0   6000           100            100            0              0              0              0              0              0              0             -1.5            0              6            
    100000   6000           100            100            0.027355127    1.0666979e-20  0              0.08206538     1186370.9      0              5.7285603e+13 -1.5            0              3.3203848    
    200000   6000           100            100            0.010358851    3.0659421e-21  0              0.031076554    320932.79      0              1.5496696e+13 -1.5            0              3.0598679    
    300000   6000           100            100            0.0022244566   1.0332708e-21  0              0.0066733697   26320.943      0              1.2709441e+12 -1.5            0              3.0396196    
    400000   6000           100            100            0.00044211338 -7.60231e-22    0              0.0013263402   1317.0293      0              6.3594629e+10 -1.5            0              3.0102881    
    500000   6000           100            100            0.00050261658 -2.2889205e-21  0              0.0015078497   1697.0287      0              8.1943445e+10 -1.5            0              3.0005116    
    600000   6000           100            100            0.039646523   -1.8264956e-16  0              0.11893957     570.18859      0              2.7532366e+10 -1.5            0              2.9984172    
    700000   6000           100            100            0.024523275   -1.1184693e-16  0              0.073569826    7.213488       0              3.4831352e+08 -1.5            0              2.9988575    
    800000   6000           100            100            0.036633337   -1.6737164e-16  0              0.10990001     0.68826483     0              33233845      -1.5            0              2.9985053    
    900000   6000           100            100            0.032170309   -1.4691757e-16  0              0.096510928    0.11884645     0              5738669.6     -1.5            0              2.9986298    
   1000000   6000           100            100            0.033718791   -1.5401984e-16  0              0.10115637     0.021636297    0              1044739.3     -1.5            0              2.9985859    
   1100000   6000           100            100            0.033179197   -1.5154238e-16  0              0.099537591    0.0036876241   0              178062.17     -1.5            0              2.9986011    
   1200000   6000           100            100            0.03336545    -1.5239842e-16  0              0.10009635     0.00060328626  0              29130.534     -1.5            0              2.9985959    
   1300000   6000           100            100            0.033301426   -1.5210384e-16  0              0.099904277    9.5044288e-05  0              4589.3485     -1.5            0              2.9985977    
   1400000   6000           100            100            0.033323298   -1.5220461e-16  0              0.099969894    1.4552927e-05  0              702.70878     -1.5            0              2.9985971    
   1500000   6000           100            100            0.033315872   -1.5217035e-16  0              0.099947615    2.1749243e-06  0              105.01931     -1.5            0              2.9985973    
   1600000   6000           100            100            0.033318376   -1.5218192e-16  0              0.099955127    3.1849758e-07  0              15.379108     -1.5            0              2.9985972    
   1700000   6000           100            100            0.033317538   -1.5217804e-16  0              0.099952614    4.582395e-08   0              2.2126745     -1.5            0              2.9985972    
   1800000   6000           100            100            0.033317816   -1.5217933e-16  0              0.099953447    6.4913954e-09  0              0.31344625    -1.5            0              2.9985972    
   1900000   6000           100            100            0.033317725   -1.521789e-16   0              0.099953174    9.0686685e-10  0              0.043789355   -1.5            0              2.9985972    
   2000000   6000           100            100            0.033317754   -1.5217904e-16  0              0.099953263    1.2510076e-10  0              0.0060406679  -1.5            0              2.9985972    
   2100000   6000           100            100            0.033317745   -1.52179e-16    0              0.099953234    1.7063119e-11  0              0.00082391693 -1.5            0              2.9985972    
   2200000   6000           100            100            0.033317748   -1.5217901e-16  0              0.099953243    2.3032148e-12  0              0.000111214   -1.5            0              2.9985972    
   2300000   6000           100            100            0.033317747   -1.5217901e-16  0              0.09995324     3.0755147e-13  0              1.485056e-05  -1.5            0              2.9985972    
   2400000   6000           100            100            0.033317747   -1.5217901e-16  0              0.099953241    4.092999e-14   0              1.9763627e-06 -1.5            0              2.9985972    
   2500000   6000           100            100            0.033317747   -1.5217901e-16  0              0.099953241    5.3971418e-15  0              2.6060866e-07 -1.5            0              2.9985972    
   2600000   6000           100            100            0.033317747   -1.5217901e-16  0              0.099953241    6.9645255e-16  0              3.3629201e-08 -1.5            0              2.9985972    
   2700000   6000           100            100            0.033317747   -1.5217901e-16  0              0.099953241    3.3438341e-18  0              1.6146178e-10 -1.5            0              2.9985972    
   2800000   6000           100            100            0.033317747   -1.5217901e-16  0              0.099953241    1.4693287e-19  0              7.0948623e-12 -1.5            0              2.9985972    
   2900000   6000           100            100            0.033317747   -1.5217901e-16  0              0.099953241    8.3182341e-18  0              4.0165775e-10 -1.5            0              2.9985972    
   3000000   6000           100            100            0.033317747   -1.5217901e-16  0              0.099953241    9.3532823e-18  0              4.5163653e-10 -1.5            0              2.9985972    
Loop time of 458.85 on 4 procs for 3000000 steps with 4000 atoms

Performance: 5648910.541 ns/day, 0.000 hours/ns, 6538.091 timesteps/s
100.0% CPU use with 4 MPI tasks x 1 OpenMP threads

MPI task timing breakdown:
Section |  min time  |  avg time  |  max time  |%varavg| %total
---------------------------------------------------------------
Pair    | 197.93     | 200.16     | 203.41     |  14.3 | 43.62
Neigh   | 0.95431    | 0.95685    | 0.95922    |   0.2 |  0.21
Comm    | 25.272     | 27.204     | 28.669     |  23.9 |  5.93
Output  | 0.32833    | 0.32838    | 0.32847    |   0.0 |  0.07
Modify  | 202.93     | 205.42     | 206.69     |  10.5 | 44.77
Other   |            | 24.79      |            |       |  5.40

Nlocal:           1000 ave        1000 max        1000 min
Histogram: 4 0 0 0 0 0 0 0 0 0
Nghost:              6 ave           6 max           6 min
Histogram: 4 0 0 0 0 0 0 0 0 0
Neighs:           1500 ave        1500 max        1500 min
Histogram: 4 0 0 0 0 0 0 0 0 0

Total # of neighbors = 6000
Ave neighs/atom = 1.5
Neighbor list builds = 168
Dangerous builds = 0

undump D1


clear
  using 1 OpenMP thread(s) per MPI task

next num

jump SELF startloop

include granular.in
### Simulation of contact between two chain

##################### Simulation setup ####################

units micro                              # units
dimension	3                            # dimension
boundary	p p p                        # boundary condition p: periodic
atom_style	sphere                       # atom style
#processors * * 1

####################### Parameter ##################################

variable ind equal ${num}
variable ind equal 5

variable lat1 equal 3 #*(2^(1/2))
variable lat2 equal 3
variable d1 equal 3                      # Diamter of particle at bottom chain
variable d2 equal 3                      # Diamter of particle at upper chain

variable n2e1 equal 1000*v_lat1              # Half length of top chain. 1500 is number of particles
variable n1e1 equal v_n2e1*(v_lat1/v_lat2)              # Half length of bottom chain, which is 1.5 time larger than top chain
variable n1e2 equal -v_n1e1
variable n2e2 equal -v_n2e1
#variable x_shift equal -0.25*v_d1

variable den equal 2.2 #grams/cm^3      # micrometer^3=10^-12 cm^3 Density of materials

variable V1 equal (1/6)*PI*(v_d1^3)     # Volume of particle 1
variable V2 equal (1/6)*PI*(v_d2^3)     # Volume of particle 2

variable mass1 equal v_den*v_V1  # Mass of particle 1 (picograms)
variable mass2 equal v_den*v_V2  # Mass of particle 2 (picograms)

# E GPa to picogram/(micrometer-microsecond^2)= 10^3 Pa= 10^-6 GPa
# Force unit(picogram-micrometer/microsecond^2)=10^-9 N= 1nN
# Spring stiffness (force/distance) 10^-3 N/m


variable E equal (10+(5*v_ind))*(10^6)                    # Young's Modulus using for Hertz/material model
variable PR equal 0.3                          # Poisson's ratio using for Hertz/material model
variable Fn equal -1000                        # Force apply to each particles in top chain
variable dt equal 0.00001                      # Time step units microsecond
variable lgv equal 0.5                         #damping for langevin thermostat for slider



################### Creating the model #################################
lattice sc ${lat1}                                                               # Bottom chain type1
lattice sc 3                                                               
Lattice spacing in x,y,z = 3 3 3

region box block ${n1e2} ${n1e1} -50 50 -50 50 units box
region box block -3000 ${n1e1} -50 50 -50 50 units box
region box block -3000 3000 -50 50 -50 50 units box
region substrate block ${n1e2} ${n1e1} -0.1 0.1 0 0.1 units box
region substrate block -3000 ${n1e1} -0.1 0.1 0 0.1 units box
region substrate block -3000 3000 -0.1 0.1 0 0.1 units box

create_box 2 box
Created orthogonal box = (-3000 -50 -50) to (3000 50 50)
  4 by 1 by 1 MPI processor grid
create_atoms 1 region substrate
Created 2000 atoms
  using lattice units in orthogonal box = (-3000 -50 -50) to (3000 50 50)
  create_atoms CPU = 0.001 seconds

lattice sc ${lat2}                                                             # Top chain type2
lattice sc 3                                                             
Lattice spacing in x,y,z = 3 3 3

region slider1 block ${n2e2} ${n2e1} -0.1 0.1 5.9 6.1 units box
region slider1 block -3000 ${n2e1} -0.1 0.1 5.9 6.1 units box
region slider1 block -3000 3000 -0.1 0.1 5.9 6.1 units box

create_atoms 2 region slider1
Created 2000 atoms
  using lattice units in orthogonal box = (-3000 -50 -50) to (3000 50 50)
  create_atoms CPU = 0.001 seconds


set type 1 diameter ${d1}                    # Set mass and diameter for each particles type
set type 1 diameter 3                    
Setting atom values ...
  2000 settings made for diameter
set type 1 mass ${mass1}
set type 1 mass 31.101767270539
Setting atom values ...
  2000 settings made for mass
set type 2 diameter ${d2}                    # Set mass and diameter for each particles type
set type 2 diameter 3                    
Setting atom values ...
  2000 settings made for diameter
set type 2 mass ${mass2}
set type 2 mass 31.101767270539
Setting atom values ...
  2000 settings made for mass


group substrate region substrate           # Define gorup
2000 atoms in group substrate
group slider1 region slider1
2000 atoms in group slider1
#displace_atoms slider1 move ${x_shift} 0.0 0.0
#group substrate_slider union substrate slider1

########################## Potential ###################################
pair_style granular
pair_coeff 1 1 hertz/material 0.00000001 0.001 ${PR} tangential mindlin NULL 0.1 0.01 damping viscoelastic
pair_coeff 1 1 hertz/material 0.00000001 0.001 0.3 tangential mindlin NULL 0.1 0.01 damping viscoelastic
pair_coeff 2 2 hertz/material 0.00000001 0.001 ${PR} tangential mindlin NULL 0.1 0.01 damping viscoelastic
pair_coeff 2 2 hertz/material 0.00000001 0.001 0.3 tangential mindlin NULL 0.1 0.01 damping viscoelastic
pair_coeff 1 2 hertz/material ${E} 0.001 ${PR} tangential mindlin NULL 0.1 0.01 damping viscoelastic
pair_coeff 1 2 hertz/material 35000000 0.001 ${PR} tangential mindlin NULL 0.1 0.01 damping viscoelastic
pair_coeff 1 2 hertz/material 35000000 0.001 0.3 tangential mindlin NULL 0.1 0.01 damping viscoelastic

comm_modify     vel yes
neigh_modify    delay 0 every 1 check yes

### Compute properties ###

compute 1 slider1 com                      # Compute the center of mass of top chain

variable p0 equal "step"

variable slider_z equal "c_1[3]"          # output the position of top chain in z-direction


thermo 100000
thermo_style custom step lx ly lz press pxx pyy pzz ke pe temp c_1[1] c_1[2] c_1[3]

############### Fix ##################


############## Equilibrium the system with apply force ########################

fix force_slider1 slider1 setforce NULL 0 NULL                                # Fix top chain not to move in y-direction

fix f_sub substrate freeze                                                    # Freeze the bottom chain

#fix nve_slider1 slider1 nve                   # Integrate motion for slider1 group
#fix lan_slider slider1 langevin 0 0 ${lgv} 6987532
fix rigid_top slider1 rigid/nve group 1 slider1 langevin 0 0 ${lgv} 6987532   # NVE+langevin
fix rigid_top slider1 rigid/nve group 1 slider1 langevin 0 0 0.5 6987532   
  1 rigid bodies with 2000 atoms

fix add slider1 addforce 0 0 ${Fn} every 1                                    # Add force to top layer
fix add slider1 addforce 0 0 -1000 every 1                                    

timestep ${dt}
timestep 1e-05

dump 		D1 all custom 100000 Equi_${num}_*.dump id type diameter mass xu yu zu fx fy fz
dump 		D1 all custom 100000 Equi_5_*.dump id type diameter mass xu yu zu fx fy fz
dump_modify D1 format 5 %.12g
dump_modify D1 format 7 %.12g

run 3000000
Generated 0 of 1 mixed pair_coeff terms from geometric mixing rule
Neighbor list info ...
  update every 1 steps, delay 0 steps, check yes
  max neighbors/atom: 2000, page size: 100000
  master list distance cutoff = 3.1
  ghost atom cutoff = 3.1
  binsize = 1.55, bins = 3871 65 65
  1 neighbor lists, perpetual/occasional/extra = 1 0 0
  (1) pair granular, perpetual
      attributes: half, newton on, size, history
      pair build: half/size/bin/newton
      stencil: half/bin/3d
      bin: standard
Per MPI rank memory allocation (min/avg/max) = 30.97 | 30.97 | 30.97 Mbytes
   Step           Lx             Ly             Lz           Press           Pxx            Pyy            Pzz           KinEng         PotEng          Temp          c_1[1]         c_1[2]         c_1[3]    
         0   6000           100            100            0              0              0              0              0              0              0             -1.5            0              6            
    100000   6000           100            100            0.027407489    1.0857651e-20  0              0.082222467    1189751.1      0              5.744882e+13  -1.5            0              3.3191277    
    200000   6000           100            100            0.010466481    2.9242052e-21  0              0.031399444    326122.19      0              1.5747274e+13 -1.5            0              3.0577517    
    300000   6000           100            100            0.0023901648   1.0693884e-21  0              0.0071704945   29890.512      0              1.4433058e+12 -1.5            0              3.0383786    
    400000   6000           100            100            0.000760795   -4.5608313e-22  0              0.002282385    3727.1557      0              1.7997101e+11 -1.5            0              3.0094387    
    500000   6000           100            100            0.11781552    -5.3796284e-16  0              0.35344655     593.19931      0              2.8643472e+10 -1.5            0              2.9970662    
    600000   6000           100            100            0.0079391949  -3.6438185e-17  0              0.023817585    4.4353976      0              2.1416948e+08 -1.5            0              2.9995125    
    700000   6000           100            100            0.02687144    -1.2324951e-16  0              0.080614321    49.647382      0              2.3972944e+09 -1.5            0              2.998901     
    800000   6000           100            100            0.030365788   -1.3887605e-16  0              0.091097365    3.768627       0              1.8197351e+08 -1.5            0              2.9988096    
    900000   6000           100            100            0.032040025   -1.4641291e-16  0              0.096120075    0.082324895    0              3975174.5     -1.5            0              2.9987668    
   1000000   6000           100            100            0.032854148   -1.5010724e-16  0              0.098562444    0.004450116    0              214880.17     -1.5            0              2.9987461    
   1100000   6000           100            100            0.033178816   -1.5158883e-16  0              0.099536448    0.0064822178   0              313003.1      -1.5            0              2.9987378    
   1200000   6000           100            100            0.033286917   -1.5208484e-16  0              0.09986075     0.0019395811   0              93655.43      -1.5            0              2.9987351    
   1300000   6000           100            100            0.033316049   -1.5221956e-16  0              0.099948147    0.00034134918  0              16482.53      -1.5            0              2.9987343    
   1400000   6000           100            100            0.033321286   -1.5224428e-16  0              0.099963858    4.1534736e-05  0              2005.5638     -1.5            0              2.9987342    
   1500000   6000           100            100            0.033320994   -1.5224325e-16  0              0.099962982    3.4300631e-06  0              165.62547     -1.5            0              2.9987342    
   1600000   6000           100            100            0.033320137   -1.5223944e-16  0              0.099960412    1.5036593e-07  0              7.2606328     -1.5            0              2.9987342    
   1700000   6000           100            100            0.033319616   -1.5223708e-16  0              0.099958848    2.9674159e-10  0              0.014328589   -1.5            0              2.9987342    
   1800000   6000           100            100            0.033319385   -1.5223603e-16  0              0.099958155    1.452114e-09   0              0.07011739    -1.5            0              2.9987342    
   1900000   6000           100            100            0.0333193     -1.5223565e-16  0              0.099957901    7.3135381e-10  0              0.035314458   -1.5            0              2.9987342    
   2000000   6000           100            100            0.033319275   -1.5223553e-16  0              0.099957825    1.6351351e-10  0              0.007895482   -1.5            0              2.9987342    
   2100000   6000           100            100            0.033319269   -1.522355e-16   0              0.099957807    2.3997518e-11  0              0.0011587542  -1.5            0              2.9987342    
   2200000   6000           100            100            0.033319268   -1.522355e-16   0              0.099957805    2.4571778e-12  0              0.00011864832 -1.5            0              2.9987342    
   2300000   6000           100            100            0.033319269   -1.522355e-16   0              0.099957806    1.6000409e-13  0              7.7260248e-06 -1.5            0              2.9987342    
   2400000   6000           100            100            0.033319269   -1.522355e-16   0              0.099957807    3.7422066e-15  0              1.8069776e-07 -1.5            0              2.9987342    
   2500000   6000           100            100            0.033319269   -1.522355e-16   0              0.099957807    9.4157527e-17  0              4.54653e-09   -1.5            0              2.9987342    
   2600000   6000           100            100            0.033319269   -1.522355e-16   0              0.099957807    3.1873814e-16  0              1.5390724e-08 -1.5            0              2.9987342    
   2700000   6000           100            100            0.033319269   -1.522355e-16   0              0.099957808    1.9702485e-17  0              9.5136249e-10 -1.5            0              2.9987342    
   2800000   6000           100            100            0.033319269   -1.522355e-16   0              0.099957808    3.5064991e-18  0              1.6931629e-10 -1.5            0              2.9987342    
   2900000   6000           100            100            0.033319269   -1.522355e-16   0              0.099957808    4.0615005e-18  0              1.9611532e-10 -1.5            0              2.9987342    
   3000000   6000           100            100            0.033319269   -1.522355e-16   0              0.099957808    2.4713668e-18  0              1.1933346e-10 -1.5            0              2.9987342    
Loop time of 456.935 on 4 procs for 3000000 steps with 4000 atoms

Performance: 5672580.209 ns/day, 0.000 hours/ns, 6565.486 timesteps/s
100.0% CPU use with 4 MPI tasks x 1 OpenMP threads

MPI task timing breakdown:
Section |  min time  |  avg time  |  max time  |%varavg| %total
---------------------------------------------------------------
Pair    | 199.99     | 200.78     | 201.71     |   4.5 | 43.94
Neigh   | 0.95577    | 0.95788    | 0.95991    |   0.2 |  0.21
Comm    | 25.858     | 26.393     | 26.867     |   7.5 |  5.78
Output  | 0.32864    | 0.3287     | 0.32881    |   0.0 |  0.07
Modify  | 203.09     | 204.07     | 204.8      |   4.3 | 44.66
Other   |            | 24.41      |            |       |  5.34

Nlocal:           1000 ave        1000 max        1000 min
Histogram: 4 0 0 0 0 0 0 0 0 0
Nghost:              6 ave           6 max           6 min
Histogram: 4 0 0 0 0 0 0 0 0 0
Neighs:           1500 ave        1500 max        1500 min
Histogram: 4 0 0 0 0 0 0 0 0 0

Total # of neighbors = 6000
Ave neighs/atom = 1.5
Neighbor list builds = 168
Dangerous builds = 0

undump D1


clear
  using 1 OpenMP thread(s) per MPI task

next num

jump SELF startloop

include granular.in
### Simulation of contact between two chain

##################### Simulation setup ####################

units micro                              # units
dimension	3                            # dimension
boundary	p p p                        # boundary condition p: periodic
atom_style	sphere                       # atom style
#processors * * 1

####################### Parameter ##################################

variable ind equal ${num}
variable ind equal 6

variable lat1 equal 3 #*(2^(1/2))
variable lat2 equal 3
variable d1 equal 3                      # Diamter of particle at bottom chain
variable d2 equal 3                      # Diamter of particle at upper chain

variable n2e1 equal 1000*v_lat1              # Half length of top chain. 1500 is number of particles
variable n1e1 equal v_n2e1*(v_lat1/v_lat2)              # Half length of bottom chain, which is 1.5 time larger than top chain
variable n1e2 equal -v_n1e1
variable n2e2 equal -v_n2e1
#variable x_shift equal -0.25*v_d1

variable den equal 2.2 #grams/cm^3      # micrometer^3=10^-12 cm^3 Density of materials

variable V1 equal (1/6)*PI*(v_d1^3)     # Volume of particle 1
variable V2 equal (1/6)*PI*(v_d2^3)     # Volume of particle 2

variable mass1 equal v_den*v_V1  # Mass of particle 1 (picograms)
variable mass2 equal v_den*v_V2  # Mass of particle 2 (picograms)

# E GPa to picogram/(micrometer-microsecond^2)= 10^3 Pa= 10^-6 GPa
# Force unit(picogram-micrometer/microsecond^2)=10^-9 N= 1nN
# Spring stiffness (force/distance) 10^-3 N/m


variable E equal (10+(5*v_ind))*(10^6)                    # Young's Modulus using for Hertz/material model
variable PR equal 0.3                          # Poisson's ratio using for Hertz/material model
variable Fn equal -1000                        # Force apply to each particles in top chain
variable dt equal 0.00001                      # Time step units microsecond
variable lgv equal 0.5                         #damping for langevin thermostat for slider



################### Creating the model #################################
lattice sc ${lat1}                                                               # Bottom chain type1
lattice sc 3                                                               
Lattice spacing in x,y,z = 3 3 3

region box block ${n1e2} ${n1e1} -50 50 -50 50 units box
region box block -3000 ${n1e1} -50 50 -50 50 units box
region box block -3000 3000 -50 50 -50 50 units box
region substrate block ${n1e2} ${n1e1} -0.1 0.1 0 0.1 units box
region substrate block -3000 ${n1e1} -0.1 0.1 0 0.1 units box
region substrate block -3000 3000 -0.1 0.1 0 0.1 units box

create_box 2 box
Created orthogonal box = (-3000 -50 -50) to (3000 50 50)
  4 by 1 by 1 MPI processor grid
create_atoms 1 region substrate
Created 2000 atoms
  using lattice units in orthogonal box = (-3000 -50 -50) to (3000 50 50)
  create_atoms CPU = 0.001 seconds

lattice sc ${lat2}                                                             # Top chain type2
lattice sc 3                                                             
Lattice spacing in x,y,z = 3 3 3

region slider1 block ${n2e2} ${n2e1} -0.1 0.1 5.9 6.1 units box
region slider1 block -3000 ${n2e1} -0.1 0.1 5.9 6.1 units box
region slider1 block -3000 3000 -0.1 0.1 5.9 6.1 units box

create_atoms 2 region slider1
Created 2000 atoms
  using lattice units in orthogonal box = (-3000 -50 -50) to (3000 50 50)
  create_atoms CPU = 0.001 seconds


set type 1 diameter ${d1}                    # Set mass and diameter for each particles type
set type 1 diameter 3                    
Setting atom values ...
  2000 settings made for diameter
set type 1 mass ${mass1}
set type 1 mass 31.101767270539
Setting atom values ...
  2000 settings made for mass
set type 2 diameter ${d2}                    # Set mass and diameter for each particles type
set type 2 diameter 3                    
Setting atom values ...
  2000 settings made for diameter
set type 2 mass ${mass2}
set type 2 mass 31.101767270539
Setting atom values ...
  2000 settings made for mass


group substrate region substrate           # Define gorup
2000 atoms in group substrate
group slider1 region slider1
2000 atoms in group slider1
#displace_atoms slider1 move ${x_shift} 0.0 0.0
#group substrate_slider union substrate slider1

########################## Potential ###################################
[...]
   1400000   6000           100            100            0.033348518   -1.5236359e-16  0              0.10004556     1.9223353e-05  0              928.22692     -1.5            0              2.9996103    
   1500000   6000           100            100            0.033336053   -1.5230645e-16  0              0.10000816     2.5411618e-06  0              122.70361     -1.5            0              2.9996104    
   1600000   6000           100            100            0.033331551   -1.5228581e-16  0              0.099994653    3.3591458e-07  0              16.220113     -1.5            0              2.9996104    
   1700000   6000           100            100            0.033329925   -1.5227836e-16  0              0.099989774    4.4401508e-08  0              2.1439899     -1.5            0              2.9996104    
   1800000   6000           100            100            0.033329337   -1.5227567e-16  0              0.099988011    5.8686389e-09  0              0.28337557    -1.5            0              2.9996104    
   1900000   6000           100            100            0.033329125   -1.5227469e-16  0              0.099987375    7.7555311e-10  0              0.037448684   -1.5            0              2.9996104    
   2000000   6000           100            100            0.033329048   -1.5227434e-16  0              0.099987145    1.0253246e-10  0              0.0049509256  -1.5            0              2.9996104    
   2100000   6000           100            100            0.033329021   -1.5227421e-16  0              0.099987062    1.355616e-11   0              0.00065457847 -1.5            0              2.9996104    
   2200000   6000           100            100            0.033329011   -1.5227417e-16  0              0.099987032    1.7862568e-12  0              8.6251948e-05 -1.5            0              2.9996104    
   2300000   6000           100            100            0.033329007   -1.5227415e-16  0              0.099987021    2.3547097e-13  0              1.137005e-05  -1.5            0              2.9996104    
   2400000   6000           100            100            0.033329006   -1.5227415e-16  0              0.099987017    3.141895e-14   0              1.5171087e-06 -1.5            0              2.9996104    
   2500000   6000           100            100            0.033329005   -1.5227414e-16  0              0.099987016    4.2613828e-15  0              2.0576692e-07 -1.5            0              2.9996104    
   2600000   6000           100            100            0.033329005   -1.5227414e-16  0              0.099987015    6.8856738e-16  0              3.3248454e-08 -1.5            0              2.9996104    
   2700000   6000           100            100            0.033329005   -1.5227414e-16  0              0.099987015    5.9820368e-17  0              2.8885115e-09 -1.5            0              2.9996104    
   2800000   6000           100            100            0.033329005   -1.5227414e-16  0              0.099987015    3.4474089e-18  0              1.6646304e-10 -1.5            0              2.9996104    
   2900000   6000           100            100            0.033329005   -1.5227414e-16  0              0.099987015    9.2509837e-18  0              4.466969e-10  -1.5            0              2.9996104    
   3000000   6000           100            100            0.033329005   -1.5227414e-16  0              0.099987015    1.6703141e-18  0              8.0653488e-11 -1.5            0              2.9996104    
Loop time of 430.44 on 4 procs for 3000000 steps with 4000 atoms

Performance: 6021750.852 ns/day, 0.000 hours/ns, 6969.619 timesteps/s
100.0% CPU use with 4 MPI tasks x 1 OpenMP threads

MPI task timing breakdown:
Section |  min time  |  avg time  |  max time  |%varavg| %total
---------------------------------------------------------------
Pair    | 167.38     | 171.75     | 178.66     |  34.7 | 39.90
Neigh   | 0.98163    | 0.98441    | 0.98723    |   0.3 |  0.23
Comm    | 25.159     | 30.172     | 35.453     |  89.2 |  7.01
Output  | 0.32563    | 0.32568    | 0.32574    |   0.0 |  0.08
Modify  | 201.05     | 202.84     | 206.83     |  16.3 | 47.12
Other   |            | 24.36      |            |       |  5.66

Nlocal:           1000 ave        1000 max        1000 min
Histogram: 4 0 0 0 0 0 0 0 0 0
Nghost:              6 ave           6 max           6 min
Histogram: 4 0 0 0 0 0 0 0 0 0
Neighs:           1500 ave        1500 max        1500 min
Histogram: 4 0 0 0 0 0 0 0 0 0

Total # of neighbors = 6000
Ave neighs/atom = 1.5
Neighbor list builds = 174
Dangerous builds = 0

undump D1


clear
  using 1 OpenMP thread(s) per MPI task

next num

jump SELF startloop

include granular.in
### Simulation of contact between two chain

##################### Simulation setup ####################

units micro                              # units
dimension	3                            # dimension
boundary	p p p                        # boundary condition p: periodic
atom_style	sphere                       # atom style
#processors * * 1

####################### Parameter ##################################

variable ind equal ${num}
variable ind equal 40

variable lat1 equal 3 #*(2^(1/2))
variable lat2 equal 3
variable d1 equal 3                      # Diamter of particle at bottom chain
variable d2 equal 3                      # Diamter of particle at upper chain

variable n2e1 equal 1000*v_lat1              # Half length of top chain. 1500 is number of particles
variable n1e1 equal v_n2e1*(v_lat1/v_lat2)              # Half length of bottom chain, which is 1.5 time larger than top chain
variable n1e2 equal -v_n1e1
variable n2e2 equal -v_n2e1
#variable x_shift equal -0.25*v_d1

variable den equal 2.2 #grams/cm^3      # micrometer^3=10^-12 cm^3 Density of materials

variable V1 equal (1/6)*PI*(v_d1^3)     # Volume of particle 1
variable V2 equal (1/6)*PI*(v_d2^3)     # Volume of particle 2

variable mass1 equal v_den*v_V1  # Mass of particle 1 (picograms)
variable mass2 equal v_den*v_V2  # Mass of particle 2 (picograms)

# E GPa to picogram/(micrometer-microsecond^2)= 10^3 Pa= 10^-6 GPa
# Force unit(picogram-micrometer/microsecond^2)=10^-9 N= 1nN
# Spring stiffness (force/distance) 10^-3 N/m


variable E equal (10+(5*v_ind))*(10^6)                    # Young's Modulus using for Hertz/material model
variable PR equal 0.3                          # Poisson's ratio using for Hertz/material model
variable Fn equal -1000                        # Force apply to each particles in top chain
variable dt equal 0.00001                      # Time step units microsecond
variable lgv equal 0.5                         #damping for langevin thermostat for slider



################### Creating the model #################################
lattice sc ${lat1}                                                               # Bottom chain type1
lattice sc 3                                                               
Lattice spacing in x,y,z = 3 3 3

region box block ${n1e2} ${n1e1} -50 50 -50 50 units box
region box block -3000 ${n1e1} -50 50 -50 50 units box
region box block -3000 3000 -50 50 -50 50 units box
region substrate block ${n1e2} ${n1e1} -0.1 0.1 0 0.1 units box
region substrate block -3000 ${n1e1} -0.1 0.1 0 0.1 units box
region substrate block -3000 3000 -0.1 0.1 0 0.1 units box

create_box 2 box
Created orthogonal box = (-3000 -50 -50) to (3000 50 50)
  4 by 1 by 1 MPI processor grid
create_atoms 1 region substrate
Created 2000 atoms
  using lattice units in orthogonal box = (-3000 -50 -50) to (3000 50 50)
  create_atoms CPU = 0.001 seconds

lattice sc ${lat2}                                                             # Top chain type2
lattice sc 3                                                             
Lattice spacing in x,y,z = 3 3 3

region slider1 block ${n2e2} ${n2e1} -0.1 0.1 5.9 6.1 units box
region slider1 block -3000 ${n2e1} -0.1 0.1 5.9 6.1 units box
region slider1 block -3000 3000 -0.1 0.1 5.9 6.1 units box

create_atoms 2 region slider1
Created 2000 atoms
  using lattice units in orthogonal box = (-3000 -50 -50) to (3000 50 50)
  create_atoms CPU = 0.001 seconds


set type 1 diameter ${d1}                    # Set mass and diameter for each particles type
set type 1 diameter 3                    
Setting atom values ...
  2000 settings made for diameter
set type 1 mass ${mass1}
set type 1 mass 31.101767270539
Setting atom values ...
  2000 settings made for mass
set type 2 diameter ${d2}                    # Set mass and diameter for each particles type
set type 2 diameter 3                    
Setting atom values ...
  2000 settings made for diameter
set type 2 mass ${mass2}
set type 2 mass 31.101767270539
Setting atom values ...
  2000 settings made for mass


group substrate region substrate           # Define gorup
2000 atoms in group substrate
group slider1 region slider1
2000 atoms in group slider1
#displace_atoms slider1 move ${x_shift} 0.0 0.0
#group substrate_slider union substrate slider1

########################## Potential ###################################
pair_style granular
pair_coeff 1 1 hertz/material 0.00000001 0.001 ${PR} tangential mindlin NULL 0.1 0.01 damping viscoelastic
pair_coeff 1 1 hertz/material 0.00000001 0.001 0.3 tangential mindlin NULL 0.1 0.01 damping viscoelastic
pair_coeff 2 2 hertz/material 0.00000001 0.001 ${PR} tangential mindlin NULL 0.1 0.01 damping viscoelastic
pair_coeff 2 2 hertz/material 0.00000001 0.001 0.3 tangential mindlin NULL 0.1 0.01 damping viscoelastic
pair_coeff 1 2 hertz/material ${E} 0.001 ${PR} tangential mindlin NULL 0.1 0.01 damping viscoelastic
pair_coeff 1 2 hertz/material 210000000 0.001 ${PR} tangential mindlin NULL 0.1 0.01 damping viscoelastic
pair_coeff 1 2 hertz/material 210000000 0.001 0.3 tangential mindlin NULL 0.1 0.01 damping viscoelastic

comm_modify     vel yes
neigh_modify    delay 0 every 1 check yes

### Compute properties ###

compute 1 slider1 com                      # Compute the center of mass of top chain

variable p0 equal "step"

variable slider_z equal "c_1[3]"          # output the position of top chain in z-direction


thermo 100000
thermo_style custom step lx ly lz press pxx pyy pzz ke pe temp c_1[1] c_1[2] c_1[3]

############### Fix ##################


############## Equilibrium the system with apply force ########################

fix force_slider1 slider1 setforce NULL 0 NULL                                # Fix top chain not to move in y-direction

fix f_sub substrate freeze                                                    # Freeze the bottom chain

#fix nve_slider1 slider1 nve                   # Integrate motion for slider1 group
#fix lan_slider slider1 langevin 0 0 ${lgv} 6987532
fix rigid_top slider1 rigid/nve group 1 slider1 langevin 0 0 ${lgv} 6987532   # NVE+langevin
fix rigid_top slider1 rigid/nve group 1 slider1 langevin 0 0 0.5 6987532   
  1 rigid bodies with 2000 atoms

fix add slider1 addforce 0 0 ${Fn} every 1                                    # Add force to top layer
fix add slider1 addforce 0 0 -1000 every 1                                    

timestep ${dt}
timestep 1e-05

dump 		D1 all custom 100000 Equi_${num}_*.dump id type diameter mass xu yu zu fx fy fz
dump 		D1 all custom 100000 Equi_40_*.dump id type diameter mass xu yu zu fx fy fz
dump_modify D1 format 5 %.12g
dump_modify D1 format 7 %.12g

run 3000000
Generated 0 of 1 mixed pair_coeff terms from geometric mixing rule
Neighbor list info ...
  update every 1 steps, delay 0 steps, check yes
  max neighbors/atom: 2000, page size: 100000
  master list distance cutoff = 3.1
  ghost atom cutoff = 3.1
  binsize = 1.55, bins = 3871 65 65
  1 neighbor lists, perpetual/occasional/extra = 1 0 0
  (1) pair granular, perpetual
      attributes: half, newton on, size, history
      pair build: half/size/bin/newton
      stencil: half/bin/3d
      bin: standard
Per MPI rank memory allocation (min/avg/max) = 30.97 | 30.97 | 30.97 Mbytes
   Step           Lx             Ly             Lz           Press           Pxx            Pyy            Pzz           KinEng         PotEng          Temp          c_1[1]         c_1[2]         c_1[3]    
         0   6000           100            100            0              0              0              0              0              0              0             -1.5            0              6            
    100000   6000           100            100            0.027828131    1.1117037e-20  0              0.083484392    1217127.6      0              5.8770738e+13 -1.5            0              3.3085205    
    200000   6000           100            100            0.01135401     3.8039005e-21  0              0.03406203     369939.37      0              1.7863048e+13 -1.5            0              3.039043     
    300000   6000           100            100            0.003808012    1.6058822e-21  0              0.011424036    66912.238      0              3.2309525e+12 -1.5            0              3.0235583    
    400000   6000           100            100           -0.0012108817   5.6647111e-23  0             -0.0036326452   13277.202      0              6.4110858e+11 -1.5            0              3.0065919    
    500000   6000           100            100           -0.00048804542 -4.9243364e-22  0             -0.0014641362   1865.2352      0              9.0065531e+10 -1.5            0              3.0019023    
    600000   6000           100            100            0.089572375   -4.1212264e-16  0              0.26871713     594.45963      0              2.8704328e+10 -1.5            0              2.9992574    
    700000   6000           100            100            0.040960376   -1.8620566e-16  0              0.12288113     153.62443      0              7.4179739e+09 -1.5            0              2.9995612    
    800000   6000           100            100            0.042930983   -1.9605488e-16  0              0.12879295     1.8721986      0              90401772      -1.5            0              2.9995463    
    900000   6000           100            100            0.030939797   -1.4148229e-16  0              0.09281939     1.5352858      0              74133455      -1.5            0              2.9996351    
   1000000   6000           100            100            0.033834096   -1.5456865e-16  0              0.10150229     0.31675424     0              15294929      -1.5            0              2.9996128    
   1100000   6000           100            100            0.033280126   -1.5209672e-16  0              0.099840377    0.048465937    0              2340246.7     -1.5            0              2.999617     
   1200000   6000           100            100            0.033296305   -1.5214832e-16  0              0.099888915    0.0061544082   0              297174.35     -1.5            0              2.9996169    
   1300000   6000           100            100            0.033357929   -1.5243757e-16  0              0.10007379     0.00064481827  0              31135.967     -1.5            0              2.9996164    
   1400000   6000           100            100            0.033313414   -1.522318e-16   0              0.099940242    5.2930272e-05  0              2555.8134     -1.5            0              2.9996168    
   1500000   6000           100            100            0.033336116   -1.5233617e-16  0              0.10000835     2.9048471e-06  0              140.26467     -1.5            0              2.9996166    
   1600000   6000           100            100            0.033326258   -1.52291e-16    0              0.099978775    5.0853941e-08  0              2.4555548     -1.5            0              2.9996167    
   1700000   6000           100            100            0.033330098   -1.5230855e-16  0              0.099990294    4.5129125e-09  0              0.21791239    -1.5            0              2.9996166    
   1800000   6000           100            100            0.033328735   -1.5230233e-16  0              0.099986205    5.7622139e-09  0              0.27823669    -1.5            0              2.9996167    
   1900000   6000           100            100            0.033329174   -1.5230433e-16  0              0.099987522    1.9053354e-09  0              0.092001826   -1.5            0              2.9996167    
   2000000   6000           100            100            0.033329049   -1.5230376e-16  0              0.099987147    4.0895204e-10  0              0.019746831   -1.5            0              2.9996167    
   2100000   6000           100            100            0.033329078   -1.5230389e-16  0              0.099987234    6.8208305e-11  0              0.0032935349  -1.5            0              2.9996167    
   2200000   6000           100            100            0.033329074   -1.5230388e-16  0              0.099987223    9.3657566e-12  0              0.00045223887 -1.5            0              2.9996167    
   2300000   6000           100            100            0.033329073   -1.5230387e-16  0              0.099987219    1.0646972e-12  0              5.1410419e-05 -1.5            0              2.9996167    
   2400000   6000           100            100            0.033329074   -1.5230388e-16  0              0.099987223    9.7959613e-14  0              4.7301191e-06 -1.5            0              2.9996167    
   2500000   6000           100            100            0.033329074   -1.5230387e-16  0              0.099987221    6.7334687e-15  0              3.251351e-07  -1.5            0              2.9996167    
   2600000   6000           100            100            0.033329074   -1.5230387e-16  0              0.099987222    2.8964505e-16  0              1.3985923e-08 -1.5            0              2.9996167    
   2700000   6000           100            100            0.033329074   -1.5230387e-16  0              0.099987222    9.8296822e-18  0              4.7464018e-10 -1.5            0              2.9996167    
   2800000   6000           100            100            0.033329074   -1.5230387e-16  0              0.099987222    3.4477514e-17  0              1.6647958e-09 -1.5            0              2.9996167    
   2900000   6000           100            100            0.033329074   -1.5230387e-16  0              0.099987222    9.1462286e-19  0              4.4163864e-11 -1.5            0              2.9996167    
   3000000   6000           100            100            0.033329074   -1.5230387e-16  0              0.099987222    1.4503357e-17  0              7.0031519e-10 -1.5            0              2.9996167    
Loop time of 426.215 on 4 procs for 3000000 steps with 4000 atoms

Performance: 6081432.844 ns/day, 0.000 hours/ns, 7038.695 timesteps/s
100.0% CPU use with 4 MPI tasks x 1 OpenMP threads

MPI task timing breakdown:
Section |  min time  |  avg time  |  max time  |%varavg| %total
---------------------------------------------------------------
Pair    | 166.79     | 170.39     | 173.1      |  21.1 | 39.98
Neigh   | 0.95996    | 0.96389    | 0.96773    |   0.3 |  0.23
Comm    | 24.753     | 27.545     | 31.19      |  53.8 |  6.46
Output  | 0.32938    | 0.32942    | 0.32949    |   0.0 |  0.08
Modify  | 202        | 202.7      | 203.93     |   5.4 | 47.56
Other   |            | 24.28      |            |       |  5.70

Nlocal:           1000 ave        1000 max        1000 min
Histogram: 4 0 0 0 0 0 0 0 0 0
Nghost:              6 ave           6 max           6 min
Histogram: 4 0 0 0 0 0 0 0 0 0
Neighs:           1500 ave        1500 max        1500 min
Histogram: 4 0 0 0 0 0 0 0 0 0

Total # of neighbors = 6000
Ave neighs/atom = 1.5
Neighbor list builds = 174
Dangerous builds = 0

undump D1


clear
  using 1 OpenMP thread(s) per MPI task

next num

jump SELF startloop
Total wall time: 4:48:05
