LAMMPS (23 Jun 2022 - Update 1)
  using 1 OpenMP thread(s) per MPI task
Lattice spacing in x,y,z = 6 6 6
Created orthogonal box = (-2250 -100 -100) to (2250 100 100)
  2 by 1 by 1 MPI processor grid
Created 750 atoms
  using lattice units in orthogonal box = (-2250 -100 -100) to (2250 100 100)
  create_atoms CPU = 0.001 seconds
Lattice spacing in x,y,z = 3 3 3
Created 501 atoms
  using lattice units in orthogonal box = (-2250 -100 -100) to (2250 100 100)
  create_atoms CPU = 0.000 seconds
Setting atom values ...
  750 settings made for diameter
Setting atom values ...
  750 settings made for mass
Setting atom values ...
  501 settings made for diameter
Setting atom values ...
  501 settings made for mass
750 atoms in group substrate
501 atoms in group slider1
  1 rigid bodies with 501 atoms
Generated 0 of 1 mixed pair_coeff terms from geometric mixing rule
Neighbor list info ...
  update every 1 steps, delay 0 steps, check yes
  max neighbors/atom: 2000, page size: 100000
  master list distance cutoff = 3.1
  ghost atom cutoff = 3.1
  binsize = 1.55, bins = 2904 130 130
  1 neighbor lists, perpetual/occasional/extra = 1 0 0
  (1) pair granular, perpetual
      attributes: half, newton on, size, history
      pair build: half/size/bin/newton
      stencil: half/bin/3d
      bin: standard
Setting up Verlet run ...
  Unit style    : micro
  Current step  : 0
  Time step     : 1e-05
Per MPI rank memory allocation (min/avg/max) = 114.1 | 114.1 | 114.1 Mbytes
   Step           Lx             Ly             Lz           Press           Pxx            Pyy            Pzz           KinEng         PotEng          Temp          c_1[1]         c_1[2]         c_1[3]    
         0   4500           200            200            0              0              0              0              0              0              0              0              0              6            
    100000   4500           200            200            0.0022970371   5.7060033e-42  0              0.0068911114   299559.36      0              5.7858598e+10  0              0              3.318643     
    200000   4500           200            200            0.00088149574  1.159278e-43   0              0.0026444872   82726.454      0              1.5978258e+10  0              0              3.0583803    
    300000   4500           200            200            0.00020244266 -1.4024183e-37  0              0.00060732797  7671.8862      0              1.4817917e+09  0              0              3.0397469    
    400000   4500           200            200            7.1603057e-05  1.1219357e-36  0              0.00021480917  1170.2921      0              2.2603687e+08  0              0              3.0099159    
    500000   4500           200            200            0.00028770841  2.8048424e-37  0              0.00086312522  1110.1675      0              2.1442406e+08  0              0              2.9997503    
    600000   4500           200            200            0.0004392173  -8.4145158e-37  0              0.0013176519   39.618859      0              7652211.7      0              0              2.9997145    
    700000   4500           200            200            0.0029806143   9.8169361e-37  0              0.0089418428   26.866819      0              5189210.1      0              0              2.9989543    
    800000   4500           200            200            0.0029555846  -2.1036288e-37  0              0.0088667539   3.0851727      0              595887.79      0              0              2.9989617    
    900000   4500           200            200            0.0028419802   1.379918e-45   0              0.0085259407   0.42438765     0              81968.643      0              0              2.9989889    
   1000000   4500           200            200            0.0028007596  -5.4782007e-39  0              0.0084022789   0.060049529    0              11598.307      0              0              2.9989989    
   1100000   4500           200            200            0.0027877049   8.7651213e-39  0              0.0083631146   0.0084450772   0              1631.1302      0              0              2.9990021    
   1200000   4500           200            200            0.0027838058  -1.0956401e-39  0              0.0083514173   0.0011748942   0              226.92574      0              0              2.9990031    
   1300000   4500           200            200            0.0027827175  -5.4782006e-40  0              0.0083481524   0.00016161161  0              31.214585      0              0              2.9990033    
   1400000   4500           200            200            0.0027824466  -2.1912803e-39  0              0.0083473397   2.1981257e-05  0              4.245585       0              0              2.9990034    
   1500000   4500           200            200            0.0027823949   4.9065308e-49  0              0.0083471847   2.9564763e-06  0              0.57103063     0              0              2.9990034    
   1600000   4500           200            200            0.0027823935  -8.7651212e-39  0              0.0083471806   3.932208e-07   0              0.075948901    0              0              2.9990034    
   1700000   4500           200            200            0.0027823995  -1.2052042e-38  0              0.0083471984   5.171112e-08   0              0.0099877798   0              0              2.9990034    
   1800000   4500           200            200            0.002782404   -1.9721523e-38  0              0.008347212    6.7221388e-09  0              0.0012983521   0              0              2.9990034    
   1900000   4500           200            200            0.0027824065   3.8347405e-39  0              0.0083472196   8.6344397e-10  0              0.00016677048  0              0              2.9990034    
   2000000   4500           200            200            0.0027824077   1.5855657e-49  0              0.0083472232   1.0951886e-10  0              2.1153096e-05  0              0              2.9990034    
   2100000   4500           200            200            0.0027824083   6.5738409e-39  0              0.0083472249   1.3711039e-11  0              2.6482281e-06  0              0              2.9990034    
   2200000   4500           200            200            0.0027824086  -6.5738409e-39  0              0.0083472257   1.6920423e-12  0              3.2681067e-07  0              0              2.9990034    
   2300000   4500           200            200            0.0027824087   1.3504674e-49  0              0.008347226    2.050775e-13   0              3.9609834e-08  0              0              2.9990034    
   2400000   4500           200            200            0.0027824087  -4.3825606e-39  0              0.0083472261   2.4629919e-14  0              4.7571626e-09  0              0              2.9990034    
   2500000   4500           200            200            0.0027824087   1.0956401e-38  0              0.0083472262   2.9319159e-15  0              5.6628691e-10  0              0              2.9990034    
   2600000   4500           200            200            0.0027824087  -1.0956401e-39  0              0.0083472262   3.457365e-16   0              6.6777513e-11  0              0              2.9990034    
   2700000   4500           200            200            0.0027824087  -8.3268651e-38  0              0.0083472262   7.1982808e-18  0              1.3903169e-12  0              0              2.9990034    
   2800000   4500           200            200            0.0027824087  -8.7651212e-39  0              0.0083472262   9.0333813e-18  0              1.7447586e-12  0              0              2.9990034    
   2900000   4500           200            200            0.0027824087  -4.8208166e-38  0              0.0083472262   3.5334115e-18  0              6.8246319e-13  0              0              2.9990034    
   3000000   4500           200            200            0.0027824087  -1.7530242e-38  0              0.0083472262   7.1235144e-21  0              1.3758761e-15  0              0              2.9990034    
Loop time of 219.275 on 2 procs for 3000000 steps with 1251 atoms

Performance: 11820778.485 ns/day, 0.000 hours/ns, 13681.457 timesteps/s
99.9% CPU use with 2 MPI tasks x 1 OpenMP threads

MPI task timing breakdown:
Section |  min time  |  avg time  |  max time  |%varavg| %total
---------------------------------------------------------------
Pair    | 63.645     | 63.732     | 63.818     |   1.1 | 29.06
Neigh   | 6.0121     | 6.0153     | 6.0184     |   0.1 |  2.74
Comm    | 19.077     | 19.28      | 19.482     |   4.6 |  8.79
Output  | 0.21479    | 0.21485    | 0.21491    |   0.0 |  0.10
Modify  | 116.96     | 117        | 117.04     |   0.4 | 53.36
Other   |            | 13.04      |            |       |  5.94

Nlocal:          625.5 ave         626 max         625 min
Histogram: 1 0 0 0 0 0 0 0 0 1
Nghost:            2.5 ave           3 max           2 min
Histogram: 1 0 0 0 0 0 0 0 0 1
Neighs:          375.5 ave         376 max         375 min
Histogram: 1 0 0 0 0 0 0 0 0 1

Total # of neighbors = 751
Ave neighs/atom = 0.60031974
Neighbor list builds = 172
Dangerous builds = 0
  using 1 OpenMP thread(s) per MPI task
Lattice spacing in x,y,z = 6.01 6.01 6.01
Created orthogonal box = (-2253.75 -100 -100) to (2253.75 100 100)
  2 by 1 by 1 MPI processor grid
Created 750 atoms
  using lattice units in orthogonal box = (-2253.75 -100 -100) to (2253.75 100 100)
  create_atoms CPU = 0.001 seconds
Lattice spacing in x,y,z = 3 3 3
Created 501 atoms
  using lattice units in orthogonal box = (-2253.75 -100 -100) to (2253.75 100 100)
  create_atoms CPU = 0.000 seconds
Setting atom values ...
  750 settings made for diameter
Setting atom values ...
  750 settings made for mass
Setting atom values ...
  501 settings made for diameter
Setting atom values ...
  501 settings made for mass
750 atoms in group substrate
501 atoms in group slider1
  1 rigid bodies with 501 atoms
Generated 0 of 1 mixed pair_coeff terms from geometric mixing rule
Neighbor list info ...
  update every 1 steps, delay 0 steps, check yes
  max neighbors/atom: 2000, page size: 100000
  master list distance cutoff = 3.1
  ghost atom cutoff = 3.1
  binsize = 1.55, bins = 2909 130 130
  1 neighbor lists, perpetual/occasional/extra = 1 0 0
  (1) pair granular, perpetual
      attributes: half, newton on, size, history
      pair build: half/size/bin/newton
      stencil: half/bin/3d
      bin: standard
Setting up Verlet run ...
  Unit style    : micro
  Current step  : 0
  Time step     : 1e-05
Per MPI rank memory allocation (min/avg/max) = 114.4 | 114.4 | 114.4 Mbytes
   Step           Lx             Ly             Lz           Press           Pxx            Pyy            Pzz           KinEng         PotEng          Temp          c_1[1]         c_1[2]         c_1[3]    
         0   4507.5         200            200            0              0              0              0              0              0              0              0              0              6            
    100000   4507.5         200            200            0.0022485382  -8.9601119e-36  0              0.0067456146   291035.36      0              5.6212225e+10  0              0              3.3295244    
    200000   4507.5         200            200            0.00077669029  4.3141321e-41  0              0.0023300709   68147.737      0              1.3162441e+10  0              0              3.0795813    
    300000   4507.5         200            200            2.0827701e-05 -5.6003405e-37  0              6.2483104e-05  106.26901      0              20525402       0              0              3.0451974    
    400000   4507.5         200            200            6.2934951e-05  2.3210585e-42  0              0.00018880485  922.77265      0              1.7822956e+08  0              0              3.004656     
    500000   4507.5         200            200            0.007217554    0.0064742755   0              0.015178387    390.62834      0              75448178       0              0              2.992903     
    600000   4507.5         200            200            0.0023280228   0.0017130059   0              0.0052710625   0.14506529     0              28018.735      0              0              2.9958367    
    700000   4507.5         200            200            0.0039691132   0.00269933     0              0.0092080095   6.361637       0              1228722.7      0              0              2.9944901    
    800000   4507.5         200            200            0.003620862    0.0025396076   0              0.0083229786   1.841809       0              355737.46      0              0              2.9947689    
    900000   4507.5         200            200            0.0035780527   0.0025357648   0              0.0081983932   0.10619148     0              20510.426      0              0              2.9948052    
   1000000   4507.5         200            200            0.0036434352   0.0025499044   0              0.0083804013   0.00071346695  0              137.80306      0              0              2.9947483    
   1100000   4507.5         200            200            0.0036181784   0.0025444829   0              0.0083100521   0.0032410032   0              625.98578      0              0              2.9947706    
   1200000   4507.5         200            200            0.0036214534   0.0025452252   0              0.0083191349   0.00055990851  0              108.14391      0              0              2.9947676    
   1300000   4507.5         200            200            0.003623298    0.0025456107   0              0.0083242834   1.3239813e-05  0              2.5572127      0              0              2.994766     
   1400000   4507.5         200            200            0.0036219727   0.0025453263   0              0.0083205918   2.1158271e-06  0              0.40866287     0              0              2.9947672    
   1500000   4507.5         200            200            0.0036223582   0.0025454105   0              0.008321664    1.4115318e-06  0              0.27263127     0              0              2.9947668    
   1600000   4507.5         200            200            0.0036223526   0.0025454086   0              0.0083216493   1.386723e-07   0              0.026783956    0              0              2.9947668    
   1700000   4507.5         200            200            0.0036223032   0.0025453981   0              0.0083215115   3.1714452e-10  0              6.1255094e-05  0              0              2.9947669    
   1800000   4507.5         200            200            0.0036223276   0.0025454034   0              0.0083215795   1.7456696e-09  0              0.00033716855  0              0              2.9947668    
   1900000   4507.5         200            200            0.0036223226   0.0025454023   0              0.0083215655   5.0231681e-10  0              9.7020324e-05  0              0              2.9947669    
   2000000   4507.5         200            200            0.0036223217   0.0025454021   0              0.008321563    2.5880839e-11  0              4.9987723e-06  0              0              2.9947669    
   2100000   4507.5         200            200            0.0036223228   0.0025454023   0              0.0083215661   3.499747e-13   0              6.7596104e-08  0              0              2.9947669    
   2200000   4507.5         200            200            0.0036223224   0.0025454022   0              0.008321565    9.4201974e-13  0              1.8194705e-07  0              0              2.9947669    
   2300000   4507.5         200            200            0.0036223224   0.0025454023   0              0.0083215651   1.4791518e-13  0              2.8569178e-08  0              0              2.9947669    
   2400000   4507.5         200            200            0.0036223225   0.0025454023   0              0.0083215652   2.815605e-15   0              5.4382195e-10  0              0              2.9947669    
   2500000   4507.5         200            200            0.0036223225   0.0025454023   0              0.0083215651   7.4518903e-16  0              1.4393005e-10  0              0              2.9947669    
   2600000   4507.5         200            200            0.0036223225   0.0025454023   0              0.0083215651   3.8806088e-16  0              7.4952284e-11  0              0              2.9947669    
   2700000   4507.5         200            200            0.0036223225   0.0025454023   0              0.0083215651   3.5274781e-17  0              6.8131717e-12  0              0              2.9947669    
   2800000   4507.5         200            200            0.0036223225   0.0025454023   0              0.0083215651   2.4633369e-20  0              4.757829e-15   0              0              2.9947669    
   2900000   4507.5         200            200            0.0036223225   0.0025454023   0              0.0083215651   2.1674159e-19  0              4.1862704e-14  0              0              2.9947669    
   3000000   4507.5         200            200            0.0036223225   0.0025454023   0              0.0083215651   5.6043297e-19  0              1.0824521e-13  0              0              2.9947669    
Loop time of 191.209 on 2 procs for 3000000 steps with 1251 atoms

Performance: 13555837.959 ns/day, 0.000 hours/ns, 15689.627 timesteps/s
99.9% CPU use with 2 MPI tasks x 1 OpenMP threads

MPI task timing breakdown:
Section |  min time  |  avg time  |  max time  |%varavg| %total
---------------------------------------------------------------
Pair    | 41.005     | 42.432     | 43.86      |  21.9 | 22.19
Neigh   | 5.6782     | 5.6783     | 5.6784     |   0.0 |  2.97
Comm    | 18.486     | 20.027     | 21.568     |  34.4 | 10.47
Output  | 0.21666    | 0.21671    | 0.21677    |   0.0 |  0.11
Modify  | 109.73     | 109.82     | 109.9      |   0.8 | 57.43
Other   |            | 13.04      |            |       |  6.82

Nlocal:          625.5 ave         626 max         625 min
Histogram: 1 0 0 0 0 0 0 0 0 1
Nghost:            2.5 ave           3 max           2 min
Histogram: 1 0 0 0 0 0 0 0 0 1
Neighs:          328.5 ave         329 max         328 min
Histogram: 1 0 0 0 0 0 0 0 0 1

Total # of neighbors = 657
Ave neighs/atom = 0.52517986
Neighbor list builds = 164
Dangerous builds = 0
  using 1 OpenMP thread(s) per MPI task
Lattice spacing in x,y,z = 6.02 6.02 6.02
Created orthogonal box = (-2257.5 -100 -100) to (2257.5 100 100)
  2 by 1 by 1 MPI processor grid
Created 750 atoms
  using lattice units in orthogonal box = (-2257.5 -100 -100) to (2257.5 100 100)
  create_atoms CPU = 0.001 seconds
Lattice spacing in x,y,z = 3 3 3
Created 501 atoms
  using lattice units in orthogonal box = (-2257.5 -100 -100) to (2257.5 100 100)
  create_atoms CPU = 0.000 seconds
Setting atom values ...
  750 settings made for diameter
Setting atom values ...
  750 settings made for mass
Setting atom values ...
  501 settings made for diameter
Setting atom values ...
  501 settings made for mass
750 atoms in group substrate
501 atoms in group slider1
  1 rigid bodies with 501 atoms
Generated 0 of 1 mixed pair_coeff terms from geometric mixing rule
Neighbor list info ...
  update every 1 steps, delay 0 steps, check yes
  max neighbors/atom: 2000, page size: 100000
  master list distance cutoff = 3.1
  ghost atom cutoff = 3.1
  binsize = 1.55, bins = 2913 130 130
  1 neighbor lists, perpetual/occasional/extra = 1 0 0
  (1) pair granular, perpetual
      attributes: half, newton on, size, history
      pair build: half/size/bin/newton
      stencil: half/bin/3d
      bin: standard
Setting up Verlet run ...
  Unit style    : micro
  Current step  : 0
  Time step     : 1e-05
Per MPI rank memory allocation (min/avg/max) = 114.5 | 114.5 | 114.5 Mbytes
   Step           Lx             Ly             Lz           Press           Pxx            Pyy            Pzz           KinEng         PotEng          Temp          c_1[1]         c_1[2]         c_1[3]    
         0   4515           200            200            0              0              0              0              0              0              0              0              0              6            
    100000   4515           200            200            0.0022178291  -1.7891106e-35  0              0.0066534874   285836.72      0              5.5208129e+10  0              0              3.3373259    
    200000   4515           200            200            0.00071142994  6.709274e-36   0              0.0021342898   59521.935      0              1.1496405e+10  0              0              3.0930979    
    300000   4515           200            200           -7.1384436e-05 -2.236406e-36   0             -0.00021415331  1509.0657      0              2.9146953e+08  0              0              3.0376647    
    400000   4515           200            200            0.010344836    0.0093317609   0              0.021702747    2691.2799      0              5.198091e+08   0              0              2.9879411    
    500000   4515           200            200            0.004937373    0.002665552    0              0.012146567    473.29025      0              91413970       0              0              2.9910932    
    600000   4515           200            200            0.0025075155   0.0014246951   0              0.0060978514   12.72288       0              2457369.3      0              0              2.993669     
    700000   4515           200            200            0.0031304331   0.0018015772   0              0.007589722    4.6296525      0              894197.41      0              0              2.9929161    
    800000   4515           200            200            0.0034004582   0.0018806687   0              0.0083207058   1.5419269      0              297816.53      0              0              2.9925867    
    900000   4515           200            200            0.0034284859   0.0018798788   0              0.0084055789   0.062494259    0              12070.496      0              0              2.9925517    
   1000000   4515           200            200            0.003407159    0.0018763452   0              0.0083451318   0.0031482074   0              608.06267      0              0              2.9925793    
   1100000   4515           200            200            0.0033937446   0.0018741375   0              0.0083070964   0.0034560367   0              667.51857      0              0              2.9925962    
   1200000   4515           200            200            0.0033906336   0.0018736339   0              0.008298267    0.00035010579  0              67.621423      0              0              2.9926       
   1300000   4515           200            200            0.0033910543   0.00187371     0              0.008299453    1.7969464e-07  0              0.034707244    0              0              2.9925994    
   1400000   4515           200            200            0.0033916631   0.0018738121   0              0.0083011772   5.4738822e-06  0              1.0572567      0              0              2.9925987    
   1500000   4515           200            200            0.0033918786   0.0018738475   0              0.0083017881   1.2182446e-06  0              0.23529868     0              0              2.9925984    
   1600000   4515           200            200            0.0033918926   0.0018738496   0              0.0083018283   3.1477977e-08  0              0.0060798355   0              0              2.9925984    
   1700000   4515           200            200            0.0033918698   0.0018738457   0              0.0083017637   4.8769516e-09  0              0.00094196216  0              0              2.9925984    
   1800000   4515           200            200            0.0033918577   0.0018738437   0              0.0083017294   3.0487632e-09  0              0.00058885546  0              0              2.9925984    
   1900000   4515           200            200            0.0033918554   0.0018738433   0              0.0083017228   2.3276428e-10  0              4.4957417e-05  0              0              2.9925984    
   2000000   4515           200            200            0.0033918559   0.0018738434   0              0.0083017244   4.0908081e-13  0              7.9012194e-08  0              0              2.9925984    
   2100000   4515           200            200            0.0033918565   0.0018738435   0              0.0083017261   5.5137287e-12  0              1.0649529e-06  0              0              2.9925984    
   2200000   4515           200            200            0.0033918567   0.0018738435   0              0.0083017266   9.2910313e-13  0              1.7945226e-07  0              0              2.9925984    
   2300000   4515           200            200            0.0033918567   0.0018738435   0              0.0083017266   1.2930611e-14  0              2.4974918e-09  0              0              2.9925984    
   2400000   4515           200            200            0.0033918567   0.0018738435   0              0.0083017265   6.3151925e-15  0              1.2197522e-09  0              0              2.9925984    
   2500000   4515           200            200            0.0033918567   0.0018738435   0              0.0083017265   2.595091e-15   0              5.0123062e-10  0              0              2.9925984    
   2600000   4515           200            200            0.0033918567   0.0018738435   0              0.0083017265   1.4582172e-16  0              2.8164836e-11  0              0              2.9925984    
   2700000   4515           200            200            0.0033918567   0.0018738435   0              0.0083017265   5.5933629e-20  0              1.0803339e-14  0              0              2.9925984    
   2800000   4515           200            200            0.0033918567   0.0018738435   0              0.0083017265   2.8163441e-18  0              5.4396471e-13  0              0              2.9925984    
   2900000   4515           200            200            0.0033918567   0.0018738435   0              0.0083017265   3.8889526e-18  0              7.5113441e-13  0              0              2.9925984    
   3000000   4515           200            200            0.0033918567   0.0018738435   0              0.0083017265   1.7439509e-19  0              3.3683659e-14  0              0              2.9925984    
Loop time of 185.075 on 2 procs for 3000000 steps with 1251 atoms

Performance: 14005160.979 ns/day, 0.000 hours/ns, 16209.677 timesteps/s
99.9% CPU use with 2 MPI tasks x 1 OpenMP threads

MPI task timing breakdown:
Section |  min time  |  avg time  |  max time  |%varavg| %total
---------------------------------------------------------------
Pair    | 37.822     | 38.029     | 38.236     |   3.4 | 20.55
Neigh   | 5.7304     | 5.7307     | 5.7311     |   0.0 |  3.10
Comm    | 18.415     | 18.501     | 18.586     |   2.0 | 10.00
Output  | 0.21333    | 0.21339    | 0.21344    |   0.0 |  0.12
Modify  | 109.36     | 109.53     | 109.7      |   1.6 | 59.18
Other   |            | 13.07      |            |       |  7.06

Nlocal:          625.5 ave         626 max         625 min
Histogram: 1 0 0 0 0 0 0 0 0 1
Nghost:            2.5 ave           3 max           2 min
Histogram: 1 0 0 0 0 0 0 0 0 1
Neighs:          303.5 ave         304 max         303 min
Histogram: 1 0 0 0 0 0 0 0 0 1

Total # of neighbors = 607
Ave neighs/atom = 0.48521183
Neighbor list builds = 164
Dangerous builds = 0
  using 1 OpenMP thread(s) per MPI task
Lattice spacing in x,y,z = 6.03 6.03 6.03
Created orthogonal box = (-2261.25 -100 -100) to (2261.25 100 100)
  2 by 1 by 1 MPI processor grid
Created 750 atoms
  using lattice units in orthogonal box = (-2261.25 -100 -100) to (2261.25 100 100)
  create_atoms CPU = 0.001 seconds
Lattice spacing in x,y,z = 3 3 3
Created 501 atoms
  using lattice units in orthogonal box = (-2261.25 -100 -100) to (2261.25 100 100)
  create_atoms CPU = 0.001 seconds
Setting atom values ...
  750 settings made for diameter
Setting atom values ...
  750 settings made for mass
Setting atom values ...
  501 settings made for diameter
Setting atom values ...
  501 settings made for mass
750 atoms in group substrate
501 atoms in group slider1
  1 rigid bodies with 501 atoms
Generated 0 of 1 mixed pair_coeff terms from geometric mixing rule
Neighbor list info ...
  update every 1 steps, delay 0 steps, check yes
  max neighbors/atom: 2000, page size: 100000
  master list distance cutoff = 3.1
  ghost atom cutoff = 3.1
  binsize = 1.55, bins = 2918 130 130
  1 neighbor lists, perpetual/occasional/extra = 1 0 0
  (1) pair granular, perpetual
      attributes: half, newton on, size, history
      pair build: half/size/bin/newton
      stencil: half/bin/3d
      bin: standard
Setting up Verlet run ...
  Unit style    : micro
  Current step  : 0
  Time step     : 1e-05
Per MPI rank memory allocation (min/avg/max) = 114.6 | 114.6 | 114.6 Mbytes
   Step           Lx             Ly             Lz           Press           Pxx            Pyy            Pzz           KinEng         PotEng          Temp          c_1[1]         c_1[2]         c_1[3]    
         0   4522.5         200            200            0              0              0              0              0              0              0              0              0              6            
    100000   4522.5         200            200            0.00224108     1.0465817e-37  0              0.00672324     291035.27      0              5.6212207e+10  0              0              3.3295249    
    200000   4522.5         200            200            0.00077411129 -2.7908843e-37  0              0.0023223339   68147.323      0              1.3162361e+10  0              0              3.0795825    
    300000   4522.5         200            200            2.0751638e-05  2.1639987e-42  0              6.2254913e-05  106.19902      0              20511882       0              0              3.0451977    
    400000   4522.5         200            200            6.2719579e-05  3.488606e-38   0              0.00018815874  922.58747      0              1.7819379e+08  0              0              3.0046564    
    500000   4522.5         200            200            0.0057675604   0.0021529002   0              0.015149781    388.37683      0              75013308       0              0              2.9928983    
    600000   4522.5         200            200            0.0019408482   0.00057014146  0              0.005252403    0.42442744     0              81976.328      0              0              2.9958359    
    700000   4522.5         200            200            0.0034322708   0.00089543106  0              0.0094013813   2.1968252      0              424307.3       0              0              2.9944208    
    800000   4522.5         200            200            0.0029092574   0.00083287344  0              0.0078948989   0.25064999     0              48411.965      0              0              2.9948968    
    900000   4522.5         200            200            0.0030977773   0.00084691337  0              0.0084464184   0.021164842    0              4087.8979      0              0              2.9947173    
   1000000   4522.5         200            200            0.0030262458   0.00084189826  0              0.0082368392   0.0015061348   0              290.90343      0              0              2.9947848    
   1100000   4522.5         200            200            0.0030530399   0.00084381534  0              0.0083153042   7.8762712e-05  0              15.212678      0              0              2.9947595    
   1200000   4522.5         200            200            0.0030430552   0.00084310792  0              0.0082860576   1.5739025e-06  0              0.30399247     0              0              2.9947689    
   1300000   4522.5         200            200            0.003046748    0.00084336998  0              0.008296874    7.8057897e-08  0              0.015076546    0              0              2.9947654    
   1400000   4522.5         200            200            0.0030453909   0.00084327392  0              0.0082928988   1.4000734e-07  0              0.027041814    0              0              2.9947667    
   1500000   4522.5         200            200            0.0030458863   0.00084330895  0              0.0082943498   5.5891301e-08  0              0.010795164    0              0              2.9947662    
   1600000   4522.5         200            200            0.0030457067   0.00084329627  0              0.0082938237   1.5045555e-08  0              0.0029059839   0              0              2.9947664    
   1700000   4522.5         200            200            0.0030457713   0.00084330083  0              0.0082940132   3.3560085e-09  0              0.00064819856  0              0              2.9947663    
   1800000   4522.5         200            200            0.0030457482   0.0008432992   0              0.0082939454   6.6941755e-10  0              0.00012929511  0              0              2.9947664    
   1900000   4522.5         200            200            0.0030457564   0.00084329978  0              0.0082939695   1.2387976e-10  0              2.3926842e-05  0              0              2.9947664    
   2000000   4522.5         200            200            0.0030457535   0.00084329957  0              0.008293961    2.1710721e-11  0              4.193332e-06   0              0              2.9947664    
   2100000   4522.5         200            200            0.0030457545   0.00084329965  0              0.008293964    3.6475832e-12  0              7.0451496e-07  0              0              2.9947664    
   2200000   4522.5         200            200            0.0030457542   0.00084329962  0              0.0082939629   5.9319055e-13  0              1.145722e-07   0              0              2.9947664    
   2300000   4522.5         200            200            0.0030457543   0.00084329963  0              0.0082939633   9.3442059e-14  0              1.8047931e-08  0              0              2.9947664    
   2400000   4522.5         200            200            0.0030457543   0.00084329963  0              0.0082939632   1.4490868e-14  0              2.7988486e-09  0              0              2.9947664    
   2500000   4522.5         200            200            0.0030457543   0.00084329963  0              0.0082939632   2.217036e-15   0              4.2821094e-10  0              0              2.9947664    
   2600000   4522.5         200            200            0.0030457543   0.00084329963  0              0.0082939632   3.3319757e-16  0              6.4355673e-11  0              0              2.9947664    
   2700000   4522.5         200            200            0.0030457543   0.00084329963  0              0.0082939632   4.6525655e-17  0              8.9862294e-12  0              0              2.9947664    
   2800000   4522.5         200            200            0.0030457543   0.00084329963  0              0.0082939632   6.4427591e-18  0              1.2443911e-12  0              0              2.9947664    
   2900000   4522.5         200            200            0.0030457543   0.00084329963  0              0.0082939632   1.2327996e-18  0              2.3810992e-13  0              0              2.9947664    
   3000000   4522.5         200            200            0.0030457543   0.00084329963  0              0.0082939632   3.4988326e-19  0              6.7578442e-14  0              0              2.9947664    
Loop time of 187.315 on 2 procs for 3000000 steps with 1251 atoms

Performance: 13837665.197 ns/day, 0.000 hours/ns, 16015.816 timesteps/s
99.9% CPU use with 2 MPI tasks x 1 OpenMP threads

MPI task timing breakdown:
Section |  min time  |  avg time  |  max time  |%varavg| %total
---------------------------------------------------------------
Pair    | 40.471     | 40.736     | 41.001     |   4.1 | 21.75
Neigh   | 5.6705     | 5.6705     | 5.6706     |   0.0 |  3.03
Comm    | 17.959     | 18.087     | 18.216     |   3.0 |  9.66
Output  | 0.21809    | 0.21815    | 0.21821    |   0.0 |  0.12
Modify  | 109.52     | 109.65     | 109.78     |   1.3 | 58.54
Other   |            | 12.95      |            |       |  6.91

Nlocal:          625.5 ave         626 max         625 min
Histogram: 1 0 0 0 0 0 0 0 0 1
Nghost:            2.5 ave           3 max           2 min
Histogram: 1 0 0 0 0 0 0 0 0 1
Neighs:          327.5 ave         328 max         327 min
Histogram: 1 0 0 0 0 0 0 0 0 1

Total # of neighbors = 655
Ave neighs/atom = 0.52358114
Neighbor list builds = 164
Dangerous builds = 0
  using 1 OpenMP thread(s) per MPI task
Lattice spacing in x,y,z = 6.04 6.04 6.04
Created orthogonal box = (-2265 -100 -100) to (2265 100 100)
  2 by 1 by 1 MPI processor grid
Created 750 atoms
  using lattice units in orthogonal box = (-2265 -100 -100) to (2265 100 100)
  create_atoms CPU = 0.001 seconds
Lattice spacing in x,y,z = 3 3 3
Created 501 atoms
  using lattice units in orthogonal box = (-2265 -100 -100) to (2265 100 100)
  create_atoms CPU = 0.001 seconds
Setting atom values ...
  750 settings made for diameter
Setting atom values ...
  750 settings made for mass
Setting atom values ...
  501 settings made for diameter
Setting atom values ...
  501 settings made for mass
750 atoms in group substrate
501 atoms in group slider1
  1 rigid bodies with 501 atoms
Generated 0 of 1 mixed pair_coeff terms from geometric mixing rule
Neighbor list info ...
  update every 1 steps, delay 0 steps, check yes
  max neighbors/atom: 2000, page size: 100000
  master list distance cutoff = 3.1
  ghost atom cutoff = 3.1
  binsize = 1.55, bins = 2923 130 130
  1 neighbor lists, perpetual/occasional/extra = 1 0 0
  (1) pair granular, perpetual
      attributes: half, newton on, size, history
      pair build: half/size/bin/newton
      stencil: half/bin/3d
      bin: standard
Setting up Verlet run ...
  Unit style    : micro
  Current step  : 0
  Time step     : 1e-05
Per MPI rank memory allocation (min/avg/max) = 114.8 | 114.8 | 114.8 Mbytes
   Step           Lx             Ly             Lz           Press           Pxx            Pyy            Pzz           KinEng         PotEng          Temp          c_1[1]         c_1[2]         c_1[3]    
         0   4530           200            200            0              0              0              0              0              0              0              0              0              6            
    100000   4530           200            200            0.0022266975   1.7998383e-41  0              0.0066800925   288961.08      0              5.5811585e+10  0              0              3.3327445    
    200000   4530           200            200            0.00074787936 -2.2290005e-36  0              0.0022436381   64727.448      0              1.2501827e+10  0              0              3.0850456    
    300000   4530           200            200           -1.6452756e-05 -2.7862601e-37  0             -4.9358267e-05  71.014849      0              13716212       0              0              3.0434134    
    400000   4530           200            200           -3.0166259e-05 -5.5725239e-37  0             -9.0498778e-05  252.97849      0              48861703       0              0              3.0048108    
    500000   4530           200            200            0.0034071087   0.0011002415   0              0.0091210846   696.70885      0              1.3456631e+08  0              0              2.9936045    
    600000   4530           200            200            0.0020854431   0.00055469221  0              0.0057016369   13.622068      0              2631043.6      0              0              2.9949756    
    700000   4530           200            200            0.0030073429   0.00073364579  0              0.008288383    12.665563      0              2446298.7      0              0              2.9939662    
    800000   4530           200            200            0.0031247717   0.00076251432  0              0.0086118009   0.46049848     0              88943.294      0              0              2.9938386    
    900000   4530           200            200            0.002967603    0.00075254324  0              0.0081502658   0.049481532    0              9557.1444      0              0              2.9940091    
   1000000   4530           200            200            0.0030124648   0.00075547943  0              0.008281915    0.031053055    0              5997.7635      0              0              2.9939612    
   1100000   4530           200            200            0.0030165173   0.00075577076  0              0.0082937811   0.0013956846   0              269.57045      0              0              2.9939564    
   1200000   4530           200            200            0.0030089017   0.00075527084  0              0.0082714343   9.0313971e-05  0              17.443754      0              0              2.9939647    
   1300000   4530           200            200            0.0030112729   0.00075542342  0              0.0082783954   7.5478215e-05  0              14.578291      0              0              2.9939621    
   1400000   4530           200            200            0.0030113937   0.00075543269  0              0.0082787483   4.1761926e-06  0              0.80661358     0              0              2.993962     
   1500000   4530           200            200            0.003011027    0.00075540854  0              0.0082776724   1.530301e-07   0              0.029557103    0              0              2.9939624    
   1600000   4530           200            200            0.0030111511   0.00075541654  0              0.0082780369   1.8147168e-07  0              0.035050471    0              0              2.9939623    
   1700000   4530           200            200            0.0030111531   0.00075541674  0              0.0082780427   1.2169824e-08  0              0.002350549    0              0              2.9939623    
   1800000   4530           200            200            0.0030111356   0.00075541558  0              0.0082779912   2.3432736e-10  0              4.5259319e-05  0              0              2.9939623    
   1900000   4530           200            200            0.003011142    0.000755416    0              0.0082780101   4.3143867e-10  0              8.3330517e-05  0              0              2.9939623    
   2000000   4530           200            200            0.0030111419   0.00075541599  0              0.0082780098   3.4664672e-11  0              6.6953318e-06  0              0              2.9939623    
   2100000   4530           200            200            0.0030111411   0.00075541594  0              0.0082780074   3.0443883e-13  0              5.8801047e-08  0              0              2.9939623    
   2200000   4530           200            200            0.0030111414   0.00075541596  0              0.0082780084   1.0139307e-12  0              1.9583635e-07  0              0              2.9939623    
   2300000   4530           200            200            0.0030111414   0.00075541596  0              0.0082780083   9.6905236e-14  0              1.8716828e-08  0              0              2.9939623    
   2400000   4530           200            200            0.0030111414   0.00075541596  0              0.0082780082   2.8875621e-16  0              5.5772015e-11  0              0              2.9939623    
   2500000   4530           200            200            0.0030111414   0.00075541596  0              0.0082780083   2.3976781e-15  0              4.6310118e-10  0              0              2.9939623    
   2600000   4530           200            200            0.0030111414   0.00075541596  0              0.0082780083   2.4171346e-16  0              4.6685912e-11  0              0              2.9939623    
   2700000   4530           200            200            0.0030111414   0.00075541596  0              0.0082780082   7.3695546e-20  0              1.4233977e-14  0              0              2.9939623    
   2800000   4530           200            200            0.0030111414   0.00075541596  0              0.0082780082   4.0366899e-18  0              7.7966924e-13  0              0              2.9939623    
   2900000   4530           200            200            0.0030111414   0.00075541596  0              0.0082780082   3.4224021e-18  0              6.610222e-13   0              0              2.9939623    
   3000000   4530           200            200            0.0030111414   0.00075541596  0              0.0082780082   1.8333943e-18  0              3.5411221e-13  0              0              2.9939623    
Loop time of 190.881 on 2 procs for 3000000 steps with 1251 atoms

Performance: 13579130.653 ns/day, 0.000 hours/ns, 15716.586 timesteps/s
99.9% CPU use with 2 MPI tasks x 1 OpenMP threads

MPI task timing breakdown:
Section |  min time  |  avg time  |  max time  |%varavg| %total
---------------------------------------------------------------
Pair    | 42.225     | 42.284     | 42.343     |   0.9 | 22.15
Neigh   | 5.8165     | 5.8171     | 5.8177     |   0.0 |  3.05
Comm    | 18.586     | 18.607     | 18.627     |   0.5 |  9.75
Output  | 0.21209    | 0.21217    | 0.21225    |   0.0 |  0.11
Modify  | 109.99     | 110.56     | 111.12     |   5.4 | 57.92
Other   |            | 13.41      |            |       |  7.02

Nlocal:          625.5 ave         626 max         625 min
Histogram: 1 0 0 0 0 0 0 0 0 1
Nghost:            2.5 ave           3 max           2 min
Histogram: 1 0 0 0 0 0 0 0 0 1
Neighs:          308.5 ave         309 max         308 min
Histogram: 1 0 0 0 0 0 0 0 0 1

Total # of neighbors = 617
Ave neighs/atom = 0.49320544
Neighbor list builds = 166
Dangerous builds = 0
  using 1 OpenMP thread(s) per MPI task
Lattice spacing in x,y,z = 6.05 6.05 6.05
Created orthogonal box = (-2268.75 -100 -100) to (2268.75 100 100)
  2 by 1 by 1 MPI processor grid
Created 750 atoms
  using lattice units in orthogonal box = (-2268.75 -100 -100) to (2268.75 100 100)
  create_atoms CPU = 0.001 seconds
Lattice spacing in x,y,z = 3 3 3
Created 501 atoms
  using lattice units in orthogonal box = (-2268.75 -100 -100) to (2268.75 100 100)
  create_atoms CPU = 0.000 seconds
Setting atom values ...
  750 settings made for diameter
Setting atom values ...
  750 settings made for mass
Setting atom values ...
  501 settings made for diameter
Setting atom values ...
  501 settings made for mass
750 atoms in group substrate
501 atoms in group slider1
  1 rigid bodies with 501 atoms
Generated 0 of 1 mixed pair_coeff terms from geometric mixing rule
Neighbor list info ...
  update every 1 steps, delay 0 steps, check yes
  max neighbors/atom: 2000, page size: 100000
  master list distance cutoff = 3.1
  ghost atom cutoff = 3.1
  binsize = 1.55, bins = 2928 130 130
  1 neighbor lists, perpetual/occasional/extra = 1 0 0
  (1) pair granular, perpetual
      attributes: half, newton on, size, history
      pair build: half/size/bin/newton
      stencil: half/bin/3d
      bin: standard
Setting up Verlet run ...
  Unit style    : micro
  Current step  : 0
  Time step     : 1e-05
Per MPI rank memory allocation (min/avg/max) = 115 | 115 | 115 Mbytes
   Step           Lx             Ly             Lz           Press           Pxx            Pyy            Pzz           KinEng         PotEng          Temp          c_1[1]         c_1[2]         c_1[3]    
         0   4537.5         200            200            0              0              0              0              0              0              0              0              0              6            
    100000   4537.5         200            200            0.0022309543   5.5633331e-37  0              0.0066928629   290477.84      0              5.610454e+10   0              0              3.3308021    
    200000   4537.5         200            200            0.00076528039  6.6759943e-36  0              0.0022958412   67270.101      0              1.299293e+10   0              0              3.0814636    
    300000   4537.5         200            200            1.4224915e-05 -2.2253239e-36  0              4.2674745e-05  50.942666      0              9839356        0              0              3.0452377    
    400000   4537.5         200            200            5.5398858e-05 -3.4770726e-38  0              0.00016619657  733.15722      0              1.4160615e+08  0              0              3.0050293    
    500000   4537.5         200            200            0.005726171    0.0013071405   0              0.015871372    306.52287      0              59203569       0              0              2.9927111    
    600000   4537.5         200            200            0.0018410623   0.00033534267  0              0.0051878444   0.0067119628   0              1296.3866      0              0              2.9958405    
    700000   4537.5         200            200            0.0030698523   0.0005520801   0              0.0086574768   12.233742      0              2362894.6      0              0              2.99465      
    800000   4537.5         200            200            0.0030652661   0.00053360116  0              0.0086621972   0.39427356     0              76152.236      0              0              2.9946559    
    900000   4537.5         200            200            0.0029022322   0.00052620738  0              0.0081804893   0.17724816     0              34234.717      0              0              2.9948054    
   1000000   4537.5         200            200            0.0029152973   0.00052690184  0              0.0082189902   0.012499493    0              2414.2231      0              0              2.9947923    
   1100000   4537.5         200            200            0.0029363793   0.00052791307  0              0.0082812248   0.0024819545   0              479.37881      0              0              2.9947729    
   1200000   4537.5         200            200            0.0029332773   0.00052775832  0              0.0082720735   0.00033455302  0              64.617471      0              0              2.9947759    
   1300000   4537.5         200            200            0.0029306265   0.00052763244  0              0.0082642472   3.0956717e-05  0              5.9791562      0              0              2.9947784    
   1400000   4537.5         200            200            0.0029312144   0.00052766146  0              0.0082659819   7.9807696e-06  0              1.5414512      0              0              2.9947778    
   1500000   4537.5         200            200            0.0029315351   0.00052767663  0              0.0082669287   3.2695201e-07  0              0.063149371    0              0              2.9947775    
   1600000   4537.5         200            200            0.0029314353   0.00052767175  0              0.0082666341   1.7477328e-07  0              0.033756705    0              0              2.9947776    
   1700000   4537.5         200            200            0.0029313983   0.00052767001  0              0.0082665249   2.563023e-09   0              0.00049503682  0              0              2.9947776    
   1800000   4537.5         200            200            0.0029314142   0.00052767078  0              0.0082665717   3.5642518e-09  0              0.00068841985  0              0              2.9947776    
   1900000   4537.5         200            200            0.0029314181   0.00052767097  0              0.0082665835   9.2284691e-12  0              1.782439e-06   0              0              2.9947776    
   2000000   4537.5         200            200            0.0029314157   0.00052767085  0              0.0082665764   6.8208267e-11  0              1.3174132e-05  0              0              2.9947776    
   2100000   4537.5         200            200            0.0029314154   0.00052767083  0              0.0082665753   1.3358683e-14  0              2.5801719e-09  0              0              2.9947776    
   2200000   4537.5         200            200            0.0029314157   0.00052767085  0              0.0082665763   1.2284503e-12  0              2.3726988e-07  0              0              2.9947776    
   2300000   4537.5         200            200            0.0029314157   0.00052767085  0              0.0082665764   7.354352e-15   0              1.4204614e-09  0              0              2.9947776    
   2400000   4537.5         200            200            0.0029314157   0.00052767085  0              0.0082665762   2.0749732e-14  0              4.0077212e-09  0              0              2.9947776    
   2500000   4537.5         200            200            0.0029314157   0.00052767085  0              0.0082665762   4.8793081e-16  0              9.424173e-11   0              0              2.9947776    
   2600000   4537.5         200            200            0.0029314157   0.00052767085  0              0.0082665762   3.0789111e-16  0              5.9467839e-11  0              0              2.9947776    
   2700000   4537.5         200            200            0.0029314157   0.00052767085  0              0.0082665762   1.6708274e-17  0              3.227131e-12   0              0              2.9947776    
   2800000   4537.5         200            200            0.0029314157   0.00052767085  0              0.0082665762   4.3446328e-18  0              8.3914707e-13  0              0              2.9947776    
   2900000   4537.5         200            200            0.0029314157   0.00052767085  0              0.0082665762   3.2676765e-18  0              6.3113762e-13  0              0              2.9947776    
   3000000   4537.5         200            200            0.0029314157   0.00052767085  0              0.0082665762   2.6810945e-18  0              5.1784184e-13  0              0              2.9947776    
Loop time of 187.353 on 2 procs for 3000000 steps with 1251 atoms

Performance: 13834844.210 ns/day, 0.000 hours/ns, 16012.551 timesteps/s
99.9% CPU use with 2 MPI tasks x 1 OpenMP threads

MPI task timing breakdown:
Section |  min time  |  avg time  |  max time  |%varavg| %total
---------------------------------------------------------------
Pair    | 40.678     | 40.99      | 41.303     |   4.9 | 21.88
Neigh   | 5.7818     | 5.7826     | 5.7833     |   0.0 |  3.09
Comm    | 17.979     | 18.166     | 18.353     |   4.4 |  9.70
Output  | 0.2112     | 0.21126    | 0.21132    |   0.0 |  0.11
Modify  | 109.25     | 109.25     | 109.26     |   0.0 | 58.31
Other   |            | 12.95      |            |       |  6.91

Nlocal:          625.5 ave         626 max         625 min
Histogram: 1 0 0 0 0 0 0 0 0 1
Nghost:            2.5 ave           3 max           2 min
Histogram: 1 0 0 0 0 0 0 0 0 1
Neighs:          316.5 ave         317 max         316 min
Histogram: 1 0 0 0 0 0 0 0 0 1

Total # of neighbors = 633
Ave neighs/atom = 0.5059952
Neighbor list builds = 166
Dangerous builds = 0
  using 1 OpenMP thread(s) per MPI task
Lattice spacing in x,y,z = 6.06 6.06 6.06
Created orthogonal box = (-2272.5 -100 -100) to (2272.5 100 100)
  2 by 1 by 1 MPI processor grid
Created 750 atoms
  using lattice units in orthogonal box = (-2272.5 -100 -100) to (2272.5 100 100)
  create_atoms CPU = 0.001 seconds
Lattice spacing in x,y,z = 3 3 3
Created 501 atoms
  using lattice units in orthogonal box = (-2272.5 -100 -100) to (2272.5 100 100)
  create_atoms CPU = 0.001 seconds
Setting atom values ...
  750 settings made for diameter
Setting atom values ...
  750 settings made for mass
Setting atom values ...
  501 settings made for diameter
Setting atom values ...
  501 settings made for mass
750 atoms in group substrate
501 atoms in group slider1
  1 rigid bodies with 501 atoms
Generated 0 of 1 mixed pair_coeff terms from geometric mixing rule
Neighbor list info ...
  update every 1 steps, delay 0 steps, check yes
  max neighbors/atom: 2000, page size: 100000
  master list distance cutoff = 3.1
  ghost atom cutoff = 3.1
  binsize = 1.55, bins = 2933 130 130
  1 neighbor lists, perpetual/occasional/extra = 1 0 0
  (1) pair granular, perpetual
      attributes: half, newton on, size, history
      pair build: half/size/bin/newton
      stencil: half/bin/3d
      bin: standard
Setting up Verlet run ...
  Unit style    : micro
  Current step  : 0
  Time step     : 1e-05
Per MPI rank memory allocation (min/avg/max) = 115.2 | 115.2 | 115.2 Mbytes
   Step           Lx             Ly             Lz           Press           Pxx            Pyy            Pzz           KinEng         PotEng          Temp          c_1[1]         c_1[2]         c_1[3]    
         0   4545           200            200            0              0              0              0              0              0              0              0              0              6            
    100000   4545           200            200            0.0022233681  -5.5541333e-37  0              0.0066701042   289744.34      0              5.5962869e+10  0              0              3.3315286    
    200000   4545           200            200            0.00075479609 -2.2216467e-36  0              0.0022643883   66011.589      0              1.2749854e+10  0              0              3.0830041    
    300000   4545           200            200           -2.5359436e-06  1.11083e-36    0             -7.6078308e-06  1.5910674      0              307307.81      0              0              3.0442508    
    400000   4545           200            200            4.1221453e-06  6.942671e-37   0              1.2366436e-05  4.5719774      0              883057.71      0              0              3.0057592    
    500000   4545           200            200            0.00060178548  5.9467034e-05  0              0.0017458894   42.082207      0              8127996.6      0              0              2.9973625    
    600000   4545           200            200            0.0032396036   0.00055388501  0              0.0091649259   88.858059      0              17162551       0              0              2.9939213    
    700000   4545           200            200            0.0032996996   0.00050194553  0              0.0093971531   0.2287965      0              44191.057      0              0              2.9938638    
    800000   4545           200            200            0.0030443216   0.00046796007  0              0.0086650047   0.037831111    0              7306.9157      0              0              2.9941024    
    900000   4545           200            200            0.0029514666   0.00045663203  0              0.0083977677   0.017997774    0              3476.1924      0              0              2.9941918    
   1000000   4545           200            200            0.0029194345   0.00045515439  0              0.008303149    0.0046157564   0              891.51344      0              0              2.9942239    
   1100000   4545           200            200            0.002908053    0.00045464656  0              0.0082695125   0.0009867637   0              190.58915      0              0              2.9942353    
   1200000   4545           200            200            0.002904046    0.0004544645   0              0.0082576736   0.00018979414  0              36.657919      0              0              2.9942393    
   1300000   4545           200            200            0.0029026542   0.00045440097  0              0.0082535616   3.3929041e-05  0              6.5532479      0              0              2.9942407    
   1400000   4545           200            200            0.0029021782   0.00045437926  0              0.0082521554   5.7400607e-06  0              1.108668       0              0              2.9942412    
   1500000   4545           200            200            0.0029020184   0.00045437198  0              0.0082516832   9.2932471e-07  0              0.17949506     0              0              2.9942413    
   1600000   4545           200            200            0.0029019659   0.00045436961  0              0.0082515281   1.4504479e-07  0              0.028014776    0              0              2.9942414    
   1700000   4545           200            200            0.0029019491   0.00045436885  0              0.0082514785   2.1931735e-08  0              0.00423602     0              0              2.9942414    
   1800000   4545           200            200            0.002901944    0.00045436862  0              0.0082514633   3.223664e-09   0              0.00062263679  0              0              2.9942414    
   1900000   4545           200            200            0.0029019424   0.00045436855  0              0.0082514588   4.6166447e-10  0              8.9168501e-05  0              0              2.9942414    
   2000000   4545           200            200            0.002901942    0.00045436854  0              0.0082514576   6.4515745e-11  0              1.2460938e-05  0              0              2.9942414    
   2100000   4545           200            200            0.002901942    0.00045436853  0              0.0082514573   8.8034663e-12  0              1.7003515e-06  0              0              2.9942414    
   2200000   4545           200            200            0.0029019419   0.00045436853  0              0.0082514573   1.1737157e-12  0              2.2669813e-07  0              0              2.9942414    
   2300000   4545           200            200            0.0029019419   0.00045436853  0              0.0082514573   1.5271624e-13  0              2.9496482e-08  0              0              2.9942414    
   2400000   4545           200            200            0.0029019419   0.00045436853  0              0.0082514573   1.942632e-14   0              3.7521098e-09  0              0              2.9942414    
   2500000   4545           200            200            0.0029019419   0.00045436853  0              0.0082514573   2.3538036e-15  0              4.54627e-10    0              0              2.9942414    
   2600000   4545           200            200            0.002901942    0.00045436853  0              0.0082514573   2.8192696e-16  0              5.4452976e-11  0              0              2.9942414    
   2700000   4545           200            200            0.002901942    0.00045436853  0              0.0082514573   3.5980957e-17  0              6.9495665e-12  0              0              2.9942414    
   2800000   4545           200            200            0.002901942    0.00045436853  0              0.0082514573   4.2021211e-18  0              8.1162156e-13  0              0              2.9942414    
   2900000   4545           200            200            0.002901942    0.00045436853  0              0.0082514573   2.9726724e-19  0              5.7415884e-14  0              0              2.9942414    
   3000000   4545           200            200            0.002901942    0.00045436853  0              0.0082514573   3.5561538e-18  0              6.8685576e-13  0              0              2.9942414    
Loop time of 187.966 on 2 procs for 3000000 steps with 1251 atoms

Performance: 13789703.616 ns/day, 0.000 hours/ns, 15960.305 timesteps/s
99.9% CPU use with 2 MPI tasks x 1 OpenMP threads

MPI task timing breakdown:
Section |  min time  |  avg time  |  max time  |%varavg| %total
---------------------------------------------------------------
Pair    | 39.452     | 39.464     | 39.476     |   0.2 | 21.00
Neigh   | 5.8355     | 5.8356     | 5.8357     |   0.0 |  3.10
Comm    | 18.907     | 19.011     | 19.116     |   2.4 | 10.11
Output  | 0.2141     | 0.21415    | 0.21421    |   0.0 |  0.11
Modify  | 109.6      | 110.11     | 110.62     |   4.9 | 58.58
Other   |            | 13.33      |            |       |  7.09

Nlocal:          625.5 ave         626 max         625 min
Histogram: 1 0 0 0 0 0 0 0 0 1
Nghost:            2.5 ave           3 max           2 min
Histogram: 1 0 0 0 0 0 0 0 0 1
Neighs:          317.5 ave         318 max         317 min
Histogram: 1 0 0 0 0 0 0 0 0 1

Total # of neighbors = 635
Ave neighs/atom = 0.50759392
Neighbor list builds = 166
Dangerous builds = 0
  using 1 OpenMP thread(s) per MPI task
Lattice spacing in x,y,z = 6.07 6.07 6.07
Created orthogonal box = (-2276.25 -100 -100) to (2276.25 100 100)
  2 by 1 by 1 MPI processor grid
Created 750 atoms
  using lattice units in orthogonal box = (-2276.25 -100 -100) to (2276.25 100 100)
  create_atoms CPU = 0.001 seconds
Lattice spacing in x,y,z = 3 3 3
Created 501 atoms
  using lattice units in orthogonal box = (-2276.25 -100 -100) to (2276.25 100 100)
  create_atoms CPU = 0.000 seconds
Setting atom values ...
  750 settings made for diameter
Setting atom values ...
  750 settings made for mass
Setting atom values ...
  501 settings made for diameter
Setting atom values ...
  501 settings made for mass
750 atoms in group substrate
501 atoms in group slider1
  1 rigid bodies with 501 atoms
Generated 0 of 1 mixed pair_coeff terms from geometric mixing rule
Neighbor list info ...
  update every 1 steps, delay 0 steps, check yes
  max neighbors/atom: 2000, page size: 100000
  master list distance cutoff = 3.1
  ghost atom cutoff = 3.1
  binsize = 1.55, bins = 2938 130 130
  1 neighbor lists, perpetual/occasional/extra = 1 0 0
  (1) pair granular, perpetual
      attributes: half, newton on, size, history
      pair build: half/size/bin/newton
      stencil: half/bin/3d
      bin: standard
Setting up Verlet run ...
  Unit style    : micro
  Current step  : 0
  Time step     : 1e-05
Per MPI rank memory allocation (min/avg/max) = 115.3 | 115.3 | 115.3 Mbytes
   Step           Lx             Ly             Lz           Press           Pxx            Pyy            Pzz           KinEng         PotEng          Temp          c_1[1]         c_1[2]         c_1[3]    
         0   4552.5         200            200            0              0              0              0              0              0              0              0              0              6            
    100000   4552.5         200            200            0.0022148282  -4.4359614e-36  0              0.0066444846   288809.1       0              5.5782232e+10  0              0              3.332735     
    200000   4552.5         200            200            0.00074146484 -2.217993e-36   0              0.0022243945   64360.314      0              1.2430917e+10  0              0              3.0854513    
    300000   4552.5         200            200           -2.1918296e-05  1.0396849e-36  0             -6.5754887e-05  128.97202      0              24910389       0              0              3.0429692    
    400000   4552.5         200            200           -4.4839789e-05  3.9743027e-40  0             -0.00013451937  584.15196      0              1.1282643e+08  0              0              3.0039427    
    500000   4552.5         200            200            0.0052705206  -0.00065543716  0              0.016466999    86.590163      0              16724516       0              0              2.991218     
    600000   4552.5         200            200            0.0035981772  -0.0001861941   0              0.010980726    13.793849      0              2664222.4      0              0              2.9928356    
    700000   4552.5         200            200            0.0029090782  -8.4476699e-05  0              0.0088117112   8.6358959      0              1667986        0              0              2.9935914    
    800000   4552.5         200            200            0.0027137675  -5.731314e-05   0              0.0081986156   1.6743517      0              323393.81      0              0              2.9938246    
    900000   4552.5         200            200            0.0026942803  -4.7412842e-05  0              0.0081302538   0.098280938    0              18982.539      0              0              2.9938529    
   1000000   4552.5         200            200            0.0027104922  -5.3881691e-05  0              0.0081853582   0.0001250324   0              24.149469      0              0              2.9938326    
   1100000   4552.5         200            200            0.0027235612  -5.3616743e-05  0              0.0082243003   0.0023378015   0              451.53627      0              0              2.9938178    
   1200000   4552.5         200            200            0.0027278965  -5.3494562e-05  0              0.0082371842   0.00055959819  0              108.08398      0              0              2.9938128    
   1300000   4552.5         200            200            0.0027283799  -5.3479096e-05  0              0.0082386187   3.3321741e-05  0              6.4359504      0              0              2.9938123    
   1400000   4552.5         200            200            0.0027280449  -5.3488769e-05  0              0.0082376234   3.7443068e-08  0              0.0072319669   0              0              2.9938126    
   1500000   4552.5         200            200            0.0027278053  -5.3495842e-05  0              0.0082369118   7.7566748e-07  0              0.14981683     0              0              2.9938129    
   1600000   4552.5         200            200            0.002727726   -5.3498215e-05  0              0.0082366761   1.8668824e-07  0              0.036058029    0              0              2.993813     
   1700000   4552.5         200            200            0.002727717   -5.3498497e-05  0              0.0082366496   1.119065e-08   0              0.0021614258   0              0              2.993813     
   1800000   4552.5         200            200            0.0027277231  -5.3498324e-05  0              0.0082366677   1.1221197e-11  0              2.1673257e-06  0              0              2.993813     
   1900000   4552.5         200            200            0.0027277275  -5.3498195e-05  0              0.0082366807   2.5723345e-10  0              4.968353e-05   0              0              2.993813     
   2000000   4552.5         200            200            0.0027277289  -5.3498152e-05  0              0.008236685    6.2277483e-11  0              1.2028627e-05  0              0              2.993813     
   2100000   4552.5         200            200            0.0027277291  -5.3498147e-05  0              0.0082366855   3.759246e-12   0              7.2608214e-07  0              0              2.993813     
   2200000   4552.5         200            200            0.002727729   -5.349815e-05   0              0.0082366851   3.3165677e-15  0              6.4058075e-10  0              0              2.993813     
   2300000   4552.5         200            200            0.0027277289  -5.3498152e-05  0              0.0082366849   8.5319427e-14  0              1.6479079e-08  0              0              2.993813     
   2400000   4552.5         200            200            0.0027277289  -5.3498153e-05  0              0.0082366848   2.0803571e-14  0              4.01812e-09    0              0              2.993813     
   2500000   4552.5         200            200            0.0027277289  -5.3498153e-05  0              0.0082366848   1.2745726e-15  0              2.4617821e-10  0              0              2.993813     
   2600000   4552.5         200            200            0.0027277289  -5.3498153e-05  0              0.0082366848   5.2683346e-19  0              1.0175561e-13  0              0              2.993813     
   2700000   4552.5         200            200            0.0027277289  -5.3498153e-05  0              0.0082366848   3.2121536e-17  0              6.2041361e-12  0              0              2.993813     
   2800000   4552.5         200            200            0.0027277289  -5.3498153e-05  0              0.0082366848   6.4519097e-18  0              1.2461585e-12  0              0              2.993813     
   2900000   4552.5         200            200            0.0027277289  -5.3498152e-05  0              0.0082366848   3.4987108e-19  0              6.757609e-14   0              0              2.993813     
   3000000   4552.5         200            200            0.0027277289  -5.3498152e-05  0              0.0082366848   1.1819238e-18  0              2.2828348e-13  0              0              2.993813     
Loop time of 188.404 on 2 procs for 3000000 steps with 1251 atoms

Performance: 13757642.903 ns/day, 0.000 hours/ns, 15923.198 timesteps/s
99.9% CPU use with 2 MPI tasks x 1 OpenMP threads

MPI task timing breakdown:
Section |  min time  |  avg time  |  max time  |%varavg| %total
---------------------------------------------------------------
Pair    | 39.537     | 40.537     | 41.537     |  15.7 | 21.52
Neigh   | 5.7744     | 5.7746     | 5.7749     |   0.0 |  3.07
Comm    | 17.571     | 18.442     | 19.313     |  20.3 |  9.79
Output  | 0.21327    | 0.21333    | 0.2134     |   0.0 |  0.11
Modify  | 110.05     | 110.35     | 110.66     |   2.9 | 58.57
Other   |            | 13.08      |            |       |  6.94

Nlocal:          625.5 ave         626 max         625 min
Histogram: 1 0 0 0 0 0 0 0 0 1
Nghost:            2.5 ave           3 max           2 min
Histogram: 1 0 0 0 0 0 0 0 0 1
Neighs:          312.5 ave         313 max         312 min
Histogram: 1 0 0 0 0 0 0 0 0 1

Total # of neighbors = 625
Ave neighs/atom = 0.49960032
Neighbor list builds = 166
Dangerous builds = 0
  using 1 OpenMP thread(s) per MPI task
Lattice spacing in x,y,z = 6.08 6.08 6.08
Created orthogonal box = (-2280 -100 -100) to (2280 100 100)
  2 by 1 by 1 MPI processor grid
Created 750 atoms
  using lattice units in orthogonal box = (-2280 -100 -100) to (2280 100 100)
  create_atoms CPU = 0.001 seconds
Lattice spacing in x,y,z = 3 3 3
Created 501 atoms
  using lattice units in orthogonal box = (-2280 -100 -100) to (2280 100 100)
  create_atoms CPU = 0.000 seconds
Setting atom values ...
  750 settings made for diameter
Setting atom values ...
  750 settings made for mass
Setting atom values ...
  501 settings made for diameter
Setting atom values ...
  501 settings made for mass
750 atoms in group substrate
501 atoms in group slider1
  1 rigid bodies with 501 atoms
Generated 0 of 1 mixed pair_coeff terms from geometric mixing rule
Neighbor list info ...
  update every 1 steps, delay 0 steps, check yes
  max neighbors/atom: 2000, page size: 100000
  master list distance cutoff = 3.1
  ghost atom cutoff = 3.1
  binsize = 1.55, bins = 2942 130 130
  1 neighbor lists, perpetual/occasional/extra = 1 0 0
  (1) pair granular, perpetual
      attributes: half, newton on, size, history
      pair build: half/size/bin/newton
      stencil: half/bin/3d
      bin: standard
Setting up Verlet run ...
  Unit style    : micro
  Current step  : 0
  Time step     : 1e-05
Per MPI rank memory allocation (min/avg/max) = 115.5 | 115.5 | 115.5 Mbytes
   Step           Lx             Ly             Lz           Press           Pxx            Pyy            Pzz           KinEng         PotEng          Temp          c_1[1]         c_1[2]         c_1[3]    
         0   4560           200            200            0              0              0              0              0              0              0              0              0              6            
    100000   4560           200            200            0.0022178584   5.535878e-37   0              0.0066535752   290097.08      0              5.6030998e+10  0              0              3.3309839    
    200000   4560           200            200            0.00075654229  6.919833e-37   0              0.0022696269   66594.739      0              1.2862486e+10  0              0              3.0820737    
    300000   4560           200            200            3.6847134e-06  3.4599166e-38  0              1.105414e-05   3.5999968      0              695323.85      0              0              3.0445638    
    400000   4560           200            200            1.9374357e-05  1.5223633e-36  0              5.8123071e-05  96.741535      0              18685210       0              0              3.0057818    
    500000   4560           200            200            0.0015835207   0.000111996    0              0.0046385661   565.35672      0              1.0919621e+08  0              0              2.9958674    
    600000   4560           200            200            0.0018571032   0.0002336153   0              0.0053376942   0.68512556     0              132329.05      0              0              2.9954932    
    700000   4560           200            200            0.0024867481   0.00032237202  0              0.0071378722   0.42098164     0              81310.787      0              0              2.9947972    
    800000   4560           200            200            0.0027343068   0.00034327489  0              0.0078596455   0.36368279     0              70243.762      0              0              2.9945413    
    900000   4560           200            200            0.0028215759   0.00034625315  0              0.0081184746   0.12039531     0              23253.834      0              0              2.9944515    
   1000000   4560           200            200            0.0028491109   0.00034714182  0              0.0082001909   0.025963314    0              5014.7021      0              0              2.9944232    
   1100000   4560           200            200            0.0028564611   0.00034737733  0              0.0082220061   0.0042990913   0              830.35094      0              0              2.9944155    
   1200000   4560           200            200            0.0028578647   0.00034742352  0              0.0082261705   0.00057541642  0              111.1392       0              0              2.994414     
   1300000   4560           200            200            0.0028578511   0.00034742408  0              0.0082261292   6.2144577e-05  0              12.002957      0              0              2.994414     
   1400000   4560           200            200            0.0028576521   0.00034741825  0              0.008225538    5.1127483e-06  0              0.98750527     0              0              2.9944142    
   1500000   4560           200            200            0.002857515    0.0003474141   0              0.008225131    2.632662e-07   0              0.050848731    0              0              2.9944143    
   1600000   4560           200            200            0.0028574463   0.00034741199  0              0.0082249268   2.768661e-09   0              0.00053475493  0              0              2.9944144    
   1700000   4560           200            200            0.0028574168   0.00034741108  0              0.0082248393   1.0626985e-09  0              0.00020525563  0              0              2.9944144    
   1800000   4560           200            200            0.0028574055   0.00034741073  0              0.0082248058   8.9176964e-10  0              0.00017224146  0              0              2.9944144    
   1900000   4560           200            200            0.0028574016   0.00034741061  0              0.0082247942   2.7022551e-10  0              5.219289e-05   0              0              2.9944144    
   2000000   4560           200            200            0.0028574004   0.00034741057  0              0.0082247907   5.5333534e-11  0              1.0687433e-05  0              0              2.9944144    
   2100000   4560           200            200            0.0028574001   0.00034741056  0              0.0082247898   8.8255733e-12  0              1.7046214e-06  0              0              2.9944144    
   2200000   4560           200            200            0.0028574001   0.00034741056  0              0.0082247896   1.1420592e-12  0              2.205838e-07   0              0              2.9944144    
[...]
   2900000   5227.5         200            200            0.0019474529  -0.0013314035   0              0.0071737621   3.0072095e-18  0              5.8082953e-13  0              0              2.9940792    
   3000000   5227.5         200            200            0.0019474529  -0.0013314035   0              0.0071737621   7.7625092e-19  0              1.4992952e-13  0              0              2.9940792    
Loop time of 188.787 on 2 procs for 3000000 steps with 1251 atoms

Performance: 13729788.529 ns/day, 0.000 hours/ns, 15890.959 timesteps/s
99.9% CPU use with 2 MPI tasks x 1 OpenMP threads

MPI task timing breakdown:
Section |  min time  |  avg time  |  max time  |%varavg| %total
---------------------------------------------------------------
Pair    | 37.38      | 37.461     | 37.542     |   1.3 | 19.84
Neigh   | 6.9239     | 6.9242     | 6.9246     |   0.0 |  3.67
Comm    | 20.369     | 20.391     | 20.412     |   0.5 | 10.80
Output  | 0.21613    | 0.21615    | 0.21618    |   0.0 |  0.11
Modify  | 110.67     | 110.68     | 110.7      |   0.2 | 58.63
Other   |            | 13.11      |            |       |  6.94

Nlocal:          625.5 ave         626 max         625 min
Histogram: 1 0 0 0 0 0 0 0 0 1
Nghost:            2.5 ave           3 max           2 min
Histogram: 1 0 0 0 0 0 0 0 0 1
Neighs:          304.5 ave         305 max         304 min
Histogram: 1 0 0 0 0 0 0 0 0 1

Total # of neighbors = 609
Ave neighs/atom = 0.48681055
Neighbor list builds = 166
Dangerous builds = 0
  using 1 OpenMP thread(s) per MPI task
Lattice spacing in x,y,z = 6.98 6.98 6.98
Created orthogonal box = (-2617.5 -100 -100) to (2617.5 100 100)
  2 by 1 by 1 MPI processor grid
Created 750 atoms
  using lattice units in orthogonal box = (-2617.5 -100 -100) to (2617.5 100 100)
  create_atoms CPU = 0.000 seconds
Lattice spacing in x,y,z = 3 3 3
Created 501 atoms
  using lattice units in orthogonal box = (-2617.5 -100 -100) to (2617.5 100 100)
  create_atoms CPU = 0.000 seconds
Setting atom values ...
  750 settings made for diameter
Setting atom values ...
  750 settings made for mass
Setting atom values ...
  501 settings made for diameter
Setting atom values ...
  501 settings made for mass
750 atoms in group substrate
501 atoms in group slider1
  1 rigid bodies with 501 atoms
Generated 0 of 1 mixed pair_coeff terms from geometric mixing rule
Neighbor list info ...
  update every 1 steps, delay 0 steps, check yes
  max neighbors/atom: 2000, page size: 100000
  master list distance cutoff = 3.1
  ghost atom cutoff = 3.1
  binsize = 1.55, bins = 3378 130 130
  1 neighbor lists, perpetual/occasional/extra = 1 0 0
  (1) pair granular, perpetual
      attributes: half, newton on, size, history
      pair build: half/size/bin/newton
      stencil: half/bin/3d
      bin: standard
Setting up Verlet run ...
  Unit style    : micro
  Current step  : 0
  Time step     : 1e-05
Per MPI rank memory allocation (min/avg/max) = 130.6 | 130.6 | 130.6 Mbytes
   Step           Lx             Ly             Lz           Press           Pxx            Pyy            Pzz           KinEng         PotEng          Temp          c_1[1]         c_1[2]         c_1[3]    
         0   5235           200            200            0              0              0              0              0              0              0              0              0              6            
    100000   5235           200            200            0.001926659    4.822086e-37   0              0.005779977    288893.17      0              5.5798469e+10  0              0              3.3332956    
    200000   5235           200            200            0.00064643689 -4.8220627e-37  0              0.0019393107   64600.386      0              1.2477286e+10  0              0              3.0858336    
    300000   5235           200            200           -1.335485e-05   3.5972472e-43  0             -4.0064551e-05  62.312756      0              12035440       0              0              3.0438893    
    400000   5235           200            200           -1.5116887e-05  6.2566607e-43  0             -4.5350662e-05  82.371382      0              15909677       0              0              3.0055275    
    500000   5235           200            200            0.00056010504  9.9547557e-05  0              0.0015807676   65.837477      0              12716225       0              0              2.9972805    
    600000   5235           200            200            0.0027366627  -0.0013884794   0              0.0095984676   21.365962      0              4126743.3      0              0              2.9933538    
    700000   5235           200            200            0.0022933405  -0.0011299051   0              0.0080099266   3.5705936      0              689644.75      0              0              2.9939461    
    800000   5235           200            200            0.0020491424  -0.0011301403   0              0.0072775675   1.5982312      0              308691.45      0              0              2.9942287    
    900000   5235           200            200            0.0019986657  -0.0011252521   0              0.0071212491   0.21152561     0              40855.258      0              0              2.9942892    
   1000000   5235           200            200            0.0019993501  -0.0011258702   0              0.0071239206   0.0095451327   0              1843.6012      0              0              2.9942874    
   1100000   5235           200            200            0.0020065901  -0.0011265588   0              0.0071463291   2.624893e-05   0              5.0698675      0              0              2.9942783    
   1200000   5235           200            200            0.0020107111  -0.0011269393   0              0.0071590725   0.00026241279  0              50.683898      0              0              2.9942732    
   1300000   5235           200            200            0.0020121378  -0.0011270687   0              0.0071634822   7.6755465e-05  0              14.824987      0              0              2.9942714    
   1400000   5235           200            200            0.0020124133  -0.0011270929   0              0.0071643329   8.5465358e-06  0              1.6507265      0              0              2.9942711    
   1500000   5235           200            200            0.0020123813  -0.0011270896   0              0.0071642334   2.7265065e-07  0              0.052661296    0              0              2.9942712    
   1600000   5235           200            200            0.0020123253  -0.0011270844   0              0.0071640604   8.1550172e-09  0              0.0015751064   0              0              2.9942712    
   1700000   5235           200            200            0.002012297   -0.0011270818   0              0.0071639729   1.5190283e-08  0              0.0029339376   0              0              2.9942713    
   1800000   5235           200            200            0.0020122881  -0.001127081    0              0.0071639452   3.5662983e-09  0              0.00068881512  0              0              2.9942713    
   1900000   5235           200            200            0.0020122867  -0.0011270809   0              0.0071639409   3.3106031e-10  0              6.3942869e-05  0              0              2.9942713    
   2000000   5235           200            200            0.0020122871  -0.0011270809   0              0.0071639421   6.4935335e-12  0              1.254198e-06   0              0              2.9942713    
   2100000   5235           200            200            0.0020122875  -0.001127081    0              0.0071639434   9.4328898e-13  0              1.821922e-07   0              0              2.9942713    
   2200000   5235           200            200            0.0020122877  -0.001127081    0              0.007163944    8.2962146e-13  0              1.602378e-07   0              0              2.9942713    
   2300000   5235           200            200            0.0020122877  -0.001127081    0              0.0071639442   1.6027497e-13  0              3.0956419e-08  0              0              2.9942713    
   2400000   5235           200            200            0.0020122877  -0.001127081    0              0.0071639442   1.2276047e-14  0              2.3710656e-09  0              0              2.9942713    
   2500000   5235           200            200            0.0020122877  -0.001127081    0              0.0071639442   9.1458753e-17  0              1.7664864e-11  0              0              2.9942713    
   2600000   5235           200            200            0.0020122877  -0.001127081    0              0.0071639442   9.5002484e-17  0              1.834932e-11   0              0              2.9942713    
   2700000   5235           200            200            0.0020122877  -0.001127081    0              0.0071639442   4.1166139e-17  0              7.9510621e-12  0              0              2.9942713    
   2800000   5235           200            200            0.0020122877  -0.001127081    0              0.0071639442   6.9526303e-18  0              1.3428705e-12  0              0              2.9942713    
   2900000   5235           200            200            0.0020122877  -0.001127081    0              0.0071639442   1.6494296e-19  0              3.185802e-14   0              0              2.9942713    
   3000000   5235           200            200            0.0020122877  -0.001127081    0              0.0071639442   3.8024085e-18  0              7.3441878e-13  0              0              2.9942713    
Loop time of 187.875 on 2 procs for 3000000 steps with 1251 atoms

Performance: 13796435.311 ns/day, 0.000 hours/ns, 15968.096 timesteps/s
99.9% CPU use with 2 MPI tasks x 1 OpenMP threads

MPI task timing breakdown:
Section |  min time  |  avg time  |  max time  |%varavg| %total
---------------------------------------------------------------
Pair    | 37.645     | 37.739     | 37.834     |   1.5 | 20.09
Neigh   | 6.3295     | 6.3297     | 6.3299     |   0.0 |  3.37
Comm    | 20.038     | 20.047     | 20.055     |   0.2 | 10.67
Output  | 0.21204    | 0.21206    | 0.21209    |   0.0 |  0.11
Modify  | 110.26     | 110.32     | 110.37     |   0.5 | 58.72
Other   |            | 13.23      |            |       |  7.04

Nlocal:          625.5 ave         626 max         625 min
Histogram: 1 0 0 0 0 0 0 0 0 1
Nghost:            2.5 ave           3 max           2 min
Histogram: 1 0 0 0 0 0 0 0 0 1
Neighs:          305.5 ave         306 max         305 min
Histogram: 1 0 0 0 0 0 0 0 0 1

Total # of neighbors = 611
Ave neighs/atom = 0.48840927
Neighbor list builds = 166
Dangerous builds = 0
  using 1 OpenMP thread(s) per MPI task
Lattice spacing in x,y,z = 6.99 6.99 6.99
Created orthogonal box = (-2621.25 -100 -100) to (2621.25 100 100)
  2 by 1 by 1 MPI processor grid
Created 750 atoms
  using lattice units in orthogonal box = (-2621.25 -100 -100) to (2621.25 100 100)
  create_atoms CPU = 0.000 seconds
Lattice spacing in x,y,z = 3 3 3
Created 501 atoms
  using lattice units in orthogonal box = (-2621.25 -100 -100) to (2621.25 100 100)
  create_atoms CPU = 0.000 seconds
Setting atom values ...
  750 settings made for diameter
Setting atom values ...
  750 settings made for mass
Setting atom values ...
  501 settings made for diameter
Setting atom values ...
  501 settings made for mass
750 atoms in group substrate
501 atoms in group slider1
  1 rigid bodies with 501 atoms
Generated 0 of 1 mixed pair_coeff terms from geometric mixing rule
Neighbor list info ...
  update every 1 steps, delay 0 steps, check yes
  max neighbors/atom: 2000, page size: 100000
  master list distance cutoff = 3.1
  ghost atom cutoff = 3.1
  binsize = 1.55, bins = 3383 130 130
  1 neighbor lists, perpetual/occasional/extra = 1 0 0
  (1) pair granular, perpetual
      attributes: half, newton on, size, history
      pair build: half/size/bin/newton
      stencil: half/bin/3d
      bin: standard
Setting up Verlet run ...
  Unit style    : micro
  Current step  : 0
  Time step     : 1e-05
Per MPI rank memory allocation (min/avg/max) = 130.8 | 130.8 | 130.8 Mbytes
   Step           Lx             Ly             Lz           Press           Pxx            Pyy            Pzz           KinEng         PotEng          Temp          c_1[1]         c_1[2]         c_1[3]    
         0   5242.5         200            200            0              0              0              0              0              0              0              0              0              6            
    100000   5242.5         200            200            0.0019235539   7.5949716e-41  0              0.0057706618   288810.12      0              5.5782429e+10  0              0              3.3334939    
    200000   5242.5         200            200            0.00064422773  1.4445527e-36  0              0.0019326832   64394.98       0              1.2437613e+10  0              0              3.0863183    
    300000   5242.5         200            200           -1.6092013e-05  1.0173649e-42  0             -4.8276038e-05  91.421165      0              17657604       0              0              3.0438862    
    400000   5242.5         200            200           -2.3223661e-05  6.0189689e-38  0             -6.9670982e-05  199.24829      0              38483947       0              0              3.0054035    
    500000   5242.5         200            200            0.0013626512   0.0014024248   0              0.0026855288   350.79112      0              67753790       0              0              2.9966167    
    600000   5242.5         200            200            0.0046535022   0.005714122    0              0.0082463847   81.717768      0              15783434       0              0              2.9940065    
    700000   5242.5         200            200            0.0038188353   0.005180829    0              0.006275677    1.4108454      0              272498.7       0              0              2.9947925    
    800000   5242.5         200            200            0.0043347864   0.0055685687   0              0.0074357904   0.62603879     0              120916.69      0              0              2.9943035    
    900000   5242.5         200            200            0.0042191895   0.0054794047   0              0.0071781637   0.2304332      0              44507.178      0              0              2.9944103    
   1000000   5242.5         200            200            0.004192205    0.005468462    0              0.0071081529   0.0019332608   0              373.40098      0              0              2.9944379    
   1100000   5242.5         200            200            0.0042151613   0.0054806954   0              0.0071647883   0.0026422629   0              510.34167      0              0              2.9944147    
   1200000   5242.5         200            200            0.0042119837   0.0054789648   0              0.0071569863   0.00046673147  0              90.147168      0              0              2.994418     
   1300000   5242.5         200            200            0.0042098557   0.0054778642   0              0.0071517029   1.3464828e-07  0              0.026006734    0              0              2.9944202    
   1400000   5242.5         200            200            0.0042109336   0.005478435    0              0.0071543659   9.1850258e-06  0              1.7740481      0              0              2.9944191    
   1500000   5242.5         200            200            0.0042108931   0.0054784101   0              0.0071542692   7.6220668e-07  0              0.14721693     0              0              2.9944191    
   1600000   5242.5         200            200            0.0042107598   0.0054783406   0              0.0071539388   2.0657881e-08  0              0.0039899806   0              0              2.9944192    
   1700000   5242.5         200            200            0.0042108059   0.0054783652   0              0.0071540524   2.6154149e-08  0              0.0050515611   0              0              2.9944192    
   1800000   5242.5         200            200            0.0042108099   0.0054783671   0              0.0071540625   8.8878079e-10  0              0.00017166417  0              0              2.9944192    
   1900000   5242.5         200            200            0.0042108024   0.0054783632   0              0.0071540441   1.6322977e-10  0              3.1527125e-05  0              0              2.9944192    
   2000000   5242.5         200            200            0.0042108041   0.0054783641   0              0.0071540483   6.2692384e-11  0              1.2108763e-05  0              0              2.9944192    
   2100000   5242.5         200            200            0.0042108046   0.0054783644   0              0.0071540495   4.6809004e-13  0              9.0409572e-08  0              0              2.9944192    
   2200000   5242.5         200            200            0.0042108042   0.0054783642   0              0.0071540486   7.4227101e-13  0              1.4336644e-07  0              0              2.9944192    
   2300000   5242.5         200            200            0.0042108043   0.0054783642   0              0.0071540487   1.2564761e-13  0              2.4268293e-08  0              0              2.9944192    
   2400000   5242.5         200            200            0.0042108043   0.0054783642   0              0.0071540488   7.136181e-17   0              1.3783226e-11  0              0              2.9944192    
   2500000   5242.5         200            200            0.0042108043   0.0054783642   0              0.0071540487   2.5741899e-15  0              4.9719367e-10  0              0              2.9944192    
   2600000   5242.5         200            200            0.0042108043   0.0054783642   0              0.0071540487   2.0125969e-16  0              3.887244e-11   0              0              2.9944192    
   2700000   5242.5         200            200            0.0042108043   0.0054783642   0              0.0071540487   8.4748214e-18  0              1.6368752e-12  0              0              2.9944192    
   2800000   5242.5         200            200            0.0042108043   0.0054783642   0              0.0071540487   7.0726343e-18  0              1.3660488e-12  0              0              2.9944192    
   2900000   5242.5         200            200            0.0042108043   0.0054783642   0              0.0071540487   3.1665469e-18  0              6.1160487e-13  0              0              2.9944192    
   3000000   5242.5         200            200            0.0042108043   0.0054783642   0              0.0071540487   2.2540426e-19  0              4.3535861e-14  0              0              2.9944192    
Loop time of 188.43 on 2 procs for 3000000 steps with 1251 atoms

Performance: 13755796.456 ns/day, 0.000 hours/ns, 15921.061 timesteps/s
99.9% CPU use with 2 MPI tasks x 1 OpenMP threads

MPI task timing breakdown:
Section |  min time  |  avg time  |  max time  |%varavg| %total
---------------------------------------------------------------
Pair    | 37.555     | 37.629     | 37.703     |   1.2 | 19.97
Neigh   | 6.7466     | 6.7473     | 6.7479     |   0.0 |  3.58
Comm    | 20.141     | 20.166     | 20.191     |   0.6 | 10.70
Output  | 0.21204    | 0.21207    | 0.2121     |   0.0 |  0.11
Modify  | 110.48     | 110.5      | 110.51     |   0.1 | 58.64
Other   |            | 13.18      |            |       |  6.99

Nlocal:          625.5 ave         626 max         625 min
Histogram: 1 0 0 0 0 0 0 0 0 1
Nghost:            2.5 ave           3 max           2 min
Histogram: 1 0 0 0 0 0 0 0 0 1
Neighs:          305.5 ave         306 max         305 min
Histogram: 1 0 0 0 0 0 0 0 0 1

Total # of neighbors = 611
Ave neighs/atom = 0.48840927
Neighbor list builds = 166
Dangerous builds = 0
  using 1 OpenMP thread(s) per MPI task
Total wall time: 5:12:24
