ITEM: TIMESTEP
1800000
ITEM: NUMBER OF ATOMS
5658
ITEM: BOX BOUNDS pp pp pp
-6.0000000000000100e+03 6.0000000000000100e+03
-5.0000000000000000e+01 5.0000000000000000e+01
-5.0000000000000000e+01 5.0000000000000000e+01
ITEM: ATOMS id type diameter mass xu yu zu fx fy fz
1 1 3 31.1018 -5999.09393159 0 0 0 0 0
2 1 3 31.1018 -5994.8512909 0 0 0 0 0
3 1 3 31.1018 -5990.60865021 0 0 0 0 0
4 1 3 31.1018 -5986.36600953 0 0 0 0 0
5 1 3 31.1018 -5982.12336884 0 0 0 0 0
6 1 3 31.1018 -5977.88072815 0 0 0 0 0
7 1 3 31.1018 -5973.63808746 0 0 0 0 0
8 1 3 31.1018 -5969.39544678 0 0 0 0 0
9 1 3 31.1018 -5965.15280609 0 0 0 0 0
10 1 3 31.1018 -5960.9101654 0 0 0 0 0
11 1 3 31.1018 -5956.66752472 0 0 0 0 0
12 1 3 31.1018 -5952.42488403 0 0 0 0 0
13 1 3 31.1018 -5948.18224334 0 0 0 0 0
14 1 3 31.1018 -5943.93960265 0 0 0 0 0
15 1 3 31.1018 -5939.69696197 0 0 0 0 0
16 1 3 31.1018 -5935.45432128 0 0 0 0 0
17 1 3 31.1018 -5931.21168059 0 0 0 0 0
18 1 3 31.1018 -5926.96903991 0 0 0 0 0
19 1 3 31.1018 -5922.72639922 0 0 0 0 0
20 1 3 31.1018 -5918.48375853 0 0 0 0 0
21 1 3 31.1018 -5914.24111784 0 0 0 0 0
22 1 3 31.1018 -5909.99847716 0 0 0 0 0
23 1 3 31.1018 -5905.75583647 0 0 0 0 0
24 1 3 31.1018 -5901.51319578 0 0 0 0 0
25 1 3 31.1018 -5897.2705551 0 0 0 0 0
26 1 3 31.1018 -5893.02791441 0 0 0 0 0
27 1 3 31.1018 -5888.78527372 0 0 0 0 0
28 1 3 31.1018 -5884.54263303 0 0 0 0 0
29 1 3 31.1018 -5880.29999235 0 0 0 0 0
30 1 3 31.1018 -5876.05735166 0 0 0 0 0
31 1 3 31.1018 -5871.81471097 0 0 0 0 0
32 1 3 31.1018 -5867.57207029 0 0 0 0 0
33 1 3 31.1018 -5863.3294296 0 0 0 0 0
34 1 3 31.1018 -5859.08678891 0 0 0 0 0
35 1 3 31.1018 -5854.84414822 0 0 0 0 0
36 1 3 31.1018 -5850.60150754 0 0 0 0 0
37 1 3 31.1018 -5846.35886685 0 0 0 0 0
38 1 3 31.1018 -5842.11622616 0 0 0 0 0
39 1 3 31.1018 -5837.87358548 0 0 0 0 0
40 1 3 31.1018 -5833.63094479 0 0 0 0 0
41 1 3 31.1018 -5829.3883041 0 0 0 0 0
42 1 3 31.1018 -5825.14566341 0 0 0 0 0
43 1 3 31.1018 -5820.90302273 0 0 0 0 0
44 1 3 31.1018 -5816.66038204 0 0 0 0 0
45 1 3 31.1018 -5812.41774135 0 0 0 0 0
46 1 3 31.1018 -5808.17510067 0 0 0 0 0
47 1 3 31.1018 -5803.93245998 0 0 0 0 0
48 1 3 31.1018 -5799.68981929 0 0 0 0 0
49 1 3 31.1018 -5795.4471786 0 0 0 0 0
50 1 3 31.1018 -5791.20453792 0 0 0 0 0
51 1 3 31.1018 -5786.96189723 0 0 0 0 0
52 1 3 31.1018 -5782.71925654 0 0 0 0 0
53 1 3 31.1018 -5778.47661586 0 0 0 0 0
54 1 3 31.1018 -5774.23397517 0 0 0 0 0
55 1 3 31.1018 -5769.99133448 0 0 0 0 0
56 1 3 31.1018 -5765.7486938 0 0 0 0 0
57 1 3 31.1018 -5761.50605311 0 0 0 0 0
58 1 3 31.1018 -5757.26341242 0 0 0 0 0
59 1 3 31.1018 -5753.02077173 0 0 0 0 0
60 1 3 31.1018 -5748.77813105 0 0 0 0 0
61 1 3 31.1018 -5744.53549036 0 0 0 0 0
62 1 3 31.1018 -5740.29284967 0 0 0 0 0
63 1 3 31.1018 -5736.05020899 0 0 0 0 0
64 1 3 31.1018 -5731.8075683 0 0 0 0 0
65 1 3 31.1018 -5727.56492761 0 0 0 0 0
66 1 3 31.1018 -5723.32228692 0 0 0 0 0
67 1 3 31.1018 -5719.07964624 0 0 0 0 0
68 1 3 31.1018 -5714.83700555 0 0 0 0 0
69 1 3 31.1018 -5710.59436486 0 0 0 0 0
70 1 3 31.1018 -5706.35172418 0 0 0 0 0
71 1 3 31.1018 -5702.10908349 0 0 0 0 0
72 1 3 31.1018 -5697.8664428 0 0 0 0 0
73 1 3 31.1018 -5693.62380211 0 0 0 0 0
74 1 3 31.1018 -5689.38116143 0 0 0 0 0
75 1 3 31.1018 -5685.13852074 0 0 0 0 0
76 1 3 31.1018 -5680.89588005 0 0 0 0 0
77 1 3 31.1018 -5676.65323937 0 0 0 0 0
78 1 3 31.1018 -5672.41059868 0 0 0 0 0
79 1 3 31.1018 -5668.16795799 0 0 0 0 0
80 1 3 31.1018 -5663.9253173 0 0 0 0 0
81 1 3 31.1018 -5659.68267662 0 0 0 0 0
82 1 3 31.1018 -5655.44003593 0 0 0 0 0
83 1 3 31.1018 -5651.19739524 0 0 0 0 0
84 1 3 31.1018 -5646.95475456 0 0 0 0 0
85 1 3 31.1018 -5642.71211387 0 0 0 0 0
86 1 3 31.1018 -5638.46947318 0 0 0 0 0
87 1 3 31.1018 -5634.22683249 0 0 0 0 0
88 1 3 31.1018 -5629.98419181 0 0 0 0 0
89 1 3 31.1018 -5625.74155112 0 0 0 0 0
90 1 3 31.1018 -5621.49891043 0 0 0 0 0
91 1 3 31.1018 -5617.25626975 0 0 0 0 0
92 1 3 31.1018 -5613.01362906 0 0 0 0 0
93 1 3 31.1018 -5608.77098837 0 0 0 0 0
94 1 3 31.1018 -5604.52834768 0 0 0 0 0
95 1 3 31.1018 -5600.285707 0 0 0 0 0
96 1 3 31.1018 -5596.04306631 0 0 0 0 0
97 1 3 31.1018 -5591.80042562 0 0 0 0 0
98 1 3 31.1018 -5587.55778494 0 0 0 0 0
99 1 3 31.1018 -5583.31514425 0 0 0 0 0
100 1 3 31.1018 -5579.07250356 0 0 0 0 0
101 1 3 31.1018 -5574.82986287 0 0 0 0 0
102 1 3 31.1018 -5570.58722219 0 0 0 0 0
103 1 3 31.1018 -5566.3445815 0 0 0 0 0
104 1 3 31.1018 -5562.10194081 0 0 0 0 0
105 1 3 31.1018 -5557.85930013 0 0 0 0 0
106 1 3 31.1018 -5553.61665944 0 0 0 0 0
107 1 3 31.1018 -5549.37401875 0 0 0 0 0
108 1 3 31.1018 -5545.13137806 0 0 0 0 0
109 1 3 31.1018 -5540.88873738 0 0 0 0 0
110 1 3 31.1018 -5536.64609669 0 0 0 0 0
111 1 3 31.1018 -5532.403456 0 0 0 0 0
112 1 3 31.1018 -5528.16081532 0 0 0 0 0
113 1 3 31.1018 -5523.91817463 0 0 0 0 0
114 1 3 31.1018 -5519.67553394 0 0 0 0 0
115 1 3 31.1018 -5515.43289326 0 0 0 0 0
116 1 3 31.1018 -5511.19025257 0 0 0 0 0
117 1 3 31.1018 -5506.94761188 0 0 0 0 0
118 1 3 31.1018 -5502.70497119 0 0 0 0 0
119 1 3 31.1018 -5498.46233051 0 0 0 0 0
120 1 3 31.1018 -5494.21968982 0 0 0 0 0
121 1 3 31.1018 -5489.97704913 0 0 0 0 0
122 1 3 31.1018 -5485.73440845 0 0 0 0 0
123 1 3 31.1018 -5481.49176776 0 0 0 0 0
124 1 3 31.1018 -5477.24912707 0 0 0 0 0
125 1 3 31.1018 -5473.00648638 0 0 0 0 0
126 1 3 31.1018 -5468.7638457 0 0 0 0 0
127 1 3 31.1018 -5464.52120501 0 0 0 0 0
128 1 3 31.1018 -5460.27856432 0 0 0 0 0
129 1 3 31.1018 -5456.03592364 0 0 0 0 0
130 1 3 31.1018 -5451.79328295 0 0 0 0 0
131 1 3 31.1018 -5447.55064226 0 0 0 0 0
132 1 3 31.1018 -5443.30800157 0 0 0 0 0
133 1 3 31.1018 -5439.06536089 0 0 0 0 0
134 1 3 31.1018 -5434.8227202 0 0 0 0 0
135 1 3 31.1018 -5430.58007951 0 0 0 0 0
136 1 3 31.1018 -5426.33743883 0 0 0 0 0
137 1 3 31.1018 -5422.09479814 0 0 0 0 0
138 1 3 31.1018 -5417.85215745 0 0 0 0 0
139 1 3 31.1018 -5413.60951676 0 0 0 0 0
140 1 3 31.1018 -5409.36687608 0 0 0 0 0
141 1 3 31.1018 -5405.12423539 0 0 0 0 0
142 1 3 31.1018 -5400.8815947 0 0 0 0 0
143 1 3 31.1018 -5396.63895402 0 0 0 0 0
144 1 3 31.1018 -5392.39631333 0 0 0 0 0
145 1 3 31.1018 -5388.15367264 0 0 0 0 0
146 1 3 31.1018 -5383.91103195 0 0 0 0 0
147 1 3 31.1018 -5379.66839127 0 0 0 0 0
148 1 3 31.1018 -5375.42575058 0 0 0 0 0
149 1 3 31.1018 -5371.18310989 0 0 0 0 0
150 1 3 31.1018 -5366.94046921 0 0 0 0 0
151 1 3 31.1018 -5362.69782852 0 0 0 0 0
152 1 3 31.1018 -5358.45518783 0 0 0 0 0
153 1 3 31.1018 -5354.21254714 0 0 0 0 0
154 1 3 31.1018 -5349.96990646 0 0 0 0 0
155 1 3 31.1018 -5345.72726577 0 0 0 0 0
156 1 3 31.1018 -5341.48462508 0 0 0 0 0
157 1 3 31.1018 -5337.2419844 0 0 0 0 0
158 1 3 31.1018 -5332.99934371 0 0 0 0 0
159 1 3 31.1018 -5328.75670302 0 0 0 0 0
160 1 3 31.1018 -5324.51406233 0 0 0 0 0
161 1 3 31.1018 -5320.27142165 0 0 0 0 0
162 1 3 31.1018 -5316.02878096 0 0 0 0 0
163 1 3 31.1018 -5311.78614027 0 0 0 0 0
164 1 3 31.1018 -5307.54349959 0 0 0 0 0
165 1 3 31.1018 -5303.3008589 0 0 0 0 0
166 1 3 31.1018 -5299.05821821 0 0 0 0 0
167 1 3 31.1018 -5294.81557752 0 0 0 0 0
168 1 3 31.1018 -5290.57293684 0 0 0 0 0
169 1 3 31.1018 -5286.33029615 0 0 0 0 0
170 1 3 31.1018 -5282.08765546 0 0 0 0 0
171 1 3 31.1018 -5277.84501478 0 0 0 0 0
172 1 3 31.1018 -5273.60237409 0 0 0 0 0
173 1 3 31.1018 -5269.3597334 0 0 0 0 0
174 1 3 31.1018 -5265.11709272 0 0 0 0 0
175 1 3 31.1018 -5260.87445203 0 0 0 0 0
176 1 3 31.1018 -5256.63181134 0 0 0 0 0
177 1 3 31.1018 -5252.38917065 0 0 0 0 0
178 1 3 31.1018 -5248.14652997 0 0 0 0 0
179 1 3 31.1018 -5243.90388928 0 0 0 0 0
180 1 3 31.1018 -5239.66124859 0 0 0 0 0
181 1 3 31.1018 -5235.41860791 0 0 0 0 0
182 1 3 31.1018 -5231.17596722 0 0 0 0 0
183 1 3 31.1018 -5226.93332653 0 0 0 0 0
184 1 3 31.1018 -5222.69068584 0 0 0 0 0
185 1 3 31.1018 -5218.44804516 0 0 0 0 0
186 1 3 31.1018 -5214.20540447 0 0 0 0 0
187 1 3 31.1018 -5209.96276378 0 0 0 0 0
188 1 3 31.1018 -5205.7201231 0 0 0 0 0
189 1 3 31.1018 -5201.47748241 0 0 0 0 0
190 1 3 31.1018 -5197.23484172 0 0 0 0 0
191 1 3 31.1018 -5192.99220103 0 0 0 0 0
192 1 3 31.1018 -5188.74956035 0 0 0 0 0
193 1 3 31.1018 -5184.50691966 0 0 0 0 0
194 1 3 31.1018 -5180.26427897 0 0 0 0 0
195 1 3 31.1018 -5176.02163829 0 0 0 0 0
196 1 3 31.1018 -5171.7789976 0 0 0 0 0
197 1 3 31.1018 -5167.53635691 0 0 0 0 0
198 1 3 31.1018 -5163.29371622 0 0 0 0 0
199 1 3 31.1018 -5159.05107554 0 0 0 0 0
200 1 3 31.1018 -5154.80843485 0 0 0 0 0
201 1 3 31.1018 -5150.56579416 0 0 0 0 0
202 1 3 31.1018 -5146.32315348 0 0 0 0 0
203 1 3 31.1018 -5142.08051279 0 0 0 0 0
204 1 3 31.1018 -5137.8378721 0 0 0 0 0
205 1 3 31.1018 -5133.59523141 0 0 0 0 0
206 1 3 31.1018 -5129.35259073 0 0 0 0 0
207 1 3 31.1018 -5125.10995004 0 0 0 0 0
208 1 3 31.1018 -5120.86730935 0 0 0 0 0
209 1 3 31.1018 -5116.62466867 0 0 0 0 0
210 1 3 31.1018 -5112.38202798 0 0 0 0 0
211 1 3 31.1018 -5108.13938729 0 0 0 0 0
212 1 3 31.1018 -5103.8967466 0 0 0 0 0
213 1 3 31.1018 -5099.65410592 0 0 0 0 0
214 1 3 31.1018 -5095.41146523 0 0 0 0 0
215 1 3 31.1018 -5091.16882454 0 0 0 0 0
216 1 3 31.1018 -5086.92618386 0 0 0 0 0
217 1 3 31.1018 -5082.68354317 0 0 0 0 0
218 1 3 31.1018 -5078.44090248 0 0 0 0 0
219 1 3 31.1018 -5074.19826179 0 0 0 0 0
220 1 3 31.1018 -5069.95562111 0 0 0 0 0
221 1 3 31.1018 -5065.71298042 0 0 0 0 0
222 1 3 31.1018 -5061.47033973 0 0 0 0 0
223 1 3 31.1018 -5057.22769905 0 0 0 0 0
224 1 3 31.1018 -5052.98505836 0 0 0 0 0
225 1 3 31.1018 -5048.74241767 0 0 0 0 0
226 1 3 31.1018 -5044.49977698 0 0 0 0 0
227 1 3 31.1018 -5040.2571363 0 0 0 0 0
228 1 3 31.1018 -5036.01449561 0 0 0 0 0
229 1 3 31.1018 -5031.77185492 0 0 0 0 0
230 1 3 31.1018 -5027.52921424 0 0 0 0 0
231 1 3 31.1018 -5023.28657355 0 0 0 0 0
232 1 3 31.1018 -5019.04393286 0 0 0 0 0
233 1 3 31.1018 -5014.80129218 0 0 0 0 0
234 1 3 31.1018 -5010.55865149 0 0 0 0 0
235 1 3 31.1018 -5006.3160108 0 0 0 0 0
236 1 3 31.1018 -5002.07337011 0 0 0 0 0
237 1 3 31.1018 -4997.83072943 0 0 0 0 0
238 1 3 31.1018 -4993.58808874 0 0 0 0 0
239 1 3 31.1018 -4989.34544805 0 0 0 0 0
240 1 3 31.1018 -4985.10280737 0 0 0 0 0
241 1 3 31.1018 -4980.86016668 0 0 0 0 0
242 1 3 31.1018 -4976.61752599 0 0 0 0 0
243 1 3 31.1018 -4972.3748853 0 0 0 0 0
244 1 3 31.1018 -4968.13224462 0 0 0 0 0
245 1 3 31.1018 -4963.88960393 0 0 0 0 0
246 1 3 31.1018 -4959.64696324 0 0 0 0 0
247 1 3 31.1018 -4955.40432256 0 0 0 0 0
248 1 3 31.1018 -4951.16168187 0 0 0 0 0
249 1 3 31.1018 -4946.91904118 0 0 0 0 0
250 1 3 31.1018 -4942.67640049 0 0 0 0 0
251 1 3 31.1018 -4938.43375981 0 0 0 0 0
252 1 3 31.1018 -4934.19111912 0 0 0 0 0
253 1 3 31.1018 -4929.94847843 0 0 0 0 0
254 1 3 31.1018 -4925.70583775 0 0 0 0 0
255 1 3 31.1018 -4921.46319706 0 0 0 0 0
256 1 3 31.1018 -4917.22055637 0 0 0 0 0
257 1 3 31.1018 -4912.97791568 0 0 0 0 0
258 1 3 31.1018 -4908.735275 0 0 0 0 0
259 1 3 31.1018 -4904.49263431 0 0 0 0 0
260 1 3 31.1018 -4900.24999362 0 0 0 0 0
261 1 3 31.1018 -4896.00735294 0 0 0 0 0
262 1 3 31.1018 -4891.76471225 0 0 0 0 0
263 1 3 31.1018 -4887.52207156 0 0 0 0 0
264 1 3 31.1018 -4883.27943087 0 0 0 0 0
265 1 3 31.1018 -4879.03679019 0 0 0 0 0
266 1 3 31.1018 -4874.7941495 0 0 0 0 0
267 1 3 31.1018 -4870.55150881 0 0 0 0 0
268 1 3 31.1018 -4866.30886813 0 0 0 0 0
269 1 3 31.1018 -4862.06622744 0 0 0 0 0
270 1 3 31.1018 -4857.82358675 0 0 0 0 0
271 1 3 31.1018 -4853.58094606 0 0 0 0 0
272 1 3 31.1018 -4849.33830538 0 0 0 0 0
273 1 3 31.1018 -4845.09566469 0 0 0 0 0
274 1 3 31.1018 -4840.853024 0 0 0 0 0
275 1 3 31.1018 -4836.61038332 0 0 0 0 0
276 1 3 31.1018 -4832.36774263 0 0 0 0 0
277 1 3 31.1018 -4828.12510194 0 0 0 0 0
278 1 3 31.1018 -4823.88246125 0 0 0 0 0
279 1 3 31.1018 -4819.63982057 0 0 0 0 0
280 1 3 31.1018 -4815.39717988 0 0 0 0 0
281 1 3 31.1018 -4811.15453919 0 0 0 0 0
282 1 3 31.1018 -4806.91189851 0 0 0 0 0
283 1 3 31.1018 -4802.66925782 0 0 0 0 0
284 1 3 31.1018 -4798.42661713 0 0 0 0 0
285 1 3 31.1018 -4794.18397644 0 0 0 0 0
286 1 3 31.1018 -4789.94133576 0 0 0 0 0
287 1 3 31.1018 -4785.69869507 0 0 0 0 0
288 1 3 31.1018 -4781.45605438 0 0 0 0 0
289 1 3 31.1018 -4777.2134137 0 0 0 0 0
290 1 3 31.1018 -4772.97077301 0 0 0 0 0
291 1 3 31.1018 -4768.72813232 0 0 0 0 0
292 1 3 31.1018 -4764.48549163 0 0 0 0 0
293 1 3 31.1018 -4760.24285095 0 0 0 0 0
294 1 3 31.1018 -4756.00021026 0 0 0 0 0
295 1 3 31.1018 -4751.75756957 0 0 0 0 0
296 1 3 31.1018 -4747.51492889 0 0 0 0 0
297 1 3 31.1018 -4743.2722882 0 0 0 0 0
298 1 3 31.1018 -4739.02964751 0 0 0 0 0
299 1 3 31.1018 -4734.78700683 0 0 0 0 0
300 1 3 31.1018 -4730.54436614 0 0 0 0 0
301 1 3 31.1018 -4726.30172545 0 0 0 0 0
302 1 3 31.1018 -4722.05908476 0 0 0 0 0
303 1 3 31.1018 -4717.81644408 0 0 0 0 0
304 1 3 31.1018 -4713.57380339 0 0 0 0 0
305 1 3 31.1018 -4709.3311627 0 0 0 0 0
306 1 3 31.1018 -4705.08852202 0 0 0 0 0
307 1 3 31.1018 -4700.84588133 0 0 0 0 0
308 1 3 31.1018 -4696.60324064 0 0 0 0 0
309 1 3 31.1018 -4692.36059995 0 0 0 0 0
310 1 3 31.1018 -4688.11795927 0 0 0 0 0
311 1 3 31.1018 -4683.87531858 0 0 0 0 0
312 1 3 31.1018 -4679.63267789 0 0 0 0 0
313 1 3 31.1018 -4675.39003721 0 0 0 0 0
314 1 3 31.1018 -4671.14739652 0 0 0 0 0
315 1 3 31.1018 -4666.90475583 0 0 0 0 0
316 1 3 31.1018 -4662.66211514 0 0 0 0 0
317 1 3 31.1018 -4658.41947446 0 0 0 0 0
318 1 3 31.1018 -4654.17683377 0 0 0 0 0
319 1 3 31.1018 -4649.93419308 0 0 0 0 0
320 1 3 31.1018 -4645.6915524 0 0 0 0 0
321 1 3 31.1018 -4641.44891171 0 0 0 0 0
322 1 3 31.1018 -4637.20627102 0 0 0 0 0
323 1 3 31.1018 -4632.96363033 0 0 0 0 0
324 1 3 31.1018 -4628.72098965 0 0 0 0 0
325 1 3 31.1018 -4624.47834896 0 0 0 0 0
326 1 3 31.1018 -4620.23570827 0 0 0 0 0
327 1 3 31.1018 -4615.99306759 0 0 0 0 0
328 1 3 31.1018 -4611.7504269 0 0 0 0 0
329 1 3 31.1018 -4607.50778621 0 0 0 0 0
330 1 3 31.1018 -4603.26514552 0 0 0 0 0
331 1 3 31.1018 -4599.02250484 0 0 0 0 0
332 1 3 31.1018 -4594.77986415 0 0 0 0 0
333 1 3 31.1018 -4590.53722346 0 0 0 0 0
334 1 3 31.1018 -4586.29458278 0 0 0 0 0
335 1 3 31.1018 -4582.05194209 0 0 0 0 0
336 1 3 31.1018 -4577.8093014 0 0 0 0 0
337 1 3 31.1018 -4573.56666071 0 0 0 0 0
338 1 3 31.1018 -4569.32402003 0 0 0 0 0
339 1 3 31.1018 -4565.08137934 0 0 0 0 0
340 1 3 31.1018 -4560.83873865 0 0 0 0 0
341 1 3 31.1018 -4556.59609797 0 0 0 0 0
342 1 3 31.1018 -4552.35345728 0 0 0 0 0
343 1 3 31.1018 -4548.11081659 0 0 0 0 0
344 1 3 31.1018 -4543.8681759 0 0 0 0 0
345 1 3 31.1018 -4539.62553522 0 0 0 0 0
346 1 3 31.1018 -4535.38289453 0 0 0 0 0
347 1 3 31.1018 -4531.14025384 0 0 0 0 0
348 1 3 31.1018 -4526.89761316 0 0 0 0 0
349 1 3 31.1018 -4522.65497247 0 0 0 0 0
350 1 3 31.1018 -4518.41233178 0 0 0 0 0
351 1 3 31.1018 -4514.16969109 0 0 0 0 0
352 1 3 31.1018 -4509.92705041 0 0 0 0 0
353 1 3 31.1018 -4505.68440972 0 0 0 0 0
354 1 3 31.1018 -4501.44176903 0 0 0 0 0
355 1 3 31.1018 -4497.19912835 0 0 0 0 0
356 1 3 31.1018 -4492.95648766 0 0 0 0 0
357 1 3 31.1018 -4488.71384697 0 0 0 0 0
358 1 3 31.1018 -4484.47120629 0 0 0 0 0
359 1 3 31.1018 -4480.2285656 0 0 0 0 0
360 1 3 31.1018 -4475.98592491 0 0 0 0 0
361 1 3 31.1018 -4471.74328422 0 0 0 0 0
362 1 3 31.1018 -4467.50064354 0 0 0 0 0
363 1 3 31.1018 -4463.25800285 0 0 0 0 0
364 1 3 31.1018 -4459.01536216 0 0 0 0 0
365 1 3 31.1018 -4454.77272148 0 0 0 0 0
366 1 3 31.1018 -4450.53008079 0 0 0 0 0
367 1 3 31.1018 -4446.2874401 0 0 0 0 0
368 1 3 31.1018 -4442.04479941 0 0 0 0 0
369 1 3 31.1018 -4437.80215873 0 0 0 0 0
370 1 3 31.1018 -4433.55951804 0 0 0 0 0
371 1 3 31.1018 -4429.31687735 0 0 0 0 0
372 1 3 31.1018 -4425.07423667 0 0 0 0 0
373 1 3 31.1018 -4420.83159598 0 0 0 0 0
374 1 3 31.1018 -4416.58895529 0 0 0 0 0
375 1 3 31.1018 -4412.3463146 0 0 0 0 0
376 1 3 31.1018 -4408.10367392 0 0 0 0 0
377 1 3 31.1018 -4403.86103323 0 0 0 0 0
378 1 3 31.1018 -4399.61839254 0 0 0 0 0
379 1 3 31.1018 -4395.37575186 0 0 0 0 0
380 1 3 31.1018 -4391.13311117 0 0 0 0 0
381 1 3 31.1018 -4386.89047048 0 0 0 0 0
382 1 3 31.1018 -4382.64782979 0 0 0 0 0
383 1 3 31.1018 -4378.40518911 0 0 0 0 0
384 1 3 31.1018 -4374.16254842 0 0 0 0 0
385 1 3 31.1018 -4369.91990773 0 0 0 0 0
386 1 3 31.1018 -4365.67726705 0 0 0 0 0
387 1 3 31.1018 -4361.43462636 0 0 0 0 0
388 1 3 31.1018 -4357.19198567 0 0 0 0 0
389 1 3 31.1018 -4352.94934498 0 0 0 0 0
390 1 3 31.1018 -4348.7067043 0 0 0 0 0
391 1 3 31.1018 -4344.46406361 0 0 0 0 0
392 1 3 31.1018 -4340.22142292 0 0 0 0 0
393 1 3 31.1018 -4335.97878224 0 0 0 0 0
394 1 3 31.1018 -4331.73614155 0 0 0 0 0
395 1 3 31.1018 -4327.49350086 0 0 0 0 0
396 1 3 31.1018 -4323.25086017 0 0 0 0 0
397 1 3 31.1018 -4319.00821949 0 0 0 0 0
398 1 3 31.1018 -4314.7655788 0 0 0 0 0
399 1 3 31.1018 -4310.52293811 0 0 0 0 0
400 1 3 31.1018 -4306.28029743 0 0 0 0 0
401 1 3 31.1018 -4302.03765674 0 0 0 0 0
402 1 3 31.1018 -4297.79501605 0 0 0 0 0
403 1 3 31.1018 -4293.55237536 0 0 0 0 0
404 1 3 31.1018 -4289.30973468 0 0 0 0 0
405 1 3 31.1018 -4285.06709399 0 0 0 0 0
406 1 3 31.1018 -4280.8244533 0 0 0 0 0
407 1 3 31.1018 -4276.58181262 0 0 0 0 0
408 1 3 31.1018 -4272.33917193 0 0 0 0 0
409 1 3 31.1018 -4268.09653124 0 0 0 0 0
410 1 3 31.1018 -4263.85389055 0 0 0 0 0
411 1 3 31.1018 -4259.61124987 0 0 0 0 0
412 1 3 31.1018 -4255.36860918 0 0 0 0 0
413 1 3 31.1018 -4251.12596849 0 0 0 0 0
414 1 3 31.1018 -4246.88332781 0 0 0 0 0
415 1 3 31.1018 -4242.64068712 0 0 0 0 0
416 1 3 31.1018 -4238.39804643 0 0 0 0 0
417 1 3 31.1018 -4234.15540575 0 0 0 0 0
418 1 3 31.1018 -4229.91276506 0 0 0 0 0
419 1 3 31.1018 -4225.67012437 0 0 0 0 0
420 1 3 31.1018 -4221.42748368 0 0 0 0 0
421 1 3 31.1018 -4217.184843 0 0 0 0 0
422 1 3 31.1018 -4212.94220231 0 0 0 0 0
423 1 3 31.1018 -4208.69956162 0 0 0 0 0
424 1 3 31.1018 -4204.45692094 0 0 0 0 0
425 1 3 31.1018 -4200.21428025 0 0 0 0 0
426 1 3 31.1018 -4195.97163956 0 0 0 0 0
427 1 3 31.1018 -4191.72899887 0 0 0 0 0
428 1 3 31.1018 -4187.48635819 0 0 0 0 0
429 1 3 31.1018 -4183.2437175 0 0 0 0 0
430 1 3 31.1018 -4179.00107681 0 0 0 0 0
431 1 3 31.1018 -4174.75843613 0 0 0 0 0
432 1 3 31.1018 -4170.51579544 0 0 0 0 0
433 1 3 31.1018 -4166.27315475 0 0 0 0 0
434 1 3 31.1018 -4162.03051406 0 0 0 0 0
435 1 3 31.1018 -4157.78787338 0 0 0 0 0
436 1 3 31.1018 -4153.54523269 0 0 0 0 0
437 1 3 31.1018 -4149.302592 0 0 0 0 0
438 1 3 31.1018 -4145.05995132 0 0 0 0 0
439 1 3 31.1018 -4140.81731063 0 0 0 0 0
440 1 3 31.1018 -4136.57466994 0 0 0 0 0
441 1 3 31.1018 -4132.33202925 0 0 0 0 0
442 1 3 31.1018 -4128.08938857 0 0 0 0 0
443 1 3 31.1018 -4123.84674788 0 0 0 0 0
444 1 3 31.1018 -4119.60410719 0 0 0 0 0
445 1 3 31.1018 -4115.36146651 0 0 0 0 0
446 1 3 31.1018 -4111.11882582 0 0 0 0 0
447 1 3 31.1018 -4106.87618513 0 0 0 0 0
448 1 3 31.1018 -4102.63354444 0 0 0 0 0
449 1 3 31.1018 -4098.39090376 0 0 0 0 0
450 1 3 31.1018 -4094.14826307 0 0 0 0 0
451 1 3 31.1018 -4089.90562238 0 0 0 0 0
452 1 3 31.1018 -4085.6629817 0 0 0 0 0
453 1 3 31.1018 -4081.42034101 0 0 0 0 0
454 1 3 31.1018 -4077.17770032 0 0 0 0 0
455 1 3 31.1018 -4072.93505963 0 0 0 0 0
456 1 3 31.1018 -4068.69241895 0 0 0 0 0
457 1 3 31.1018 -4064.44977826 0 0 0 0 0
458 1 3 31.1018 -4060.20713757 0 0 0 0 0
459 1 3 31.1018 -4055.96449689 0 0 0 0 0
460 1 3 31.1018 -4051.7218562 0 0 0 0 0
461 1 3 31.1018 -4047.47921551 0 0 0 0 0
462 1 3 31.1018 -4043.23657482 0 0 0 0 0
463 1 3 31.1018 -4038.99393414 0 0 0 0 0
464 1 3 31.1018 -4034.75129345 0 0 0 0 0
465 1 3 31.1018 -4030.50865276 0 0 0 0 0
466 1 3 31.1018 -4026.26601208 0 0 0 0 0
467 1 3 31.1018 -4022.02337139 0 0 0 0 0
468 1 3 31.1018 -4017.7807307 0 0 0 0 0
469 1 3 31.1018 -4013.53809001 0 0 0 0 0
470 1 3 31.1018 -4009.29544933 0 0 0 0 0
471 1 3 31.1018 -4005.05280864 0 0 0 0 0
472 1 3 31.1018 -4000.81016795 0 0 0 0 0
473 1 3 31.1018 -3996.56752727 0 0 0 0 0
474 1 3 31.1018 -3992.32488658 0 0 0 0 0
475 1 3 31.1018 -3988.08224589 0 0 0 0 0
476 1 3 31.1018 -3983.83960521 0 0 0 0 0
477 1 3 31.1018 -3979.59696452 0 0 0 0 0
478 1 3 31.1018 -3975.35432383 0 0 0 0 0
479 1 3 31.1018 -3971.11168314 0 0 0 0 0
480 1 3 31.1018 -3966.86904246 0 0 0 0 0
481 1 3 31.1018 -3962.62640177 0 0 0 0 0
482 1 3 31.1018 -3958.38376108 0 0 0 0 0
483 1 3 31.1018 -3954.1411204 0 0 0 0 0
484 1 3 31.1018 -3949.89847971 0 0 0 0 0
485 1 3 31.1018 -3945.65583902 0 0 0 0 0
486 1 3 31.1018 -3941.41319833 0 0 0 0 0
487 1 3 31.1018 -3937.17055765 0 0 0 0 0
488 1 3 31.1018 -3932.92791696 0 0 0 0 0
489 1 3 31.1018 -3928.68527627 0 0 0 0 0
490 1 3 31.1018 -3924.44263559 0 0 0 0 0
491 1 3 31.1018 -3920.1999949 0 0 0 0 0
492 1 3 31.1018 -3915.95735421 0 0 0 0 0
493 1 3 31.1018 -3911.71471352 0 0 0 0 0
494 1 3 31.1018 -3907.47207284 0 0 0 0 0
495 1 3 31.1018 -3903.22943215 0 0 0 0 0
496 1 3 31.1018 -3898.98679146 0 0 0 0 0
497 1 3 31.1018 -3894.74415078 0 0 0 0 0
498 1 3 31.1018 -3890.50151009 0 0 0 0 0
499 1 3 31.1018 -3886.2588694 0 0 0 0 0
500 1 3 31.1018 -3882.01622871 0 0 0 0 0
501 1 3 31.1018 -3877.77358803 0 0 0 0 0
502 1 3 31.1018 -3873.53094734 0 0 0 0 0
503 1 3 31.1018 -3869.28830665 0 0 0 0 0
504 1 3 31.1018 -3865.04566597 0 0 0 0 0
505 1 3 31.1018 -3860.80302528 0 0 0 0 0
506 1 3 31.1018 -3856.56038459 0 0 0 0 0
507 1 3 31.1018 -3852.3177439 0 0 0 0 0
508 1 3 31.1018 -3848.07510322 0 0 0 0 0
509 1 3 31.1018 -3843.83246253 0 0 0 0 0
510 1 3 31.1018 -3839.58982184 0 0 0 0 0
511 1 3 31.1018 -3835.34718116 0 0 0 0 0
512 1 3 31.1018 -3831.10454047 0 0 0 0 0
513 1 3 31.1018 -3826.86189978 0 0 0 0 0
514 1 3 31.1018 -3822.61925909 0 0 0 0 0
515 1 3 31.1018 -3818.37661841 0 0 0 0 0
516 1 3 31.1018 -3814.13397772 0 0 0 0 0
517 1 3 31.1018 -3809.89133703 0 0 0 0 0
518 1 3 31.1018 -3805.64869635 0 0 0 0 0
519 1 3 31.1018 -3801.40605566 0 0 0 0 0
520 1 3 31.1018 -3797.16341497 0 0 0 0 0
521 1 3 31.1018 -3792.92077428 0 0 0 0 0
522 1 3 31.1018 -3788.6781336 0 0 0 0 0
523 1 3 31.1018 -3784.43549291 0 0 0 0 0
524 1 3 31.1018 -3780.19285222 0 0 0 0 0
525 1 3 31.1018 -3775.95021154 0 0 0 0 0
526 1 3 31.1018 -3771.70757085 0 0 0 0 0
527 1 3 31.1018 -3767.46493016 0 0 0 0 0
528 1 3 31.1018 -3763.22228947 0 0 0 0 0
529 1 3 31.1018 -3758.97964879 0 0 0 0 0
530 1 3 31.1018 -3754.7370081 0 0 0 0 0
531 1 3 31.1018 -3750.49436741 0 0 0 0 0
532 1 3 31.1018 -3746.25172673 0 0 0 0 0
533 1 3 31.1018 -3742.00908604 0 0 0 0 0
534 1 3 31.1018 -3737.76644535 0 0 0 0 0
535 1 3 31.1018 -3733.52380466 0 0 0 0 0
536 1 3 31.1018 -3729.28116398 0 0 0 0 0
537 1 3 31.1018 -3725.03852329 0 0 0 0 0
538 1 3 31.1018 -3720.7958826 0 0 0 0 0
539 1 3 31.1018 -3716.55324192 0 0 0 0 0
540 1 3 31.1018 -3712.31060123 0 0 0 0 0
541 1 3 31.1018 -3708.06796054 0 0 0 0 0
542 1 3 31.1018 -3703.82531986 0 0 0 0 0
543 1 3 31.1018 -3699.58267917 0 0 0 0 0
544 1 3 31.1018 -3695.34003848 0 0 0 0 0
545 1 3 31.1018 -3691.09739779 0 0 0 0 0
546 1 3 31.1018 -3686.85475711 0 0 0 0 0
547 1 3 31.1018 -3682.61211642 0 0 0 0 0
548 1 3 31.1018 -3678.36947573 0 0 0 0 0
549 1 3 31.1018 -3674.12683505 0 0 0 0 0
550 1 3 31.1018 -3669.88419436 0 0 0 0 0
551 1 3 31.1018 -3665.64155367 0 0 0 0 0
552 1 3 31.1018 -3661.39891298 0 0 0 0 0
553 1 3 31.1018 -3657.1562723 0 0 0 0 0
554 1 3 31.1018 -3652.91363161 0 0 0 0 0
555 1 3 31.1018 -3648.67099092 0 0 0 0 0
556 1 3 31.1018 -3644.42835024 0 0 0 0 0
557 1 3 31.1018 -3640.18570955 0 0 0 0 0
558 1 3 31.1018 -3635.94306886 0 0 0 0 0
559 1 3 31.1018 -3631.70042817 0 0 0 0 0
560 1 3 31.1018 -3627.45778749 0 0 0 0 0
561 1 3 31.1018 -3623.2151468 0 0 0 0 0
562 1 3 31.1018 -3618.97250611 0 0 0 0 0
563 1 3 31.1018 -3614.72986543 0 0 0 0 0
564 1 3 31.1018 -3610.48722474 0 0 0 0 0
565 1 3 31.1018 -3606.24458405 0 0 0 0 0
566 1 3 31.1018 -3602.00194336 0 0 0 0 0
567 1 3 31.1018 -3597.75930268 0 0 0 0 0
568 1 3 31.1018 -3593.51666199 0 0 0 0 0
569 1 3 31.1018 -3589.2740213 0 0 0 0 0
570 1 3 31.1018 -3585.03138062 0 0 0 0 0
571 1 3 31.1018 -3580.78873993 0 0 0 0 0
572 1 3 31.1018 -3576.54609924 0 0 0 0 0
573 1 3 31.1018 -3572.30345855 0 0 0 0 0
574 1 3 31.1018 -3568.06081787 0 0 0 0 0
575 1 3 31.1018 -3563.81817718 0 0 0 0 0
576 1 3 31.1018 -3559.57553649 0 0 0 0 0
577 1 3 31.1018 -3555.33289581 0 0 0 0 0
578 1 3 31.1018 -3551.09025512 0 0 0 0 0
579 1 3 31.1018 -3546.84761443 0 0 0 0 0
580 1 3 31.1018 -3542.60497374 0 0 0 0 0
581 1 3 31.1018 -3538.36233306 0 0 0 0 0
582 1 3 31.1018 -3534.11969237 0 0 0 0 0
583 1 3 31.1018 -3529.87705168 0 0 0 0 0
584 1 3 31.1018 -3525.634411 0 0 0 0 0
585 1 3 31.1018 -3521.39177031 0 0 0 0 0
586 1 3 31.1018 -3517.14912962 0 0 0 0 0
587 1 3 31.1018 -3512.90648893 0 0 0 0 0
588 1 3 31.1018 -3508.66384825 0 0 0 0 0
589 1 3 31.1018 -3504.42120756 0 0 0 0 0
590 1 3 31.1018 -3500.17856687 0 0 0 0 0
591 1 3 31.1018 -3495.93592619 0 0 0 0 0
592 1 3 31.1018 -3491.6932855 0 0 0 0 0
593 1 3 31.1018 -3487.45064481 0 0 0 0 0
594 1 3 31.1018 -3483.20800412 0 0 0 0 0
595 1 3 31.1018 -3478.96536344 0 0 0 0 0
596 1 3 31.1018 -3474.72272275 0 0 0 0 0
597 1 3 31.1018 -3470.48008206 0 0 0 0 0
598 1 3 31.1018 -3466.23744138 0 0 0 0 0
599 1 3 31.1018 -3461.99480069 0 0 0 0 0
600 1 3 31.1018 -3457.75216 0 0 0 0 0
601 1 3 31.1018 -3453.50951932 0 0 0 0 0
602 1 3 31.1018 -3449.26687863 0 0 0 0 0
603 1 3 31.1018 -3445.02423794 0 0 0 0 0
604 1 3 31.1018 -3440.78159725 0 0 0 0 0
605 1 3 31.1018 -3436.53895657 0 0 0 0 0
606 1 3 31.1018 -3432.29631588 0 0 0 0 0
607 1 3 31.1018 -3428.05367519 0 0 0 0 0
608 1 3 31.1018 -3423.81103451 0 0 0 0 0
609 1 3 31.1018 -3419.56839382 0 0 0 0 0
610 1 3 31.1018 -3415.32575313 0 0 0 0 0
611 1 3 31.1018 -3411.08311244 0 0 0 0 0
612 1 3 31.1018 -3406.84047176 0 0 0 0 0
613 1 3 31.1018 -3402.59783107 0 0 0 0 0
614 1 3 31.1018 -3398.35519038 0 0 0 0 0
615 1 3 31.1018 -3394.1125497 0 0 0 0 0
616 1 3 31.1018 -3389.86990901 0 0 0 0 0
617 1 3 31.1018 -3385.62726832 0 0 0 0 0
618 1 3 31.1018 -3381.38462763 0 0 0 0 0
619 1 3 31.1018 -3377.14198695 0 0 0 0 0
620 1 3 31.1018 -3372.89934626 0 0 0 0 0
621 1 3 31.1018 -3368.65670557 0 0 0 0 0
622 1 3 31.1018 -3364.41406489 0 0 0 0 0
623 1 3 31.1018 -3360.1714242 0 0 0 0 0
624 1 3 31.1018 -3355.92878351 0 0 0 0 0
625 1 3 31.1018 -3351.68614282 0 0 0 0 0
626 1 3 31.1018 -3347.44350214 0 0 0 0 0
627 1 3 31.1018 -3343.20086145 0 0 0 0 0
628 1 3 31.1018 -3338.95822076 0 0 0 0 0
629 1 3 31.1018 -3334.71558008 0 0 0 0 0
630 1 3 31.1018 -3330.47293939 0 0 0 0 0
631 1 3 31.1018 -3326.2302987 0 0 0 0 0
632 1 3 31.1018 -3321.98765801 0 0 0 0 0
633 1 3 31.1018 -3317.74501733 0 0 0 0 0
634 1 3 31.1018 -3313.50237664 0 0 0 0 0
635 1 3 31.1018 -3309.25973595 0 0 0 0 0
636 1 3 31.1018 -3305.01709527 0 0 0 0 0
637 1 3 31.1018 -3300.77445458 0 0 0 0 0
638 1 3 31.1018 -3296.53181389 0 0 0 0 0
639 1 3 31.1018 -3292.2891732 0 0 0 0 0
640 1 3 31.1018 -3288.04653252 0 0 0 0 0
641 1 3 31.1018 -3283.80389183 0 0 0 0 0
642 1 3 31.1018 -3279.56125114 0 0 0 0 0
643 1 3 31.1018 -3275.31861046 0 0 0 0 0
644 1 3 31.1018 -3271.07596977 0 0 0 0 0
645 1 3 31.1018 -3266.83332908 0 0 0 0 0
646 1 3 31.1018 -3262.59068839 0 0 0 0 0
647 1 3 31.1018 -3258.34804771 0 0 0 0 0
648 1 3 31.1018 -3254.10540702 0 0 0 0 0
649 1 3 31.1018 -3249.86276633 0 0 0 0 0
650 1 3 31.1018 -3245.62012565 0 0 0 0 0
651 1 3 31.1018 -3241.37748496 0 0 0 0 0
652 1 3 31.1018 -3237.13484427 0 0 0 0 0
653 1 3 31.1018 -3232.89220358 0 0 0 0 0
654 1 3 31.1018 -3228.6495629 0 0 0 0 0
655 1 3 31.1018 -3224.40692221 0 0 0 0 0
656 1 3 31.1018 -3220.16428152 0 0 0 0 0
657 1 3 31.1018 -3215.92164084 0 0 0 0 0
658 1 3 31.1018 -3211.67900015 0 0 0 0 0
659 1 3 31.1018 -3207.43635946 0 0 0 0 0
660 1 3 31.1018 -3203.19371878 0 0 0 0 0
661 1 3 31.1018 -3198.95107809 0 0 0 0 0
662 1 3 31.1018 -3194.7084374 0 0 0 0 0
663 1 3 31.1018 -3190.46579671 0 0 0 0 0
664 1 3 31.1018 -3186.22315603 0 0 0 0 0
665 1 3 31.1018 -3181.98051534 0 0 0 0 0
666 1 3 31.1018 -3177.73787465 0 0 0 0 0
667 1 3 31.1018 -3173.49523397 0 0 0 0 0
668 1 3 31.1018 -3169.25259328 0 0 0 0 0
669 1 3 31.1018 -3165.00995259 0 0 0 0 0
670 1 3 31.1018 -3160.7673119 0 0 0 0 0
671 1 3 31.1018 -3156.52467122 0 0 0 0 0
672 1 3 31.1018 -3152.28203053 0 0 0 0 0
673 1 3 31.1018 -3148.03938984 0 0 0 0 0
674 1 3 31.1018 -3143.79674916 0 0 0 0 0
675 1 3 31.1018 -3139.55410847 0 0 0 0 0
676 1 3 31.1018 -3135.31146778 0 0 0 0 0
677 1 3 31.1018 -3131.06882709 0 0 0 0 0
678 1 3 31.1018 -3126.82618641 0 0 0 0 0
679 1 3 31.1018 -3122.58354572 0 0 0 0 0
680 1 3 31.1018 -3118.34090503 0 0 0 0 0
681 1 3 31.1018 -3114.09826435 0 0 0 0 0
682 1 3 31.1018 -3109.85562366 0 0 0 0 0
683 1 3 31.1018 -3105.61298297 0 0 0 0 0
684 1 3 31.1018 -3101.37034228 0 0 0 0 0
685 1 3 31.1018 -3097.1277016 0 0 0 0 0
686 1 3 31.1018 -3092.88506091 0 0 0 0 0
687 1 3 31.1018 -3088.64242022 0 0 0 0 0
688 1 3 31.1018 -3084.39977954 0 0 0 0 0
689 1 3 31.1018 -3080.15713885 0 0 0 0 0
690 1 3 31.1018 -3075.91449816 0 0 0 0 0
691 1 3 31.1018 -3071.67185747 0 0 0 0 0
692 1 3 31.1018 -3067.42921679 0 0 0 0 0
693 1 3 31.1018 -3063.1865761 0 0 0 0 0
694 1 3 31.1018 -3058.94393541 0 0 0 0 0
695 1 3 31.1018 -3054.70129473 0 0 0 0 0
696 1 3 31.1018 -3050.45865404 0 0 0 0 0
697 1 3 31.1018 -3046.21601335 0 0 0 0 0
698 1 3 31.1018 -3041.97337266 0 0 0 0 0
699 1 3 31.1018 -3037.73073198 0 0 0 0 0
700 1 3 31.1018 -3033.48809129 0 0 0 0 0
701 1 3 31.1018 -3029.2454506 0 0 0 0 0
702 1 3 31.1018 -3025.00280992 0 0 0 0 0
703 1 3 31.1018 -3020.76016923 0 0 0 0 0
704 1 3 31.1018 -3016.51752854 0 0 0 0 0
705 1 3 31.1018 -3012.27488785 0 0 0 0 0
706 1 3 31.1018 -3008.03224717 0 0 0 0 0
707 1 3 31.1018 -3003.78960648 0 0 0 0 0
2830 2 3 31.1018 -4242 0 2.99506329015 0 0 -1000
2831 2 3 31.1018 -4239 0 2.99506329015 0 0 -1000
2832 2 3 31.1018 -4236 0 2.99506329015 0 0 -1000
2833 2 3 31.1018 -4233 0 2.99506329015 0 0 -1000
2834 2 3 31.1018 -4230 0 2.99506329015 -349.819 0 12377.2
2835 2 3 31.1018 -4227 0 2.99506329015 0 0 -1000
2836 2 3 31.1018 -4224 0 2.99506329015 0 0 -1000
2837 2 3 31.1018 -4221 0 2.99506329015 0 0 -1000
2838 2 3 31.1018 -4218 0 2.99506329015 0 0 -1000
2839 2 3 31.1018 -4215 0 2.99506329015 0 0 -1000
2840 2 3 31.1018 -4212 0 2.99506329015 0 0 -1000
2841 2 3 31.1018 -4209 0 2.99506329015 0 0 -1000
2842 2 3 31.1018 -4206 0 2.99506329015 0 0 -1000
2843 2 3 31.1018 -4203 0 2.99506329015 0 0 -1000
2844 2 3 31.1018 -4200 0 2.99506329015 0 0 -1000
2845 2 3 31.1018 -4197 0 2.99506329015 0 0 -1000
2846 2 3 31.1018 -4194 0 2.99506329015 0 0 -1000
2847 2 3 31.1018 -4191 0 2.99506329015 0 0 -1000