LAMMPS (23 Jun 2022 - Update 1)
  using 1 OpenMP thread(s) per MPI task
variable num index 1 2 3 4 5 6 7 8 9 10 11 12 13 14 15 16 17 18 19 20 21 22 23 24 25 26 27 28 29 30 31 32 33 34 35 36 37 38 39 40

label startloop

include granular.in
### Simulation of contact between two chain

##################### Simulation setup ####################

units micro                              # units
dimension	3                            # dimension
boundary	p p p                        # boundary condition p: periodic
atom_style	sphere                       # atom style
#processors * * 1

####################### Parameter ##################################

variable ind equal ${num}
variable ind equal 1

variable lat1 equal 3*(2^(1/2))
variable lat2 equal 3
variable d1 equal 3                      # Diamter of particle at bottom chain
variable d2 equal 3                      # Diamter of particle at upper chain

variable n2e1 equal 1000*v_lat1              # Half length of top chain. 1500 is number of particles
variable n1e1 equal v_n2e1*(v_lat1/v_lat2)              # Half length of bottom chain, which is 1.5 time larger than top chain
variable n1e2 equal -v_n1e1
variable n2e2 equal -v_n2e1
#variable x_shift equal -0.25*v_d1

variable den equal 2.2 #grams/cm^3      # micrometer^3=10^-12 cm^3 Density of materials

variable V1 equal (1/6)*PI*(v_d1^3)     # Volume of particle 1
variable V2 equal (1/6)*PI*(v_d2^3)     # Volume of particle 2

variable mass1 equal v_den*v_V1  # Mass of particle 1 (picograms)
variable mass2 equal v_den*v_V2  # Mass of particle 2 (picograms)

# E GPa to picogram/(micrometer-microsecond^2)= 10^3 Pa= 10^-6 GPa
# Force unit(picogram-micrometer/microsecond^2)=10^-9 N= 1nN
# Spring stiffness (force/distance) 10^-3 N/m


variable E equal (10+(5*v_ind))*(10^6)                    # Young's Modulus using for Hertz/material model
variable PR equal 0.3                          # Poisson's ratio using for Hertz/material model
variable Fn equal -1000                        # Force apply to each particles in top chain
variable dt equal 0.00001                      # Time step units microsecond
variable lgv equal 0.5                         #damping for langevin thermostat for slider



################### Creating the model #################################
lattice sc ${lat1}                                                               # Bottom chain type1
lattice sc 4.24264068711929                                                               
Lattice spacing in x,y,z = 4.2426407 4.2426407 4.2426407

region box block ${n1e2} ${n1e1} -50 50 -50 50 units box
region box block -6000.00000000001 ${n1e1} -50 50 -50 50 units box
region box block -6000.00000000001 6000.00000000001 -50 50 -50 50 units box
region substrate block ${n1e2} ${n1e1} -0.1 0.1 0 0.1 units box
region substrate block -6000.00000000001 ${n1e1} -0.1 0.1 0 0.1 units box
region substrate block -6000.00000000001 6000.00000000001 -0.1 0.1 0 0.1 units box

create_box 2 box
Created orthogonal box = (-6000 -50 -50) to (6000 50 50)
  4 by 1 by 1 MPI processor grid
create_atoms 1 region substrate
Created 2829 atoms
  using lattice units in orthogonal box = (-6000 -50 -50) to (6000 50 50)
  create_atoms CPU = 0.001 seconds

lattice sc ${lat2}                                                             # Top chain type2
lattice sc 3                                                             
Lattice spacing in x,y,z = 3 3 3

region slider1 block ${n2e2} ${n2e1} -0.1 0.1 5.9 6.1 units box
region slider1 block -4242.64068711929 ${n2e1} -0.1 0.1 5.9 6.1 units box
region slider1 block -4242.64068711929 4242.64068711929 -0.1 0.1 5.9 6.1 units box

create_atoms 2 region slider1
Created 2829 atoms
  using lattice units in orthogonal box = (-6000 -50 -50) to (6000 50 50)
  create_atoms CPU = 0.001 seconds


set type 1 diameter ${d1}                    # Set mass and diameter for each particles type
set type 1 diameter 3                    
Setting atom values ...
  2829 settings made for diameter
set type 1 mass ${mass1}
set type 1 mass 31.101767270539
Setting atom values ...
  2829 settings made for mass
set type 2 diameter ${d2}                    # Set mass and diameter for each particles type
set type 2 diameter 3                    
Setting atom values ...
  2829 settings made for diameter
set type 2 mass ${mass2}
set type 2 mass 31.101767270539
Setting atom values ...
  2829 settings made for mass


group substrate region substrate           # Define gorup
2829 atoms in group substrate
group slider1 region slider1
2829 atoms in group slider1
#displace_atoms slider1 move ${x_shift} 0.0 0.0
#group substrate_slider union substrate slider1

########################## Potential ###################################
pair_style granular
pair_coeff 1 1 hertz/material 0.00000001 0.001 ${PR} tangential mindlin NULL 0.1 0.01 damping viscoelastic
pair_coeff 1 1 hertz/material 0.00000001 0.001 0.3 tangential mindlin NULL 0.1 0.01 damping viscoelastic
pair_coeff 2 2 hertz/material 0.00000001 0.001 ${PR} tangential mindlin NULL 0.1 0.01 damping viscoelastic
pair_coeff 2 2 hertz/material 0.00000001 0.001 0.3 tangential mindlin NULL 0.1 0.01 damping viscoelastic
pair_coeff 1 2 hertz/material ${E} 0.001 ${PR} tangential mindlin NULL 0.1 0.01 damping viscoelastic
pair_coeff 1 2 hertz/material 15000000 0.001 ${PR} tangential mindlin NULL 0.1 0.01 damping viscoelastic
pair_coeff 1 2 hertz/material 15000000 0.001 0.3 tangential mindlin NULL 0.1 0.01 damping viscoelastic

comm_modify     vel yes
neigh_modify    delay 0 every 1 check yes

### Compute properties ###

compute 1 slider1 com                      # Compute the center of mass of top chain

variable p0 equal "step"

variable slider_z equal "c_1[3]"          # output the position of top chain in z-direction


thermo 100000
thermo_style custom step lx ly lz press pxx pyy pzz ke pe temp c_1[1] c_1[2] c_1[3]

############### Fix ##################


############## Equilibrium the system with apply force ########################

fix force_slider1 slider1 setforce NULL 0 NULL                                # Fix top chain not to move in y-direction

fix f_sub substrate freeze                                                    # Freeze the bottom chain

#fix nve_slider1 slider1 nve                   # Integrate motion for slider1 group
#fix lan_slider slider1 langevin 0 0 ${lgv} 6987532
fix rigid_top slider1 rigid/nve group 1 slider1 langevin 0 0 ${lgv} 6987532   # NVE+langevin
fix rigid_top slider1 rigid/nve group 1 slider1 langevin 0 0 0.5 6987532   
  1 rigid bodies with 2829 atoms

fix add slider1 addforce 0 0 ${Fn} every 1                                    # Add force to top layer
fix add slider1 addforce 0 0 -1000 every 1                                    

timestep ${dt}
timestep 1e-05

dump 		D1 all custom 100000 Equi_${num}_*.dump id type diameter mass xu yu zu fx fy fz
dump 		D1 all custom 100000 Equi_1_*.dump id type diameter mass xu yu zu fx fy fz
dump_modify D1 format 5 %.12g
dump_modify D1 format 7 %.12g

run 3000000
Generated 0 of 1 mixed pair_coeff terms from geometric mixing rule
Neighbor list info ...
  update every 1 steps, delay 0 steps, check yes
  max neighbors/atom: 2000, page size: 100000
  master list distance cutoff = 3.1
  ghost atom cutoff = 3.1
  binsize = 1.55, bins = 7742 65 65
  1 neighbor lists, perpetual/occasional/extra = 1 0 0
  (1) pair granular, perpetual
      attributes: half, newton on, size, history
      pair build: half/size/bin/newton
      stencil: half/bin/3d
      bin: standard
Per MPI rank memory allocation (min/avg/max) = 49.12 | 49.12 | 49.12 Mbytes
   Step           Lx             Ly             Lz           Press           Pxx            Pyy            Pzz           KinEng         PotEng          Temp          c_1[1]         c_1[2]         c_1[3]    
         0   12000          100            100            4.1346247e-17  1.2403874e-16  0              0              0              0              0              0              0              6            
    100000   12000          100            100            0.018375757    1.2403874e-16  0              0.05512727     1555194.6      0              7.5094782e+13  0              0              3.3499484    
    200000   12000          100            100            0.0051126647   1.2403874e-16  0              0.015337994    257886.62      0              1.2452422e+13  0              0              3.1097441    
    300000   12000          100            100           -0.00157691    -1.2547382e-06  0             -0.0047294751   93120.972      0              4.4964785e+12  0              0              2.9994832    
    400000   12000          100            100            0.035250538   -0.016384829    0              0.12213644     15494.999      0              7.4819804e+11  0              0              2.983431     
    500000   12000          100            100            0.017792784   -0.012476939    0              0.065855292    2583.1018      0              1.2472874e+11  0              0              2.9878719    
    600000   12000          100            100            0.016620656   -0.012475994    0              0.062337961    211.44515      0              1.0209929e+10  0              0              2.9883233    
    700000   12000          100            100            0.020928975   -0.01195439     0              0.074741314    10.938783      0              5.2819469e+08  0              0              2.9871731    
    800000   12000          100            100            0.018904161   -0.011948974    0              0.068661457    0.10491434     0              5065937.9      0              0              2.9877134    
    900000   12000          100            100            0.019724958   -0.011893166    0              0.071068039    0.042189857    0              2037197.2      0              0              2.9874993    
   1000000   12000          100            100            0.019458268   -0.011861119    0              0.070235921    0.032663066    0              1577182.6      0              0              2.9875721    
   1100000   12000          100            100            0.019538889   -0.011863619    0              0.070480286    0.0090680811   0              437865.18      0              0              2.987551     
   1200000   12000          100            100            0.019520488   -0.011862998    0              0.070424462    0.0016461968   0              79488.95       0              0              2.9875557    
   1300000   12000          100            100            0.019522328   -0.011863051    0              0.070430035    0.00022195689  0              10717.504      0              0              2.9875553    
   1400000   12000          100            100            0.019523507   -0.011863097    0              0.070433618    2.2388647e-05  0              1081.0676      0              0              2.9875549    
   1500000   12000          100            100            0.019522468   -0.011863059    0              0.070430462    1.5322626e-06  0              73.987476      0              0              2.9875552    
   1600000   12000          100            100            0.019523015   -0.011863079    0              0.070432124    4.5805181e-08  0              2.2117683      0              0              2.9875551    
   1700000   12000          100            100            0.019522782   -0.01186307     0              0.070431416    3.3344982e-10  0              0.016101098    0              0              2.9875551    
   1800000   12000          100            100            0.019522868   -0.011863073    0              0.070431676    1.6422573e-09  0              0.07929873     0              0              2.9875551    
   1900000   12000          100            100            0.01952284    -0.011863072    0              0.070431593    6.2483782e-10  0              0.030171182    0              0              2.9875551    
   2000000   12000          100            100            0.019522847   -0.011863073    0              0.070431615    1.3376856e-10  0              0.0064592051   0              0              2.9875551    
   2100000   12000          100            100            0.019522846   -0.011863073    0              0.070431611    2.0514075e-11  0              0.00099055125  0              0              2.9875551    
   2200000   12000          100            100            0.019522846   -0.011863073    0              0.070431611    2.3702973e-12  0              0.00011445318  0              0              2.9875551    
   2300000   12000          100            100            0.019522846   -0.011863073    0              0.070431612    1.977077e-13   0              9.5465974e-06  0              0              2.9875551    
   2400000   12000          100            100            0.019522846   -0.011863073    0              0.070431611    9.6529916e-15  0              4.6610842e-07  0              0              2.9875551    
   2500000   12000          100            100            0.019522846   -0.011863073    0              0.070431611    7.1166182e-17  0              3.4363602e-09  0              0              2.9875551    
   2600000   12000          100            100            0.019522846   -0.011863073    0              0.070431611    6.6336422e-17  0              3.2031484e-09  0              0              2.9875551    
   2700000   12000          100            100            0.019522846   -0.011863073    0              0.070431611    9.2210689e-17  0              4.4525242e-09  0              0              2.9875551    
   2800000   12000          100            100            0.019522846   -0.011863073    0              0.070431611    2.4354609e-17  0              1.1759969e-09  0              0              2.9875551    
   2900000   12000          100            100            0.019522846   -0.011863073    0              0.070431611    1.2209661e-18  0              5.8956082e-11  0              0              2.9875551    
   3000000   12000          100            100            0.019522846   -0.011863073    0              0.070431611    9.4956683e-19  0              4.5851184e-11  0              0              2.9875551    
Loop time of 572.921 on 4 procs for 3000000 steps with 5658 atoms

Performance: 4524182.386 ns/day, 0.000 hours/ns, 5236.322 timesteps/s
100.0% CPU use with 4 MPI tasks x 1 OpenMP threads

MPI task timing breakdown:
Section |  min time  |  avg time  |  max time  |%varavg| %total
---------------------------------------------------------------
Pair    | 79.997     | 118.04     | 156        | 337.7 | 20.60
Neigh   | 1.8274     | 1.8406     | 1.8532     |   0.9 |  0.32
Comm    | 23.732     | 61.715     | 99.805     | 461.5 | 10.77
Output  | 0.4867     | 0.48712    | 0.48764    |   0.1 |  0.09
Modify  | 271.52     | 312.73     | 354.58     | 230.1 | 54.58
Other   |            | 78.12      |            |       | 13.63

Nlocal:         1414.5 ave        1708 max        1121 min
Histogram: 2 0 0 0 0 0 0 0 0 2
Nghost:            3.5 ave           4 max           3 min
Histogram: 2 0 0 0 0 0 0 0 0 2
Neighs:            970 ave        1372 max         568 min
Histogram: 2 0 0 0 0 0 0 0 0 2

Total # of neighbors = 3880
Ave neighs/atom = 0.68575468
Neighbor list builds = 164
Dangerous builds = 0

undump D1


clear
  using 1 OpenMP thread(s) per MPI task

next num

jump SELF startloop

include granular.in
### Simulation of contact between two chain

##################### Simulation setup ####################

units micro                              # units
dimension	3                            # dimension
boundary	p p p                        # boundary condition p: periodic
atom_style	sphere                       # atom style
#processors * * 1

####################### Parameter ##################################

variable ind equal ${num}
variable ind equal 2

variable lat1 equal 3*(2^(1/2))
variable lat2 equal 3
variable d1 equal 3                      # Diamter of particle at bottom chain
variable d2 equal 3                      # Diamter of particle at upper chain

variable n2e1 equal 1000*v_lat1              # Half length of top chain. 1500 is number of particles
variable n1e1 equal v_n2e1*(v_lat1/v_lat2)              # Half length of bottom chain, which is 1.5 time larger than top chain
variable n1e2 equal -v_n1e1
variable n2e2 equal -v_n2e1
#variable x_shift equal -0.25*v_d1

variable den equal 2.2 #grams/cm^3      # micrometer^3=10^-12 cm^3 Density of materials

variable V1 equal (1/6)*PI*(v_d1^3)     # Volume of particle 1
variable V2 equal (1/6)*PI*(v_d2^3)     # Volume of particle 2

variable mass1 equal v_den*v_V1  # Mass of particle 1 (picograms)
variable mass2 equal v_den*v_V2  # Mass of particle 2 (picograms)

# E GPa to picogram/(micrometer-microsecond^2)= 10^3 Pa= 10^-6 GPa
# Force unit(picogram-micrometer/microsecond^2)=10^-9 N= 1nN
# Spring stiffness (force/distance) 10^-3 N/m


variable E equal (10+(5*v_ind))*(10^6)                    # Young's Modulus using for Hertz/material model
variable PR equal 0.3                          # Poisson's ratio using for Hertz/material model
variable Fn equal -1000                        # Force apply to each particles in top chain
variable dt equal 0.00001                      # Time step units microsecond
variable lgv equal 0.5                         #damping for langevin thermostat for slider



################### Creating the model #################################
lattice sc ${lat1}                                                               # Bottom chain type1
lattice sc 4.24264068711929                                                               
Lattice spacing in x,y,z = 4.2426407 4.2426407 4.2426407

region box block ${n1e2} ${n1e1} -50 50 -50 50 units box
region box block -6000.00000000001 ${n1e1} -50 50 -50 50 units box
region box block -6000.00000000001 6000.00000000001 -50 50 -50 50 units box
region substrate block ${n1e2} ${n1e1} -0.1 0.1 0 0.1 units box
region substrate block -6000.00000000001 ${n1e1} -0.1 0.1 0 0.1 units box
region substrate block -6000.00000000001 6000.00000000001 -0.1 0.1 0 0.1 units box

create_box 2 box
Created orthogonal box = (-6000 -50 -50) to (6000 50 50)
  4 by 1 by 1 MPI processor grid
create_atoms 1 region substrate
Created 2829 atoms
  using lattice units in orthogonal box = (-6000 -50 -50) to (6000 50 50)
  create_atoms CPU = 0.001 seconds

lattice sc ${lat2}                                                             # Top chain type2
lattice sc 3                                                             
Lattice spacing in x,y,z = 3 3 3

region slider1 block ${n2e2} ${n2e1} -0.1 0.1 5.9 6.1 units box
region slider1 block -4242.64068711929 ${n2e1} -0.1 0.1 5.9 6.1 units box
region slider1 block -4242.64068711929 4242.64068711929 -0.1 0.1 5.9 6.1 units box

create_atoms 2 region slider1
Created 2829 atoms
  using lattice units in orthogonal box = (-6000 -50 -50) to (6000 50 50)
  create_atoms CPU = 0.001 seconds


set type 1 diameter ${d1}                    # Set mass and diameter for each particles type
set type 1 diameter 3                    
Setting atom values ...
  2829 settings made for diameter
set type 1 mass ${mass1}
set type 1 mass 31.101767270539
Setting atom values ...
  2829 settings made for mass
set type 2 diameter ${d2}                    # Set mass and diameter for each particles type
set type 2 diameter 3                    
Setting atom values ...
  2829 settings made for diameter
set type 2 mass ${mass2}
set type 2 mass 31.101767270539
Setting atom values ...
  2829 settings made for mass


group substrate region substrate           # Define gorup
2829 atoms in group substrate
group slider1 region slider1
2829 atoms in group slider1
#displace_atoms slider1 move ${x_shift} 0.0 0.0
#group substrate_slider union substrate slider1

########################## Potential ###################################
pair_style granular
pair_coeff 1 1 hertz/material 0.00000001 0.001 ${PR} tangential mindlin NULL 0.1 0.01 damping viscoelastic
pair_coeff 1 1 hertz/material 0.00000001 0.001 0.3 tangential mindlin NULL 0.1 0.01 damping viscoelastic
pair_coeff 2 2 hertz/material 0.00000001 0.001 ${PR} tangential mindlin NULL 0.1 0.01 damping viscoelastic
pair_coeff 2 2 hertz/material 0.00000001 0.001 0.3 tangential mindlin NULL 0.1 0.01 damping viscoelastic
pair_coeff 1 2 hertz/material ${E} 0.001 ${PR} tangential mindlin NULL 0.1 0.01 damping viscoelastic
pair_coeff 1 2 hertz/material 20000000 0.001 ${PR} tangential mindlin NULL 0.1 0.01 damping viscoelastic
pair_coeff 1 2 hertz/material 20000000 0.001 0.3 tangential mindlin NULL 0.1 0.01 damping viscoelastic

comm_modify     vel yes
neigh_modify    delay 0 every 1 check yes

### Compute properties ###

compute 1 slider1 com                      # Compute the center of mass of top chain

variable p0 equal "step"

variable slider_z equal "c_1[3]"          # output the position of top chain in z-direction


thermo 100000
thermo_style custom step lx ly lz press pxx pyy pzz ke pe temp c_1[1] c_1[2] c_1[3]

############### Fix ##################


############## Equilibrium the system with apply force ########################

fix force_slider1 slider1 setforce NULL 0 NULL                                # Fix top chain not to move in y-direction

fix f_sub substrate freeze                                                    # Freeze the bottom chain

#fix nve_slider1 slider1 nve                   # Integrate motion for slider1 group
#fix lan_slider slider1 langevin 0 0 ${lgv} 6987532
fix rigid_top slider1 rigid/nve group 1 slider1 langevin 0 0 ${lgv} 6987532   # NVE+langevin
fix rigid_top slider1 rigid/nve group 1 slider1 langevin 0 0 0.5 6987532   
  1 rigid bodies with 2829 atoms

fix add slider1 addforce 0 0 ${Fn} every 1                                    # Add force to top layer
fix add slider1 addforce 0 0 -1000 every 1                                    

timestep ${dt}
timestep 1e-05

dump 		D1 all custom 100000 Equi_${num}_*.dump id type diameter mass xu yu zu fx fy fz
dump 		D1 all custom 100000 Equi_2_*.dump id type diameter mass xu yu zu fx fy fz
dump_modify D1 format 5 %.12g
dump_modify D1 format 7 %.12g

run 3000000
Generated 0 of 1 mixed pair_coeff terms from geometric mixing rule
Neighbor list info ...
  update every 1 steps, delay 0 steps, check yes
  max neighbors/atom: 2000, page size: 100000
  master list distance cutoff = 3.1
  ghost atom cutoff = 3.1
  binsize = 1.55, bins = 7742 65 65
  1 neighbor lists, perpetual/occasional/extra = 1 0 0
  (1) pair granular, perpetual
      attributes: half, newton on, size, history
      pair build: half/size/bin/newton
      stencil: half/bin/3d
      bin: standard
Per MPI rank memory allocation (min/avg/max) = 49.12 | 49.12 | 49.12 Mbytes
   Step           Lx             Ly             Lz           Press           Pxx            Pyy            Pzz           KinEng         PotEng          Temp          c_1[1]         c_1[2]         c_1[3]    
         0   12000          100            100            4.1346247e-17  1.2403874e-16  0              0              0              0              0              0              0              6            
    100000   12000          100            100            0.018523408    1.2403874e-16  0              0.055570223    1573651.9      0              7.5986016e+13  0              0              3.3456743    
    200000   12000          100            100            0.0054244514   1.2403874e-16  0              0.016273354    283350.64      0              1.3681988e+13  0              0              3.1040121    
    300000   12000          100            100           -0.0013206316   1.2403874e-16  0             -0.0039618949   52642.795      0              2.5419322e+12  0              0              3.0158       
    400000   12000          100            100           -0.00015779138  1.2403874e-16  0             -0.00047337415  525.25121      0              2.5362501e+10  0              0              3.0000031    
    500000   12000          100            100            0.012617531   -0.014813006    0              0.052665599    2333.4137      0              1.126722e+11   0              0              2.9906001    
    600000   12000          100            100            0.014125862   -0.013729619    0              0.056107204    24.54544       0              1.1852114e+09  0              0              2.9903958    
    700000   12000          100            100            0.020184684   -0.012668313    0              0.073222366    37.226307      0              1.7975252e+09  0              0              2.9890254    
    800000   12000          100            100            0.019832558   -0.012373602    0              0.071871275    3.2591022      0              1.5737038e+08  0              0              2.9891147    
    900000   12000          100            100            0.01918864    -0.012247698    0              0.069813618    0.17862475     0              8625149.7      0              0              2.9892741    
   1000000   12000          100            100            0.019384621   -0.01227143     0              0.070425294    0.10684095     0              5158967.1      0              0              2.9892283    
   1100000   12000          100            100            0.019431687   -0.012272555    0              0.070567614    0.00019008161  0              9178.3607      0              0              2.9892169    
   1200000   12000          100            100            0.019394742   -0.012272112    0              0.070456337    0.0016198112   0              78214.883      0              0              2.9892254    
   1300000   12000          100            100            0.019396384   -0.012272166    0              0.070461319    0.00010857165  0              5242.5366      0              0              2.9892251    
   1400000   12000          100            100            0.019400869   -0.01227235     0              0.070474956    9.5620992e-06  0              461.71955      0              0              2.989224     
   1500000   12000          100            100            0.019399694   -0.012272303    0              0.070471384    4.1515664e-06  0              200.46428      0              0              2.9892243    
   1600000   12000          100            100            0.019399352   -0.012272289    0              0.070470345    7.1286113e-10  0              0.034421513    0              0              2.9892244    
   1700000   12000          100            100            0.01939958    -0.012272298    0              0.070471039    6.9451781e-08  0              3.3535779      0              0              2.9892243    
   1800000   12000          100            100            0.019399577   -0.012272298    0              0.070471028    3.5797734e-09  0              0.17285445     0              0              2.9892243    
   1900000   12000          100            100            0.019399547   -0.012272297    0              0.070470939    4.8582501e-10  0              0.023458751    0              0              2.9892243    
   2000000   12000          100            100            0.019399554   -0.012272297    0              0.070470959    1.5913304e-10  0              0.007683965    0              0              2.9892243    
   2100000   12000          100            100            0.019399557   -0.012272297    0              0.070470967    4.7379786e-14  0              2.2878003e-06  0              0              2.9892243    
   2200000   12000          100            100            0.019399555   -0.012272297    0              0.070470963    2.9353383e-12  0              0.00014173698  0              0              2.9892243    
   2300000   12000          100            100            0.019399555   -0.012272297    0              0.070470963    1.1425462e-13  0              5.5169467e-06  0              0              2.9892243    
   2400000   12000          100            100            0.019399555   -0.012272297    0              0.070470963    2.4084896e-14  0              1.1629734e-06  0              0              2.9892243    
   2500000   12000          100            100            0.019399555   -0.012272297    0              0.070470963    5.9281783e-15  0              2.8625051e-07  0              0              2.9892243    
   2600000   12000          100            100            0.019399555   -0.012272297    0              0.070470963    1.8512251e-17  0              8.9389035e-10  0              0              2.9892243    
   2700000   12000          100            100            0.019399555   -0.012272297    0              0.070470963    9.7783123e-17  0              4.721597e-09   0              0              2.9892243    
   2800000   12000          100            100            0.019399555   -0.012272297    0              0.070470963    2.5138433e-17  0              1.2138449e-09  0              0              2.9892243    
   2900000   12000          100            100            0.019399555   -0.012272297    0              0.070470963    1.1443007e-17  0              5.5254185e-10  0              0              2.9892243    
   3000000   12000          100            100            0.019399555   -0.012272297    0              0.070470963    2.233581e-20   0              1.0785163e-12  0              0              2.9892243    
Loop time of 571.153 on 4 procs for 3000000 steps with 5658 atoms

Performance: 4538187.978 ns/day, 0.000 hours/ns, 5252.532 timesteps/s
100.0% CPU use with 4 MPI tasks x 1 OpenMP threads

MPI task timing breakdown:
Section |  min time  |  avg time  |  max time  |%varavg| %total
---------------------------------------------------------------
Pair    | 82.633     | 117.57     | 152.63     | 320.9 | 20.58
Neigh   | 1.8348     | 1.8525     | 1.8701     |   1.0 |  0.32
Comm    | 24.58      | 59.752     | 93.988     | 442.3 | 10.46
Output  | 0.48194    | 0.48237    | 0.48285    |   0.1 |  0.08
Modify  | 271.39     | 312.59     | 354.81     | 230.6 | 54.73
Other   |            | 78.9       |            |       | 13.81

Nlocal:         1414.5 ave        1708 max        1121 min
Histogram: 2 0 0 0 0 0 0 0 0 2
Nghost:            3.5 ave           4 max           3 min
Histogram: 2 0 0 0 0 0 0 0 0 2
Neighs:            970 ave        1372 max         568 min
Histogram: 2 0 0 0 0 0 0 0 0 2

Total # of neighbors = 3880
Ave neighs/atom = 0.68575468
Neighbor list builds = 164
Dangerous builds = 0

undump D1


clear
  using 1 OpenMP thread(s) per MPI task

next num

jump SELF startloop

include granular.in
### Simulation of contact between two chain

##################### Simulation setup ####################

units micro                              # units
dimension	3                            # dimension
boundary	p p p                        # boundary condition p: periodic
atom_style	sphere                       # atom style
#processors * * 1

####################### Parameter ##################################

variable ind equal ${num}
variable ind equal 3

variable lat1 equal 3*(2^(1/2))
variable lat2 equal 3
variable d1 equal 3                      # Diamter of particle at bottom chain
variable d2 equal 3                      # Diamter of particle at upper chain

variable n2e1 equal 1000*v_lat1              # Half length of top chain. 1500 is number of particles
variable n1e1 equal v_n2e1*(v_lat1/v_lat2)              # Half length of bottom chain, which is 1.5 time larger than top chain
variable n1e2 equal -v_n1e1
variable n2e2 equal -v_n2e1
#variable x_shift equal -0.25*v_d1

variable den equal 2.2 #grams/cm^3      # micrometer^3=10^-12 cm^3 Density of materials

variable V1 equal (1/6)*PI*(v_d1^3)     # Volume of particle 1
variable V2 equal (1/6)*PI*(v_d2^3)     # Volume of particle 2

variable mass1 equal v_den*v_V1  # Mass of particle 1 (picograms)
variable mass2 equal v_den*v_V2  # Mass of particle 2 (picograms)

# E GPa to picogram/(micrometer-microsecond^2)= 10^3 Pa= 10^-6 GPa
# Force unit(picogram-micrometer/microsecond^2)=10^-9 N= 1nN
# Spring stiffness (force/distance) 10^-3 N/m


variable E equal (10+(5*v_ind))*(10^6)                    # Young's Modulus using for Hertz/material model
variable PR equal 0.3                          # Poisson's ratio using for Hertz/material model
variable Fn equal -1000                        # Force apply to each particles in top chain
variable dt equal 0.00001                      # Time step units microsecond
variable lgv equal 0.5                         #damping for langevin thermostat for slider



################### Creating the model #################################
lattice sc ${lat1}                                                               # Bottom chain type1
lattice sc 4.24264068711929                                                               
Lattice spacing in x,y,z = 4.2426407 4.2426407 4.2426407

region box block ${n1e2} ${n1e1} -50 50 -50 50 units box
region box block -6000.00000000001 ${n1e1} -50 50 -50 50 units box
region box block -6000.00000000001 6000.00000000001 -50 50 -50 50 units box
region substrate block ${n1e2} ${n1e1} -0.1 0.1 0 0.1 units box
region substrate block -6000.00000000001 ${n1e1} -0.1 0.1 0 0.1 units box
region substrate block -6000.00000000001 6000.00000000001 -0.1 0.1 0 0.1 units box

create_box 2 box
Created orthogonal box = (-6000 -50 -50) to (6000 50 50)
  4 by 1 by 1 MPI processor grid
create_atoms 1 region substrate
Created 2829 atoms
  using lattice units in orthogonal box = (-6000 -50 -50) to (6000 50 50)
  create_atoms CPU = 0.001 seconds

lattice sc ${lat2}                                                             # Top chain type2
lattice sc 3                                                             
Lattice spacing in x,y,z = 3 3 3

region slider1 block ${n2e2} ${n2e1} -0.1 0.1 5.9 6.1 units box
region slider1 block -4242.64068711929 ${n2e1} -0.1 0.1 5.9 6.1 units box
region slider1 block -4242.64068711929 4242.64068711929 -0.1 0.1 5.9 6.1 units box

create_atoms 2 region slider1
Created 2829 atoms
  using lattice units in orthogonal box = (-6000 -50 -50) to (6000 50 50)
  create_atoms CPU = 0.001 seconds


set type 1 diameter ${d1}                    # Set mass and diameter for each particles type
set type 1 diameter 3                    
Setting atom values ...
  2829 settings made for diameter
set type 1 mass ${mass1}
set type 1 mass 31.101767270539
Setting atom values ...
  2829 settings made for mass
set type 2 diameter ${d2}                    # Set mass and diameter for each particles type
set type 2 diameter 3                    
Setting atom values ...
  2829 settings made for diameter
set type 2 mass ${mass2}
set type 2 mass 31.101767270539
Setting atom values ...
  2829 settings made for mass


group substrate region substrate           # Define gorup
2829 atoms in group substrate
group slider1 region slider1
2829 atoms in group slider1
#displace_atoms slider1 move ${x_shift} 0.0 0.0
#group substrate_slider union substrate slider1

########################## Potential ###################################
pair_style granular
pair_coeff 1 1 hertz/material 0.00000001 0.001 ${PR} tangential mindlin NULL 0.1 0.01 damping viscoelastic
pair_coeff 1 1 hertz/material 0.00000001 0.001 0.3 tangential mindlin NULL 0.1 0.01 damping viscoelastic
pair_coeff 2 2 hertz/material 0.00000001 0.001 ${PR} tangential mindlin NULL 0.1 0.01 damping viscoelastic
pair_coeff 2 2 hertz/material 0.00000001 0.001 0.3 tangential mindlin NULL 0.1 0.01 damping viscoelastic
pair_coeff 1 2 hertz/material ${E} 0.001 ${PR} tangential mindlin NULL 0.1 0.01 damping viscoelastic
pair_coeff 1 2 hertz/material 25000000 0.001 ${PR} tangential mindlin NULL 0.1 0.01 damping viscoelastic
pair_coeff 1 2 hertz/material 25000000 0.001 0.3 tangential mindlin NULL 0.1 0.01 damping viscoelastic

comm_modify     vel yes
neigh_modify    delay 0 every 1 check yes

### Compute properties ###

compute 1 slider1 com                      # Compute the center of mass of top chain

variable p0 equal "step"

variable slider_z equal "c_1[3]"          # output the position of top chain in z-direction


thermo 100000
thermo_style custom step lx ly lz press pxx pyy pzz ke pe temp c_1[1] c_1[2] c_1[3]

############### Fix ##################


############## Equilibrium the system with apply force ########################

fix force_slider1 slider1 setforce NULL 0 NULL                                # Fix top chain not to move in y-direction

fix f_sub substrate freeze                                                    # Freeze the bottom chain

#fix nve_slider1 slider1 nve                   # Integrate motion for slider1 group
#fix lan_slider slider1 langevin 0 0 ${lgv} 6987532
fix rigid_top slider1 rigid/nve group 1 slider1 langevin 0 0 ${lgv} 6987532   # NVE+langevin
fix rigid_top slider1 rigid/nve group 1 slider1 langevin 0 0 0.5 6987532   
  1 rigid bodies with 2829 atoms

fix add slider1 addforce 0 0 ${Fn} every 1                                    # Add force to top layer
fix add slider1 addforce 0 0 -1000 every 1                                    

timestep ${dt}
timestep 1e-05

dump 		D1 all custom 100000 Equi_${num}_*.dump id type diameter mass xu yu zu fx fy fz
dump 		D1 all custom 100000 Equi_3_*.dump id type diameter mass xu yu zu fx fy fz
dump_modify D1 format 5 %.12g
dump_modify D1 format 7 %.12g

run 3000000
Generated 0 of 1 mixed pair_coeff terms from geometric mixing rule
Neighbor list info ...
  update every 1 steps, delay 0 steps, check yes
  max neighbors/atom: 2000, page size: 100000
  master list distance cutoff = 3.1
  ghost atom cutoff = 3.1
  binsize = 1.55, bins = 7742 65 65
  1 neighbor lists, perpetual/occasional/extra = 1 0 0
  (1) pair granular, perpetual
      attributes: half, newton on, size, history
      pair build: half/size/bin/newton
      stencil: half/bin/3d
      bin: standard
Per MPI rank memory allocation (min/avg/max) = 49.12 | 49.12 | 49.12 Mbytes
   Step           Lx             Ly             Lz           Press           Pxx            Pyy            Pzz           KinEng         PotEng          Temp          c_1[1]         c_1[2]         c_1[3]    
         0   12000          100            100            4.1346247e-17  1.2403874e-16  0              0              0              0              0              0              0              6            
    100000   12000          100            100            0.018628306    1.2403874e-16  0              0.055884918    1586825        0              7.6622099e+13  0              0              3.3425604    
    200000   12000          100            100            0.0056486195   1.2403874e-16  0              0.016945859    302124.96      0              1.4588533e+13  0              0              3.0995925    
    300000   12000          100            100           -0.0010745631   1.2403874e-16  0             -0.0032236892   31347.517      0              1.5136594e+12  0              0              3.0250817    
    400000   12000          100            100            0.0026113897  -0.00033529879  0              0.008169468    11825.505      0              5.7101132e+11  0              0              2.9972713    
    500000   12000          100            100            0.031087409   -0.013840234    0              0.10710246     1397.3628      0              6.7473649e+10  0              0              2.9880723    
    600000   12000          100            100            0.024967747   -0.012536126    0              0.087439367    25.672306      0              1.2396238e+09  0              0              2.9892585    
    700000   12000          100            100            0.020849041   -0.014021494    0              0.076568616    2.1350873      0              1.0309572e+08  0              0              2.9899538    
    800000   12000          100            100            0.019499173   -0.014181355    0              0.072678873    0.30869847     0              14905945       0              0              2.9902139    
    900000   12000          100            100            0.019040846   -0.014162261    0              0.071284799    0.048553663    0              2344482.6      0              0              2.9903088    
   1000000   12000          100            100            0.01887565    -0.01415526     0              0.070782209    0.0076782007   0              370752.83      0              0              2.9903432    
   1100000   12000          100            100            0.018816613   -0.014150731    0              0.07060057     0.0012076385   0              58312.539      0              0              2.9903557    
   1200000   12000          100            100            0.018795494   -0.014148441    0              0.070534922    0.00018746536  0              9052.0313      0              0              2.9903602    
   1300000   12000          100            100            0.018787662   -0.014148217    0              0.070511203    2.8743851e-05  0              1387.9377      0              0              2.9903619    
   1400000   12000          100            100            0.018784835   -0.014148133    0              0.070502637    4.35919e-06    0              210.48969      0              0              2.9903624    
   1500000   12000          100            100            0.018783814   -0.014148103    0              0.070499546    6.5477046e-07  0              31.616522      0              0              2.9903627    
   1600000   12000          100            100            0.018783446   -0.014148092    0              0.070498431    9.7517599e-08  0              4.7087759      0              0              2.9903627    
   1700000   12000          100            100            0.018783314   -0.014148088    0              0.070498029    1.4414191e-08  0              0.6960097      0              0              2.9903628    
   1800000   12000          100            100            0.018783266   -0.014148086    0              0.070497884    2.1161543e-09  0              0.10218152     0              0              2.9903628    
   1900000   12000          100            100            0.018783249   -0.014148086    0              0.070497832    3.0879919e-10  0              0.014910808    0              0              2.9903628    
   2000000   12000          100            100            0.018783242   -0.014148086    0              0.070497813    4.4808504e-11  0              0.0021636423   0              0              2.9903628    
   2100000   12000          100            100            0.01878324    -0.014148086    0              0.070497806    6.4692677e-12  0              0.00031237779  0              0              2.9903628    
   2200000   12000          100            100            0.018783239   -0.014148086    0              0.070497804    9.2975744e-13  0              4.489466e-05   0              0              2.9903628    
   2300000   12000          100            100            0.018783239   -0.014148086    0              0.070497803    1.3302653e-13  0              6.4233752e-06  0              0              2.9903628    
   2400000   12000          100            100            0.018783239   -0.014148086    0              0.070497803    1.8769654e-14  0              9.0631941e-07  0              0              2.9903628    
   2500000   12000          100            100            0.018783239   -0.014148086    0              0.070497803    2.6827827e-15  0              1.2954198e-07  0              0              2.9903628    
   2600000   12000          100            100            0.018783239   -0.014148086    0              0.070497803    4.5057411e-16  0              2.1756611e-08  0              0              2.9903628    
   2700000   12000          100            100            0.018783239   -0.014148086    0              0.070497803    2.9618305e-19  0              1.430162e-11   0              0              2.9903628    
   2800000   12000          100            100            0.018783239   -0.014148086    0              0.070497803    2.187675e-18   0              1.05635e-10    0              0              2.9903628    
   2900000   12000          100            100            0.018783239   -0.014148086    0              0.070497803    1.3411698e-17  0              6.4760289e-10  0              0              2.9903628    
   3000000   12000          100            100            0.018783239   -0.014148086    0              0.070497803    4.688479e-18   0              2.2638987e-10  0              0              2.9903628    
Loop time of 567.293 on 4 procs for 3000000 steps with 5658 atoms

Performance: 4569065.535 ns/day, 0.000 hours/ns, 5288.270 timesteps/s
100.0% CPU use with 4 MPI tasks x 1 OpenMP threads

MPI task timing breakdown:
Section |  min time  |  avg time  |  max time  |%varavg| %total
---------------------------------------------------------------
Pair    | 78.911     | 114.29     | 152.5      | 330.4 | 20.15
Neigh   | 1.8026     | 1.8189     | 1.8355     |   1.0 |  0.32
Comm    | 24.619     | 60.442     | 97.351     | 438.3 | 10.65
Output  | 0.47899    | 0.47946    | 0.48       |   0.1 |  0.08
Modify  | 271.67     | 312.62     | 352.94     | 223.5 | 55.11
Other   |            | 77.63      |            |       | 13.69

Nlocal:         1414.5 ave        1709 max        1121 min
Histogram: 2 0 0 0 0 0 0 0 0 2
Nghost:            3.5 ave           4 max           2 min
Histogram: 1 0 0 0 0 0 0 0 0 3
Neighs:            970 ave        1373 max         568 min
Histogram: 2 0 0 0 0 0 0 0 0 2

Total # of neighbors = 3880
Ave neighs/atom = 0.68575468
Neighbor list builds = 164
Dangerous builds = 0

undump D1


clear
  using 1 OpenMP thread(s) per MPI task

next num

jump SELF startloop

include granular.in
### Simulation of contact between two chain

##################### Simulation setup ####################

units micro                              # units
dimension	3                            # dimension
boundary	p p p                        # boundary condition p: periodic
atom_style	sphere                       # atom style
#processors * * 1

####################### Parameter ##################################

variable ind equal ${num}
variable ind equal 4

variable lat1 equal 3*(2^(1/2))
variable lat2 equal 3
variable d1 equal 3                      # Diamter of particle at bottom chain
variable d2 equal 3                      # Diamter of particle at upper chain

variable n2e1 equal 1000*v_lat1              # Half length of top chain. 1500 is number of particles
variable n1e1 equal v_n2e1*(v_lat1/v_lat2)              # Half length of bottom chain, which is 1.5 time larger than top chain
variable n1e2 equal -v_n1e1
variable n2e2 equal -v_n2e1
#variable x_shift equal -0.25*v_d1

variable den equal 2.2 #grams/cm^3      # micrometer^3=10^-12 cm^3 Density of materials

variable V1 equal (1/6)*PI*(v_d1^3)     # Volume of particle 1
variable V2 equal (1/6)*PI*(v_d2^3)     # Volume of particle 2

variable mass1 equal v_den*v_V1  # Mass of particle 1 (picograms)
variable mass2 equal v_den*v_V2  # Mass of particle 2 (picograms)

# E GPa to picogram/(micrometer-microsecond^2)= 10^3 Pa= 10^-6 GPa
# Force unit(picogram-micrometer/microsecond^2)=10^-9 N= 1nN
# Spring stiffness (force/distance) 10^-3 N/m


variable E equal (10+(5*v_ind))*(10^6)                    # Young's Modulus using for Hertz/material model
variable PR equal 0.3                          # Poisson's ratio using for Hertz/material model
variable Fn equal -1000                        # Force apply to each particles in top chain
variable dt equal 0.00001                      # Time step units microsecond
variable lgv equal 0.5                         #damping for langevin thermostat for slider



################### Creating the model #################################
lattice sc ${lat1}                                                               # Bottom chain type1
lattice sc 4.24264068711929                                                               
Lattice spacing in x,y,z = 4.2426407 4.2426407 4.2426407

region box block ${n1e2} ${n1e1} -50 50 -50 50 units box
region box block -6000.00000000001 ${n1e1} -50 50 -50 50 units box
region box block -6000.00000000001 6000.00000000001 -50 50 -50 50 units box
region substrate block ${n1e2} ${n1e1} -0.1 0.1 0 0.1 units box
region substrate block -6000.00000000001 ${n1e1} -0.1 0.1 0 0.1 units box
region substrate block -6000.00000000001 6000.00000000001 -0.1 0.1 0 0.1 units box

create_box 2 box
Created orthogonal box = (-6000 -50 -50) to (6000 50 50)
  4 by 1 by 1 MPI processor grid
create_atoms 1 region substrate
Created 2829 atoms
  using lattice units in orthogonal box = (-6000 -50 -50) to (6000 50 50)
  create_atoms CPU = 0.001 seconds

lattice sc ${lat2}                                                             # Top chain type2
lattice sc 3                                                             
Lattice spacing in x,y,z = 3 3 3

region slider1 block ${n2e2} ${n2e1} -0.1 0.1 5.9 6.1 units box
region slider1 block -4242.64068711929 ${n2e1} -0.1 0.1 5.9 6.1 units box
region slider1 block -4242.64068711929 4242.64068711929 -0.1 0.1 5.9 6.1 units box

create_atoms 2 region slider1
Created 2829 atoms
  using lattice units in orthogonal box = (-6000 -50 -50) to (6000 50 50)
  create_atoms CPU = 0.001 seconds


set type 1 diameter ${d1}                    # Set mass and diameter for each particles type
set type 1 diameter 3                    
Setting atom values ...
  2829 settings made for diameter
set type 1 mass ${mass1}
set type 1 mass 31.101767270539
Setting atom values ...
  2829 settings made for mass
set type 2 diameter ${d2}                    # Set mass and diameter for each particles type
set type 2 diameter 3                    
Setting atom values ...
  2829 settings made for diameter
set type 2 mass ${mass2}
set type 2 mass 31.101767270539
Setting atom values ...
  2829 settings made for mass


group substrate region substrate           # Define gorup
2829 atoms in group substrate
group slider1 region slider1
2829 atoms in group slider1
#displace_atoms slider1 move ${x_shift} 0.0 0.0
#group substrate_slider union substrate slider1

########################## Potential ###################################
pair_style granular
pair_coeff 1 1 hertz/material 0.00000001 0.001 ${PR} tangential mindlin NULL 0.1 0.01 damping viscoelastic
pair_coeff 1 1 hertz/material 0.00000001 0.001 0.3 tangential mindlin NULL 0.1 0.01 damping viscoelastic
pair_coeff 2 2 hertz/material 0.00000001 0.001 ${PR} tangential mindlin NULL 0.1 0.01 damping viscoelastic
pair_coeff 2 2 hertz/material 0.00000001 0.001 0.3 tangential mindlin NULL 0.1 0.01 damping viscoelastic
pair_coeff 1 2 hertz/material ${E} 0.001 ${PR} tangential mindlin NULL 0.1 0.01 damping viscoelastic
pair_coeff 1 2 hertz/material 30000000 0.001 ${PR} tangential mindlin NULL 0.1 0.01 damping viscoelastic
pair_coeff 1 2 hertz/material 30000000 0.001 0.3 tangential mindlin NULL 0.1 0.01 damping viscoelastic

comm_modify     vel yes
neigh_modify    delay 0 every 1 check yes

### Compute properties ###

compute 1 slider1 com                      # Compute the center of mass of top chain

variable p0 equal "step"

variable slider_z equal "c_1[3]"          # output the position of top chain in z-direction


thermo 100000
thermo_style custom step lx ly lz press pxx pyy pzz ke pe temp c_1[1] c_1[2] c_1[3]

############### Fix ##################


############## Equilibrium the system with apply force ########################

fix force_slider1 slider1 setforce NULL 0 NULL                                # Fix top chain not to move in y-direction

fix f_sub substrate freeze                                                    # Freeze the bottom chain

#fix nve_slider1 slider1 nve                   # Integrate motion for slider1 group
#fix lan_slider slider1 langevin 0 0 ${lgv} 6987532
fix rigid_top slider1 rigid/nve group 1 slider1 langevin 0 0 ${lgv} 6987532   # NVE+langevin
fix rigid_top slider1 rigid/nve group 1 slider1 langevin 0 0 0.5 6987532   
  1 rigid bodies with 2829 atoms

fix add slider1 addforce 0 0 ${Fn} every 1                                    # Add force to top layer
fix add slider1 addforce 0 0 -1000 every 1                                    

timestep ${dt}
timestep 1e-05

dump 		D1 all custom 100000 Equi_${num}_*.dump id type diameter mass xu yu zu fx fy fz
dump 		D1 all custom 100000 Equi_4_*.dump id type diameter mass xu yu zu fx fy fz
dump_modify D1 format 5 %.12g
dump_modify D1 format 7 %.12g

run 3000000
Generated 0 of 1 mixed pair_coeff terms from geometric mixing rule
Neighbor list info ...
  update every 1 steps, delay 0 steps, check yes
  max neighbors/atom: 2000, page size: 100000
  master list distance cutoff = 3.1
  ghost atom cutoff = 3.1
  binsize = 1.55, bins = 7742 65 65
  1 neighbor lists, perpetual/occasional/extra = 1 0 0
  (1) pair granular, perpetual
      attributes: half, newton on, size, history
      pair build: half/size/bin/newton
      stencil: half/bin/3d
      bin: standard
Per MPI rank memory allocation (min/avg/max) = 49.12 | 49.12 | 49.12 Mbytes
   Step           Lx             Ly             Lz           Press           Pxx            Pyy            Pzz           KinEng         PotEng          Temp          c_1[1]         c_1[2]         c_1[3]    
         0   12000          100            100            4.1346247e-17  1.2403874e-16  0              0              0              0              0              0              0              6            
    100000   12000          100            100            0.018708264    1.2403874e-16  0              0.056124791    1596900.1      0              7.7108591e+13  0              0              3.340143     
    200000   12000          100            100            0.0058209266   1.2403874e-16  0              0.01746278     316813.73      0              1.5297801e+13  0              0              3.0960285    
    300000   12000          100            100           -0.00086873294  1.2403874e-16  0             -0.0026061988   19007.226      0              9.1779092e+11  0              0              3.0309167    
    400000   12000          100            100            0.035350252   -0.014208726    0              0.12025948     20580.46       0              9.9375677e+11  0              0              2.9886687    
    500000   12000          100            100            0.018574115   -0.011153856    0              0.0668762      3159.4421      0              1.5255815e+11  0              0              2.9915143    
    600000   12000          100            100            0.017045758   -0.015202947    0              0.066340221    396.4821       0              1.9144702e+10  0              0              2.9914412    
    700000   12000          100            100            0.01990497    -0.015512581    0              0.075227492    28.082348      0              1.3559961e+09  0              0              2.9909204    
    800000   12000          100            100            0.017487549   -0.015683271    0              0.068145917    0.10630234     0              5132959.8      0              0              2.991352     
    900000   12000          100            100            0.018531954   -0.015661972    0              0.071257833    0.26263291     0              12681603       0              0              2.9911563    
   1000000   12000          100            100            0.018243977   -0.015680988    0              0.070412919    0.11238208     0              5426528.3      0              0              2.99121      
   1100000   12000          100            100            0.018265782   -0.015681465    0              0.07047881     0.01510132     0              729188.67      0              0              2.9912053    
   1200000   12000          100            100            0.018290555   -0.015681881    0              0.070553546    0.00064259486  0              31028.606      0              0              2.9912009    
   1300000   12000          100            100            0.018273655   -0.015681376    0              0.070502341    3.6446655e-06  0              175.98785      0              0              2.991204     
   1400000   12000          100            100            0.018279939   -0.015681703    0              0.070521521    1.9793371e-05  0              955.75105      0              0              2.9912028    
   1500000   12000          100            100            0.018278596   -0.01568163     0              0.070517418    5.1733024e-06  0              249.80026      0              0              2.9912031    
   1600000   12000          100            100            0.018278526   -0.015681627    0              0.070517204    4.9265884e-07  0              23.788732      0              0              2.9912031    
   1700000   12000          100            100            0.018278744   -0.015681638    0              0.07051787     9.3984351e-09  0              0.4538168      0              0              2.991203     
   1800000   12000          100            100            0.018278629   -0.015681632    0              0.07051752     1.4494284e-09  0              0.069987709    0              0              2.9912031    
   1900000   12000          100            100            0.018278665   -0.015681634    0              0.07051763     1.1901758e-09  0              0.057469328    0              0              2.9912031    
   2000000   12000          100            100            0.01827866    -0.015681634    0              0.070517614    2.1167847e-10  0              0.010221196    0              0              2.9912031    
   2100000   12000          100            100            0.018278658   -0.015681634    0              0.070517609    1.3605577e-11  0              0.00065696461  0              0              2.9912031    
   2200000   12000          100            100            0.01827866    -0.015681634    0              0.070517614    2.7065201e-14  0              1.3068817e-06  0              0              2.9912031    
   2300000   12000          100            100            0.018278659   -0.015681634    0              0.070517612    1.5612997e-13  0              7.5389574e-06  0              0              2.9912031    
   2400000   12000          100            100            0.01827866    -0.015681634    0              0.070517612    6.1041881e-14  0              2.947494e-06   0              0              2.9912031    
   2500000   12000          100            100            0.01827866    -0.015681634    0              0.070517612    7.550967e-15   0              3.6460917e-07  0              0              2.9912031    
   2600000   12000          100            100            0.018278659   -0.015681634    0              0.070517612    2.2679706e-16  0              1.0951219e-08  0              0              2.9912031    
   2700000   12000          100            100            0.018278659   -0.015681634    0              0.070517612    6.8017663e-18  0              3.2843295e-10  0              0              2.9912031    
   2800000   12000          100            100            0.018278659   -0.015681634    0              0.070517612    2.7806463e-18  0              1.3426746e-10  0              0              2.9912031    
   2900000   12000          100            100            0.018278659   -0.015681634    0              0.070517612    5.8436703e-18  0              2.8216992e-10  0              0              2.9912031    
   3000000   12000          100            100            0.018278659   -0.015681634    0              0.070517612    1.1240427e-18  0              5.4275997e-11  0              0              2.9912031    
Loop time of 565.601 on 4 procs for 3000000 steps with 5658 atoms

Performance: 4582736.830 ns/day, 0.000 hours/ns, 5304.094 timesteps/s
100.0% CPU use with 4 MPI tasks x 1 OpenMP threads

MPI task timing breakdown:
Section |  min time  |  avg time  |  max time  |%varavg| %total
---------------------------------------------------------------
Pair    | 78.011     | 112.93     | 147.41     | 323.6 | 19.97
Neigh   | 1.8273     | 1.8479     | 1.8681     |   1.1 |  0.33
Comm    | 25.054     | 59.51      | 94.508     | 439.5 | 10.52
Output  | 0.48348    | 0.48394    | 0.48439    |   0.1 |  0.09
Modify  | 267.79     | 311.32     | 355.32     | 237.9 | 55.04
Other   |            | 79.51      |            |       | 14.06

Nlocal:         1414.5 ave        1708 max        1121 min
Histogram: 2 0 0 0 0 0 0 0 0 2
Nghost:            3.5 ave           4 max           3 min
Histogram: 2 0 0 0 0 0 0 0 0 2
Neighs:            970 ave        1372 max         568 min
Histogram: 2 0 0 0 0 0 0 0 0 2

Total # of neighbors = 3880
Ave neighs/atom = 0.68575468
Neighbor list builds = 164
Dangerous builds = 0

undump D1


clear
  using 1 OpenMP thread(s) per MPI task

next num

jump SELF startloop

include granular.in
### Simulation of contact between two chain

##################### Simulation setup ####################

units micro                              # units
dimension	3                            # dimension
boundary	p p p                        # boundary condition p: periodic
atom_style	sphere                       # atom style
#processors * * 1

####################### Parameter ##################################

variable ind equal ${num}
variable ind equal 5

variable lat1 equal 3*(2^(1/2))
variable lat2 equal 3
variable d1 equal 3                      # Diamter of particle at bottom chain
variable d2 equal 3                      # Diamter of particle at upper chain

variable n2e1 equal 1000*v_lat1              # Half length of top chain. 1500 is number of particles
variable n1e1 equal v_n2e1*(v_lat1/v_lat2)              # Half length of bottom chain, which is 1.5 time larger than top chain
variable n1e2 equal -v_n1e1
variable n2e2 equal -v_n2e1
#variable x_shift equal -0.25*v_d1

variable den equal 2.2 #grams/cm^3      # micrometer^3=10^-12 cm^3 Density of materials

variable V1 equal (1/6)*PI*(v_d1^3)     # Volume of particle 1
variable V2 equal (1/6)*PI*(v_d2^3)     # Volume of particle 2

variable mass1 equal v_den*v_V1  # Mass of particle 1 (picograms)
variable mass2 equal v_den*v_V2  # Mass of particle 2 (picograms)

# E GPa to picogram/(micrometer-microsecond^2)= 10^3 Pa= 10^-6 GPa
# Force unit(picogram-micrometer/microsecond^2)=10^-9 N= 1nN
# Spring stiffness (force/distance) 10^-3 N/m


variable E equal (10+(5*v_ind))*(10^6)                    # Young's Modulus using for Hertz/material model
variable PR equal 0.3                          # Poisson's ratio using for Hertz/material model
variable Fn equal -1000                        # Force apply to each particles in top chain
variable dt equal 0.00001                      # Time step units microsecond
variable lgv equal 0.5                         #damping for langevin thermostat for slider



################### Creating the model #################################
lattice sc ${lat1}                                                               # Bottom chain type1
lattice sc 4.24264068711929                                                               
Lattice spacing in x,y,z = 4.2426407 4.2426407 4.2426407

region box block ${n1e2} ${n1e1} -50 50 -50 50 units box
region box block -6000.00000000001 ${n1e1} -50 50 -50 50 units box
region box block -6000.00000000001 6000.00000000001 -50 50 -50 50 units box
region substrate block ${n1e2} ${n1e1} -0.1 0.1 0 0.1 units box
region substrate block -6000.00000000001 ${n1e1} -0.1 0.1 0 0.1 units box
region substrate block -6000.00000000001 6000.00000000001 -0.1 0.1 0 0.1 units box

create_box 2 box
Created orthogonal box = (-6000 -50 -50) to (6000 50 50)
  4 by 1 by 1 MPI processor grid
create_atoms 1 region substrate
Created 2829 atoms
  using lattice units in orthogonal box = (-6000 -50 -50) to (6000 50 50)
  create_atoms CPU = 0.001 seconds

lattice sc ${lat2}                                                             # Top chain type2
lattice sc 3                                                             
Lattice spacing in x,y,z = 3 3 3

region slider1 block ${n2e2} ${n2e1} -0.1 0.1 5.9 6.1 units box
region slider1 block -4242.64068711929 ${n2e1} -0.1 0.1 5.9 6.1 units box
region slider1 block -4242.64068711929 4242.64068711929 -0.1 0.1 5.9 6.1 units box

create_atoms 2 region slider1
Created 2829 atoms
  using lattice units in orthogonal box = (-6000 -50 -50) to (6000 50 50)
  create_atoms CPU = 0.001 seconds


set type 1 diameter ${d1}                    # Set mass and diameter for each particles type
set type 1 diameter 3                    
Setting atom values ...
  2829 settings made for diameter
set type 1 mass ${mass1}
set type 1 mass 31.101767270539
Setting atom values ...
  2829 settings made for mass
set type 2 diameter ${d2}                    # Set mass and diameter for each particles type
set type 2 diameter 3                    
Setting atom values ...
  2829 settings made for diameter
set type 2 mass ${mass2}
set type 2 mass 31.101767270539
Setting atom values ...
  2829 settings made for mass


group substrate region substrate           # Define gorup
2829 atoms in group substrate
group slider1 region slider1
2829 atoms in group slider1
#displace_atoms slider1 move ${x_shift} 0.0 0.0
#group substrate_slider union substrate slider1

########################## Potential ###################################
pair_style granular
pair_coeff 1 1 hertz/material 0.00000001 0.001 ${PR} tangential mindlin NULL 0.1 0.01 damping viscoelastic
pair_coeff 1 1 hertz/material 0.00000001 0.001 0.3 tangential mindlin NULL 0.1 0.01 damping viscoelastic
pair_coeff 2 2 hertz/material 0.00000001 0.001 ${PR} tangential mindlin NULL 0.1 0.01 damping viscoelastic
pair_coeff 2 2 hertz/material 0.00000001 0.001 0.3 tangential mindlin NULL 0.1 0.01 damping viscoelastic
pair_coeff 1 2 hertz/material ${E} 0.001 ${PR} tangential mindlin NULL 0.1 0.01 damping viscoelastic
pair_coeff 1 2 hertz/material 35000000 0.001 ${PR} tangential mindlin NULL 0.1 0.01 damping viscoelastic
pair_coeff 1 2 hertz/material 35000000 0.001 0.3 tangential mindlin NULL 0.1 0.01 damping viscoelastic

comm_modify     vel yes
neigh_modify    delay 0 every 1 check yes

### Compute properties ###

compute 1 slider1 com                      # Compute the center of mass of top chain

variable p0 equal "step"

variable slider_z equal "c_1[3]"          # output the position of top chain in z-direction


thermo 100000
thermo_style custom step lx ly lz press pxx pyy pzz ke pe temp c_1[1] c_1[2] c_1[3]

############### Fix ##################


############## Equilibrium the system with apply force ########################

fix force_slider1 slider1 setforce NULL 0 NULL                                # Fix top chain not to move in y-direction

fix f_sub substrate freeze                                                    # Freeze the bottom chain

#fix nve_slider1 slider1 nve                   # Integrate motion for slider1 group
#fix lan_slider slider1 langevin 0 0 ${lgv} 6987532
fix rigid_top slider1 rigid/nve group 1 slider1 langevin 0 0 ${lgv} 6987532   # NVE+langevin
fix rigid_top slider1 rigid/nve group 1 slider1 langevin 0 0 0.5 6987532   
  1 rigid bodies with 2829 atoms

fix add slider1 addforce 0 0 ${Fn} every 1                                    # Add force to top layer
fix add slider1 addforce 0 0 -1000 every 1                                    

timestep ${dt}
timestep 1e-05

dump 		D1 all custom 100000 Equi_${num}_*.dump id type diameter mass xu yu zu fx fy fz
dump 		D1 all custom 100000 Equi_5_*.dump id type diameter mass xu yu zu fx fy fz
dump_modify D1 format 5 %.12g
dump_modify D1 format 7 %.12g

run 3000000
Generated 0 of 1 mixed pair_coeff terms from geometric mixing rule
Neighbor list info ...
  update every 1 steps, delay 0 steps, check yes
  max neighbors/atom: 2000, page size: 100000
  master list distance cutoff = 3.1
  ghost atom cutoff = 3.1
  binsize = 1.55, bins = 7742 65 65
  1 neighbor lists, perpetual/occasional/extra = 1 0 0
  (1) pair granular, perpetual
      attributes: half, newton on, size, history
      pair build: half/size/bin/newton
      stencil: half/bin/3d
      bin: standard
Per MPI rank memory allocation (min/avg/max) = 49.12 | 49.12 | 49.12 Mbytes
   Step           Lx             Ly             Lz           Press           Pxx            Pyy            Pzz           KinEng         PotEng          Temp          c_1[1]         c_1[2]         c_1[3]    
         0   12000          100            100            4.1346247e-17  1.2403874e-16  0              0              0              0              0              0              0              6            
    100000   12000          100            100            0.018772093    1.2403874e-16  0              0.056316279    1604964.2      0              7.749798e+13   0              0              3.3381856    
    200000   12000          100            100            0.0059593367   1.2403874e-16  0              0.01787801     328772.03      0              1.5875225e+13  0              0              3.0930619    
    300000   12000          100            100           -0.00069386647  1.2403874e-16  0             -0.0020815994   11456.335      0              5.5318541e+11  0              0              3.0348257    
    400000   12000          100            100            0.076125917   -0.022553114    0              0.25093087     31.822801      0              1.5366092e+09  0              0              2.9846142    
    500000   12000          100            100            0.010713626   -0.01756387     0              0.049704749    2778.1235      0              1.3414564e+11  0              0              2.9930941    
    600000   12000          100            100            0.014636436   -0.016058077    0              0.059967385    303.74078      0              1.4666555e+10  0              0              2.9924695    
    700000   12000          100            100            0.015921354   -0.01602926     0              0.063793322    3.0640925      0              1.4795406e+08  0              0              2.9922535    
    800000   12000          100            100            0.017379731   -0.016363875    0              0.068503068    2.6697591      0              1.2891311e+08  0              0              2.9919764    
    900000   12000          100            100            0.018047274   -0.016364865    0              0.070506687    1.0050559      0              48530550       0              0              2.991859     
   1000000   12000          100            100            0.018136465   -0.016383798    0              0.070793194    0.056774568    0              2741440.7      0              0              2.9918415    
   1100000   12000          100            100            0.018091102   -0.016380971    0              0.070654276    0.00064063281  0              30933.865      0              0              2.9918492    
   1200000   12000          100            100            0.01805837    -0.016378266    0              0.070553375    0.0018595301   0              89790.052      0              0              2.991855     
   1300000   12000          100            100            0.018049538   -0.016377514    0              0.070526127    0.00026171928  0              12637.487      0              0              2.9918566    
   1400000   12000          100            100            0.018049883   -0.016377534    0              0.070527184    2.5609175e-06  0              123.65754      0              0              2.9918566    
   1500000   12000          100            100            0.018051214   -0.016377644    0              0.070531285    2.0306746e-06  0              98.054008      0              0              2.9918563    
   1600000   12000          100            100            0.018051771   -0.016377691    0              0.070533003    7.3700242e-07  0              35.587209      0              0              2.9918562    
   1700000   12000          100            100            0.018051846   -0.016377697    0              0.070533236    3.9858715e-08  0              1.9246347      0              0              2.9918562    
   1800000   12000          100            100            0.018051807   -0.016377694    0              0.070533114    5.5826844e-10  0              0.026956785    0              0              2.9918562    
   1900000   12000          100            100            0.018051778   -0.016377692    0              0.070533027    1.3870524e-09  0              0.066975796    0              0              2.9918562    
   2000000   12000          100            100            0.018051771   -0.016377691    0              0.070533004    1.8872491e-10  0              0.0091128503   0              0              2.9918562    
   2100000   12000          100            100            0.018051771   -0.016377691    0              0.070533005    1.6272855e-12  0              7.8575792e-05  0              0              2.9918562    
   2200000   12000          100            100            0.018051773   -0.016377691    0              0.070533009    1.5571858e-12  0              7.5190929e-05  0              0              2.9918562    
   2300000   12000          100            100            0.018051773   -0.016377691    0              0.07053301     5.4001103e-13  0              2.60752e-05    0              0              2.9918562    
   2400000   12000          100            100            0.018051773   -0.016377691    0              0.070533011    2.8031032e-14  0              1.3535182e-06  0              0              2.9918562    
   2500000   12000          100            100            0.018051773   -0.016377691    0              0.070533011    4.7915716e-16  0              2.3136784e-08  0              0              2.9918562    
   2600000   12000          100            100            0.018051773   -0.016377691    0              0.07053301     1.0224359e-15  0              4.9369773e-08  0              0              2.9918562    
   2700000   12000          100            100            0.018051773   -0.016377691    0              0.07053301     1.5765907e-16  0              7.6127923e-09  0              0              2.9918562    
   2800000   12000          100            100            0.018051773   -0.016377691    0              0.07053301     3.0267193e-19  0              1.4614944e-11  0              0              2.9918562    
   2900000   12000          100            100            0.018051773   -0.016377691    0              0.07053301     1.3331166e-17  0              6.4371427e-10  0              0              2.9918562    
   3000000   12000          100            100            0.018051773   -0.016377691    0              0.07053301     1.1739483e-17  0              5.6685761e-10  0              0              2.9918562    
Loop time of 564.854 on 4 procs for 3000000 steps with 5658 atoms

Performance: 4588792.566 ns/day, 0.000 hours/ns, 5311.103 timesteps/s
100.0% CPU use with 4 MPI tasks x 1 OpenMP threads

MPI task timing breakdown:
Section |  min time  |  avg time  |  max time  |%varavg| %total
---------------------------------------------------------------
Pair    | 79.786     | 113.92     | 148.79     | 318.6 | 20.17
Neigh   | 1.8319     | 1.849      | 1.8657     |   1.0 |  0.33
Comm    | 26.099     | 59.354     | 93.995     | 431.0 | 10.51
Output  | 0.48398    | 0.48441    | 0.48492    |   0.1 |  0.09
Modify  | 270.4      | 311.89     | 352.26     | 227.5 | 55.22
Other   |            | 77.35      |            |       | 13.69

Nlocal:         1414.5 ave        1708 max        1121 min
Histogram: 2 0 0 0 0 0 0 0 0 2
Nghost:            3.5 ave           4 max           3 min
Histogram: 2 0 0 0 0 0 0 0 0 2
Neighs:            970 ave        1372 max         568 min
Histogram: 2 0 0 0 0 0 0 0 0 2

Total # of neighbors = 3880
Ave neighs/atom = 0.68575468
Neighbor list builds = 166
Dangerous builds = 0

undump D1


clear
  using 1 OpenMP thread(s) per MPI task

next num

jump SELF startloop

include granular.in
### Simulation of contact between two chain

##################### Simulation setup ####################

units micro                              # units
dimension	3                            # dimension
boundary	p p p                        # boundary condition p: periodic
atom_style	sphere                       # atom style
#processors * * 1

####################### Parameter ##################################

variable ind equal ${num}
variable ind equal 6

variable lat1 equal 3*(2^(1/2))
variable lat2 equal 3
variable d1 equal 3                      # Diamter of particle at bottom chain
variable d2 equal 3                      # Diamter of particle at upper chain

variable n2e1 equal 1000*v_lat1              # Half length of top chain. 1500 is number of particles
variable n1e1 equal v_n2e1*(v_lat1/v_lat2)              # Half length of bottom chain, which is 1.5 time larger than top chain
variable n1e2 equal -v_n1e1
variable n2e2 equal -v_n2e1
#variable x_shift equal -0.25*v_d1

variable den equal 2.2 #grams/cm^3      # micrometer^3=10^-12 cm^3 Density of materials

variable V1 equal (1/6)*PI*(v_d1^3)     # Volume of particle 1
variable V2 equal (1/6)*PI*(v_d2^3)     # Volume of particle 2

variable mass1 equal v_den*v_V1  # Mass of particle 1 (picograms)
variable mass2 equal v_den*v_V2  # Mass of particle 2 (picograms)

# E GPa to picogram/(micrometer-microsecond^2)= 10^3 Pa= 10^-6 GPa
# Force unit(picogram-micrometer/microsecond^2)=10^-9 N= 1nN
# Spring stiffness (force/distance) 10^-3 N/m


variable E equal (10+(5*v_ind))*(10^6)                    # Young's Modulus using for Hertz/material model
variable PR equal 0.3                          # Poisson's ratio using for Hertz/material model
variable Fn equal -1000                        # Force apply to each particles in top chain
variable dt equal 0.00001                      # Time step units microsecond
variable lgv equal 0.5                         #damping for langevin thermostat for slider



################### Creating the model #################################
lattice sc ${lat1}                                                               # Bottom chain type1
lattice sc 4.24264068711929                                                               
Lattice spacing in x,y,z = 4.2426407 4.2426407 4.2426407

region box block ${n1e2} ${n1e1} -50 50 -50 50 units box
region box block -6000.00000000001 ${n1e1} -50 50 -50 50 units box
region box block -6000.00000000001 6000.00000000001 -50 50 -50 50 units box
region substrate block ${n1e2} ${n1e1} -0.1 0.1 0 0.1 units box
region substrate block -6000.00000000001 ${n1e1} -0.1 0.1 0 0.1 units box
region substrate block -6000.00000000001 6000.00000000001 -0.1 0.1 0 0.1 units box

create_box 2 box
Created orthogonal box = (-6000 -50 -50) to (6000 50 50)
  4 by 1 by 1 MPI processor grid
create_atoms 1 region substrate
Created 2829 atoms
  using lattice units in orthogonal box = (-6000 -50 -50) to (6000 50 50)
  create_atoms CPU = 0.001 seconds

lattice sc ${lat2}                                                             # Top chain type2
lattice sc 3                                                             
Lattice spacing in x,y,z = 3 3 3

region slider1 block ${n2e2} ${n2e1} -0.1 0.1 5.9 6.1 units box
region slider1 block -4242.64068711929 ${n2e1} -0.1 0.1 5.9 6.1 units box
region slider1 block -4242.64068711929 4242.64068711929 -0.1 0.1 5.9 6.1 units box

create_atoms 2 region slider1
Created 2829 atoms
  using lattice units in orthogonal box = (-6000 -50 -50) to (6000 50 50)
  create_atoms CPU = 0.001 seconds


[...]
   1400000   12000          100            100            0.01941679    -0.012407928    0              0.070658297    1.548457e-07   0              7.4769447      0              0              2.996641     
   1500000   12000          100            100            0.019414271   -0.012407576    0              0.07065039     1.478121e-08   0              0.71373171     0              0              2.9966411    
   1600000   12000          100            100            0.019413345   -0.012407446    0              0.070647481    2.0066959e-08  0              0.96896164     0              0              2.9966412    
   1700000   12000          100            100            0.019413007   -0.012407399    0              0.070646418    7.5929583e-09  0              0.36663678     0              0              2.9966412    
   1800000   12000          100            100            0.019412884   -0.012407381    0              0.070646033    1.9908286e-09  0              0.096129988    0              0              2.9966412    
   1900000   12000          100            100            0.01941284    -0.012407375    0              0.070645894    4.3619343e-10  0              0.021062219    0              0              2.9966412    
   2000000   12000          100            100            0.019412824   -0.012407373    0              0.070645845    8.5777254e-11  0              0.0041418766   0              0              2.9966412    
   2100000   12000          100            100            0.019412818   -0.012407372    0              0.070645827    1.5674206e-11  0              0.00075685132  0              0              2.9966412    
   2200000   12000          100            100            0.019412816   -0.012407372    0              0.070645821    2.712149e-12   0              0.00013095997  0              0              2.9966412    
   2300000   12000          100            100            0.019412816   -0.012407372    0              0.070645819    4.5167199e-13  0              2.1809624e-05  0              0              2.9966412    
   2400000   12000          100            100            0.019412815   -0.012407372    0              0.070645818    7.2232193e-14  0              3.4878341e-06  0              0              2.9966412    
   2500000   12000          100            100            0.019412815   -0.012407372    0              0.070645818    1.1242697e-14  0              5.428696e-07   0              0              2.9966412    
   2600000   12000          100            100            0.019412815   -0.012407372    0              0.070645818    1.744901e-15   0              8.4255023e-08  0              0              2.9966412    
   2700000   12000          100            100            0.019412815   -0.012407372    0              0.070645817    2.0116612e-16  0              9.7135919e-09  0              0              2.9966412    
   2800000   12000          100            100            0.019412815   -0.012407372    0              0.070645817    4.1357153e-17  0              1.9969889e-09  0              0              2.9966412    
   2900000   12000          100            100            0.019412815   -0.012407372    0              0.070645817    1.1557972e-18  0              5.5809311e-11  0              0              2.9966412    
   3000000   12000          100            100            0.019412815   -0.012407372    0              0.070645817    1.6939227e-17  0              8.1793463e-10  0              0              2.9966412    
Loop time of 541.66 on 4 procs for 3000000 steps with 5658 atoms

Performance: 4785285.580 ns/day, 0.000 hours/ns, 5538.525 timesteps/s
100.0% CPU use with 4 MPI tasks x 1 OpenMP threads

MPI task timing breakdown:
Section |  min time  |  avg time  |  max time  |%varavg| %total
---------------------------------------------------------------
Pair    | 68.456     | 99.133     | 129.75     | 303.6 | 18.30
Neigh   | 1.8205     | 1.8371     | 1.8534     |   1.0 |  0.34
Comm    | 23.952     | 53.644     | 85.214     | 404.8 |  9.90
Output  | 0.48095    | 0.48133    | 0.48176    |   0.1 |  0.09
Modify  | 266.56     | 308.11     | 349.87     | 230.5 | 56.88
Other   |            | 78.46      |            |       | 14.48

Nlocal:         1414.5 ave        1709 max        1121 min
Histogram: 2 0 0 0 0 0 0 0 0 2
Nghost:            3.5 ave           4 max           2 min
Histogram: 1 0 0 0 0 0 0 0 0 3
Neighs:            970 ave        1373 max         568 min
Histogram: 2 0 0 0 0 0 0 0 0 2

Total # of neighbors = 3880
Ave neighs/atom = 0.68575468
Neighbor list builds = 166
Dangerous builds = 0

undump D1


clear
  using 1 OpenMP thread(s) per MPI task

next num

jump SELF startloop

include granular.in
### Simulation of contact between two chain

##################### Simulation setup ####################

units micro                              # units
dimension	3                            # dimension
boundary	p p p                        # boundary condition p: periodic
atom_style	sphere                       # atom style
#processors * * 1

####################### Parameter ##################################

variable ind equal ${num}
variable ind equal 40

variable lat1 equal 3*(2^(1/2))
variable lat2 equal 3
variable d1 equal 3                      # Diamter of particle at bottom chain
variable d2 equal 3                      # Diamter of particle at upper chain

variable n2e1 equal 1000*v_lat1              # Half length of top chain. 1500 is number of particles
variable n1e1 equal v_n2e1*(v_lat1/v_lat2)              # Half length of bottom chain, which is 1.5 time larger than top chain
variable n1e2 equal -v_n1e1
variable n2e2 equal -v_n2e1
#variable x_shift equal -0.25*v_d1

variable den equal 2.2 #grams/cm^3      # micrometer^3=10^-12 cm^3 Density of materials

variable V1 equal (1/6)*PI*(v_d1^3)     # Volume of particle 1
variable V2 equal (1/6)*PI*(v_d2^3)     # Volume of particle 2

variable mass1 equal v_den*v_V1  # Mass of particle 1 (picograms)
variable mass2 equal v_den*v_V2  # Mass of particle 2 (picograms)

# E GPa to picogram/(micrometer-microsecond^2)= 10^3 Pa= 10^-6 GPa
# Force unit(picogram-micrometer/microsecond^2)=10^-9 N= 1nN
# Spring stiffness (force/distance) 10^-3 N/m


variable E equal (10+(5*v_ind))*(10^6)                    # Young's Modulus using for Hertz/material model
variable PR equal 0.3                          # Poisson's ratio using for Hertz/material model
variable Fn equal -1000                        # Force apply to each particles in top chain
variable dt equal 0.00001                      # Time step units microsecond
variable lgv equal 0.5                         #damping for langevin thermostat for slider



################### Creating the model #################################
lattice sc ${lat1}                                                               # Bottom chain type1
lattice sc 4.24264068711929                                                               
Lattice spacing in x,y,z = 4.2426407 4.2426407 4.2426407

region box block ${n1e2} ${n1e1} -50 50 -50 50 units box
region box block -6000.00000000001 ${n1e1} -50 50 -50 50 units box
region box block -6000.00000000001 6000.00000000001 -50 50 -50 50 units box
region substrate block ${n1e2} ${n1e1} -0.1 0.1 0 0.1 units box
region substrate block -6000.00000000001 ${n1e1} -0.1 0.1 0 0.1 units box
region substrate block -6000.00000000001 6000.00000000001 -0.1 0.1 0 0.1 units box

create_box 2 box
Created orthogonal box = (-6000 -50 -50) to (6000 50 50)
  4 by 1 by 1 MPI processor grid
create_atoms 1 region substrate
Created 2829 atoms
  using lattice units in orthogonal box = (-6000 -50 -50) to (6000 50 50)
  create_atoms CPU = 0.001 seconds

lattice sc ${lat2}                                                             # Top chain type2
lattice sc 3                                                             
Lattice spacing in x,y,z = 3 3 3

region slider1 block ${n2e2} ${n2e1} -0.1 0.1 5.9 6.1 units box
region slider1 block -4242.64068711929 ${n2e1} -0.1 0.1 5.9 6.1 units box
region slider1 block -4242.64068711929 4242.64068711929 -0.1 0.1 5.9 6.1 units box

create_atoms 2 region slider1
Created 2829 atoms
  using lattice units in orthogonal box = (-6000 -50 -50) to (6000 50 50)
  create_atoms CPU = 0.001 seconds


set type 1 diameter ${d1}                    # Set mass and diameter for each particles type
set type 1 diameter 3                    
Setting atom values ...
  2829 settings made for diameter
set type 1 mass ${mass1}
set type 1 mass 31.101767270539
Setting atom values ...
  2829 settings made for mass
set type 2 diameter ${d2}                    # Set mass and diameter for each particles type
set type 2 diameter 3                    
Setting atom values ...
  2829 settings made for diameter
set type 2 mass ${mass2}
set type 2 mass 31.101767270539
Setting atom values ...
  2829 settings made for mass


group substrate region substrate           # Define gorup
2829 atoms in group substrate
group slider1 region slider1
2829 atoms in group slider1
#displace_atoms slider1 move ${x_shift} 0.0 0.0
#group substrate_slider union substrate slider1

########################## Potential ###################################
pair_style granular
pair_coeff 1 1 hertz/material 0.00000001 0.001 ${PR} tangential mindlin NULL 0.1 0.01 damping viscoelastic
pair_coeff 1 1 hertz/material 0.00000001 0.001 0.3 tangential mindlin NULL 0.1 0.01 damping viscoelastic
pair_coeff 2 2 hertz/material 0.00000001 0.001 ${PR} tangential mindlin NULL 0.1 0.01 damping viscoelastic
pair_coeff 2 2 hertz/material 0.00000001 0.001 0.3 tangential mindlin NULL 0.1 0.01 damping viscoelastic
pair_coeff 1 2 hertz/material ${E} 0.001 ${PR} tangential mindlin NULL 0.1 0.01 damping viscoelastic
pair_coeff 1 2 hertz/material 210000000 0.001 ${PR} tangential mindlin NULL 0.1 0.01 damping viscoelastic
pair_coeff 1 2 hertz/material 210000000 0.001 0.3 tangential mindlin NULL 0.1 0.01 damping viscoelastic

comm_modify     vel yes
neigh_modify    delay 0 every 1 check yes

### Compute properties ###

compute 1 slider1 com                      # Compute the center of mass of top chain

variable p0 equal "step"

variable slider_z equal "c_1[3]"          # output the position of top chain in z-direction


thermo 100000
thermo_style custom step lx ly lz press pxx pyy pzz ke pe temp c_1[1] c_1[2] c_1[3]

############### Fix ##################


############## Equilibrium the system with apply force ########################

fix force_slider1 slider1 setforce NULL 0 NULL                                # Fix top chain not to move in y-direction

fix f_sub substrate freeze                                                    # Freeze the bottom chain

#fix nve_slider1 slider1 nve                   # Integrate motion for slider1 group
#fix lan_slider slider1 langevin 0 0 ${lgv} 6987532
fix rigid_top slider1 rigid/nve group 1 slider1 langevin 0 0 ${lgv} 6987532   # NVE+langevin
fix rigid_top slider1 rigid/nve group 1 slider1 langevin 0 0 0.5 6987532   
  1 rigid bodies with 2829 atoms

fix add slider1 addforce 0 0 ${Fn} every 1                                    # Add force to top layer
fix add slider1 addforce 0 0 -1000 every 1                                    

timestep ${dt}
timestep 1e-05

dump 		D1 all custom 100000 Equi_${num}_*.dump id type diameter mass xu yu zu fx fy fz
dump 		D1 all custom 100000 Equi_40_*.dump id type diameter mass xu yu zu fx fy fz
dump_modify D1 format 5 %.12g
dump_modify D1 format 7 %.12g

run 3000000
Generated 0 of 1 mixed pair_coeff terms from geometric mixing rule
Neighbor list info ...
  update every 1 steps, delay 0 steps, check yes
  max neighbors/atom: 2000, page size: 100000
  master list distance cutoff = 3.1
  ghost atom cutoff = 3.1
  binsize = 1.55, bins = 7742 65 65
  1 neighbor lists, perpetual/occasional/extra = 1 0 0
  (1) pair granular, perpetual
      attributes: half, newton on, size, history
      pair build: half/size/bin/newton
      stencil: half/bin/3d
      bin: standard
Per MPI rank memory allocation (min/avg/max) = 49.12 | 49.12 | 49.12 Mbytes
   Step           Lx             Ly             Lz           Press           Pxx            Pyy            Pzz           KinEng         PotEng          Temp          c_1[1]         c_1[2]         c_1[3]    
         0   12000          100            100            4.1346247e-17  1.2403874e-16  0              0              0              0              0              0              0              6            
    100000   12000          100            100            0.019313041    1.2403874e-16  0              0.057939124    1674074.2      0              8.083505e+13   0              0              3.3206202    
    200000   12000          100            100            0.0071616682   1.2403874e-16  0              0.021485005    438330.98      0              2.1165434e+13  0              0              3.0635152    
    300000   12000          100            100            0.0011006343   1.2403874e-16  0              0.0033019029   19578.675      0              9.4538414e+11  0              0              3.0430503    
    400000   12000          100            100           -0.00089513936  1.2403874e-16  0             -0.0026854181   20879.327      0              1.008188e+12   0              0              3.0011578    
    500000   12000          100            100            0.0018475749   1.2569731e-05  0              0.0055301551   1366.09        0              6.5963599e+10  0              0              2.9991415    
    600000   12000          100            100            0.024933032   -0.018736719    0              0.093535814    484.55184      0              2.3397274e+10  0              0              2.9961715    
    700000   12000          100            100            0.019604395   -0.01421773     0              0.073030914    92.399532      0              4.4616427e+09  0              0              2.9966213    
    800000   12000          100            100            0.018409824   -0.012180016    0              0.067409489    7.8365747      0              3.7840015e+08  0              0              2.9967571    
    900000   12000          100            100            0.01887676    -0.01211853     0              0.068748811    2.9837064e-05  0              1440.725       0              0              2.9967265    
   1000000   12000          100            100            0.019337892   -0.012205516    0              0.070219193    0.14206097     0              6859615.9      0              0              2.9966918    
   1100000   12000          100            100            0.019490582   -0.012236323    0              0.070708069    0.029226114    0              1411224.5      0              0              2.9966802    
   1200000   12000          100            100            0.019497995   -0.012237882    0              0.070731866    0.00076152798  0              36771.461      0              0              2.9966795    
   1300000   12000          100            100            0.019480954   -0.012234781    0              0.070677643    0.00010511899  0              5075.8196      0              0              2.9966808    
   1400000   12000          100            100            0.019472136   -0.012233144    0              0.070649551    7.1008198e-05  0              3428.7318      0              0              2.9966815    
   1500000   12000          100            100            0.019470365   -0.012232807    0              0.070643901    6.2618032e-06  0              302.36007      0              0              2.9966816    
   1600000   12000          100            100            0.019470734   -0.012232872    0              0.070645073    4.035434e-10   0              0.019485667    0              0              2.9966816    
   1700000   12000          100            100            0.019471142   -0.012232948    0              0.070646372    1.0687337e-07  0              5.1605324      0              0              2.9966815    
   1800000   12000          100            100            0.01947128    -0.012232973    0              0.070646813    2.3473983e-08  0              1.1334746      0              0              2.9966815    
   1900000   12000          100            100            0.019471289   -0.012232975    0              0.070646841    7.0872447e-10  0              0.034221768    0              0              2.9966815    
   2000000   12000          100            100            0.019471274   -0.012232973    0              0.070646795    6.931364e-11   0              0.0033469076   0              0              2.9966815    
   2100000   12000          100            100            0.019471266   -0.012232971    0              0.07064677     5.4898916e-11  0              0.0026508722   0              0              2.9966815    
   2200000   12000          100            100            0.019471265   -0.012232971    0              0.070646764    5.2612934e-12  0              0.00025404903  0              0              2.9966815    
   2300000   12000          100            100            0.019471265   -0.012232971    0              0.070646765    3.7885167e-15  0              1.8293392e-07  0              0              2.9966815    
   2400000   12000          100            100            0.019471265   -0.012232971    0              0.070646766    7.7420977e-14  0              3.7383819e-06  0              0              2.9966815    
   2500000   12000          100            100            0.019471265   -0.012232971    0              0.070646767    1.8923286e-14  0              9.1373774e-07  0              0              2.9966815    
   2600000   12000          100            100            0.019471265   -0.012232971    0              0.070646767    6.7460294e-16  0              3.2574162e-08  0              0              2.9966815    
   2700000   12000          100            100            0.019471265   -0.012232971    0              0.070646767    9.4217468e-18  0              4.5494243e-10  0              0              2.9966815    
   2800000   12000          100            100            0.019471265   -0.012232971    0              0.070646767    4.3495926e-17  0              2.1002626e-09  0              0              2.9966815    
   2900000   12000          100            100            0.019471265   -0.012232971    0              0.070646767    5.3363007e-18  0              2.5767086e-10  0              0              2.9966815    
   3000000   12000          100            100            0.019471265   -0.012232971    0              0.070646767    2.7586232e-18  0              1.3320404e-10  0              0              2.9966815    
Loop time of 541.501 on 4 procs for 3000000 steps with 5658 atoms

Performance: 4786694.280 ns/day, 0.000 hours/ns, 5540.155 timesteps/s
100.0% CPU use with 4 MPI tasks x 1 OpenMP threads

MPI task timing breakdown:
Section |  min time  |  avg time  |  max time  |%varavg| %total
---------------------------------------------------------------
Pair    | 68.695     | 99.155     | 129.38     | 301.7 | 18.31
Neigh   | 1.8509     | 1.8666     | 1.8818     |   0.9 |  0.34
Comm    | 24.484     | 54.397     | 85.421     | 398.4 | 10.05
Output  | 0.48055    | 0.48094    | 0.48136    |   0.1 |  0.09
Modify  | 266.52     | 308.01     | 348.97     | 228.9 | 56.88
Other   |            | 77.59      |            |       | 14.33

Nlocal:         1414.5 ave        1708 max        1121 min
Histogram: 2 0 0 0 0 0 0 0 0 2
Nghost:            3.5 ave           4 max           3 min
Histogram: 2 0 0 0 0 0 0 0 0 2
Neighs:          970.5 ave        1373 max         568 min
Histogram: 2 0 0 0 0 0 0 0 0 2

Total # of neighbors = 3882
Ave neighs/atom = 0.68610817
Neighbor list builds = 168
Dangerous builds = 0

undump D1


clear
  using 1 OpenMP thread(s) per MPI task

next num

jump SELF startloop
Total wall time: 6:05:36
