ITEM: TIMESTEP
2100000
ITEM: NUMBER OF ATOMS
2000
ITEM: BOX BOUNDS pp pp pp
-1.5000000000000000e+03 1.5000000000000000e+03
-5.0000000000000000e+01 5.0000000000000000e+01
-5.0000000000000000e+01 5.0000000000000000e+01
ITEM: ATOMS id type diameter mass xu yu zu fx fy fz
1 1 3 31.1018 -1500 0 0 0 0 0
2 1 3 31.1018 -1497 0 0 0 0 0
3 1 3 31.1018 -1494 0 0 0 0 0
4 1 3 31.1018 -1491 0 0 0 0 0
5 1 3 31.1018 -1488 0 0 0 0 0
6 1 3 31.1018 -1485 0 0 0 0 0
7 1 3 31.1018 -1482 0 0 0 0 0
8 1 3 31.1018 -1479 0 0 0 0 0
9 1 3 31.1018 -1476 0 0 0 0 0
10 1 3 31.1018 -1473 0 0 0 0 0
11 1 3 31.1018 -1470 0 0 0 0 0
12 1 3 31.1018 -1467 0 0 0 0 0
13 1 3 31.1018 -1464 0 0 0 0 0
14 1 3 31.1018 -1461 0 0 0 0 0
15 1 3 31.1018 -1458 0 0 0 0 0
16 1 3 31.1018 -1455 0 0 0 0 0
17 1 3 31.1018 -1452 0 0 0 0 0
18 1 3 31.1018 -1449 0 0 0 0 0
19 1 3 31.1018 -1446 0 0 0 0 0
20 1 3 31.1018 -1443 0 0 0 0 0
21 1 3 31.1018 -1440 0 0 0 0 0
22 1 3 31.1018 -1437 0 0 0 0 0
23 1 3 31.1018 -1434 0 0 0 0 0
24 1 3 31.1018 -1431 0 0 0 0 0
25 1 3 31.1018 -1428 0 0 0 0 0
26 1 3 31.1018 -1425 0 0 0 0 0
27 1 3 31.1018 -1422 0 0 0 0 0
28 1 3 31.1018 -1419 0 0 0 0 0
29 1 3 31.1018 -1416 0 0 0 0 0
30 1 3 31.1018 -1413 0 0 0 0 0
31 1 3 31.1018 -1410 0 0 0 0 0
32 1 3 31.1018 -1407 0 0 0 0 0
33 1 3 31.1018 -1404 0 0 0 0 0
34 1 3 31.1018 -1401 0 0 0 0 0
35 1 3 31.1018 -1398 0 0 0 0 0
36 1 3 31.1018 -1395 0 0 0 0 0
37 1 3 31.1018 -1392 0 0 0 0 0
38 1 3 31.1018 -1389 0 0 0 0 0
39 1 3 31.1018 -1386 0 0 0 0 0
40 1 3 31.1018 -1383 0 0 0 0 0
41 1 3 31.1018 -1380 0 0 0 0 0
42 1 3 31.1018 -1377 0 0 0 0 0
43 1 3 31.1018 -1374 0 0 0 0 0
44 1 3 31.1018 -1371 0 0 0 0 0
45 1 3 31.1018 -1368 0 0 0 0 0
46 1 3 31.1018 -1365 0 0 0 0 0
47 1 3 31.1018 -1362 0 0 0 0 0
48 1 3 31.1018 -1359 0 0 0 0 0
49 1 3 31.1018 -1356 0 0 0 0 0
50 1 3 31.1018 -1353 0 0 0 0 0
51 1 3 31.1018 -1350 0 0 0 0 0
52 1 3 31.1018 -1347 0 0 0 0 0
53 1 3 31.1018 -1344 0 0 0 0 0
54 1 3 31.1018 -1341 0 0 0 0 0
55 1 3 31.1018 -1338 0 0 0 0 0
56 1 3 31.1018 -1335 0 0 0 0 0
57 1 3 31.1018 -1332 0 0 0 0 0
58 1 3 31.1018 -1329 0 0 0 0 0
59 1 3 31.1018 -1326 0 0 0 0 0
60 1 3 31.1018 -1323 0 0 0 0 0
61 1 3 31.1018 -1320 0 0 0 0 0
62 1 3 31.1018 -1317 0 0 0 0 0
63 1 3 31.1018 -1314 0 0 0 0 0
64 1 3 31.1018 -1311 0 0 0 0 0
65 1 3 31.1018 -1308 0 0 0 0 0
66 1 3 31.1018 -1305 0 0 0 0 0
67 1 3 31.1018 -1302 0 0 0 0 0
68 1 3 31.1018 -1299 0 0 0 0 0
69 1 3 31.1018 -1296 0 0 0 0 0
70 1 3 31.1018 -1293 0 0 0 0 0
71 1 3 31.1018 -1290 0 0 0 0 0
72 1 3 31.1018 -1287 0 0 0 0 0
73 1 3 31.1018 -1284 0 0 0 0 0
74 1 3 31.1018 -1281 0 0 0 0 0
75 1 3 31.1018 -1278 0 0 0 0 0
76 1 3 31.1018 -1275 0 0 0 0 0
77 1 3 31.1018 -1272 0 0 0 0 0
78 1 3 31.1018 -1269 0 0 0 0 0
79 1 3 31.1018 -1266 0 0 0 0 0
80 1 3 31.1018 -1263 0 0 0 0 0
81 1 3 31.1018 -1260 0 0 0 0 0
82 1 3 31.1018 -1257 0 0 0 0 0
83 1 3 31.1018 -1254 0 0 0 0 0
84 1 3 31.1018 -1251 0 0 0 0 0
85 1 3 31.1018 -1248 0 0 0 0 0
86 1 3 31.1018 -1245 0 0 0 0 0
87 1 3 31.1018 -1242 0 0 0 0 0
88 1 3 31.1018 -1239 0 0 0 0 0
89 1 3 31.1018 -1236 0 0 0 0 0
90 1 3 31.1018 -1233 0 0 0 0 0
91 1 3 31.1018 -1230 0 0 0 0 0
92 1 3 31.1018 -1227 0 0 0 0 0
93 1 3 31.1018 -1224 0 0 0 0 0
94 1 3 31.1018 -1221 0 0 0 0 0
95 1 3 31.1018 -1218 0 0 0 0 0
96 1 3 31.1018 -1215 0 0 0 0 0
97 1 3 31.1018 -1212 0 0 0 0 0
98 1 3 31.1018 -1209 0 0 0 0 0
99 1 3 31.1018 -1206 0 0 0 0 0
100 1 3 31.1018 -1203 0 0 0 0 0
101 1 3 31.1018 -1200 0 0 0 0 0
102 1 3 31.1018 -1197 0 0 0 0 0
103 1 3 31.1018 -1194 0 0 0 0 0
104 1 3 31.1018 -1191 0 0 0 0 0
105 1 3 31.1018 -1188 0 0 0 0 0
106 1 3 31.1018 -1185 0 0 0 0 0
107 1 3 31.1018 -1182 0 0 0 0 0
108 1 3 31.1018 -1179 0 0 0 0 0
109 1 3 31.1018 -1176 0 0 0 0 0
110 1 3 31.1018 -1173 0 0 0 0 0
111 1 3 31.1018 -1170 0 0 0 0 0
112 1 3 31.1018 -1167 0 0 0 0 0
113 1 3 31.1018 -1164 0 0 0 0 0
114 1 3 31.1018 -1161 0 0 0 0 0
115 1 3 31.1018 -1158 0 0 0 0 0
116 1 3 31.1018 -1155 0 0 0 0 0
117 1 3 31.1018 -1152 0 0 0 0 0
118 1 3 31.1018 -1149 0 0 0 0 0
119 1 3 31.1018 -1146 0 0 0 0 0
120 1 3 31.1018 -1143 0 0 0 0 0
121 1 3 31.1018 -1140 0 0 0 0 0
122 1 3 31.1018 -1137 0 0 0 0 0
123 1 3 31.1018 -1134 0 0 0 0 0
124 1 3 31.1018 -1131 0 0 0 0 0
125 1 3 31.1018 -1128 0 0 0 0 0
126 1 3 31.1018 -1125 0 0 0 0 0
127 1 3 31.1018 -1122 0 0 0 0 0
128 1 3 31.1018 -1119 0 0 0 0 0
129 1 3 31.1018 -1116 0 0 0 0 0
130 1 3 31.1018 -1113 0 0 0 0 0
131 1 3 31.1018 -1110 0 0 0 0 0
132 1 3 31.1018 -1107 0 0 0 0 0
133 1 3 31.1018 -1104 0 0 0 0 0
134 1 3 31.1018 -1101 0 0 0 0 0
135 1 3 31.1018 -1098 0 0 0 0 0
136 1 3 31.1018 -1095 0 0 0 0 0
137 1 3 31.1018 -1092 0 0 0 0 0
138 1 3 31.1018 -1089 0 0 0 0 0
139 1 3 31.1018 -1086 0 0 0 0 0
140 1 3 31.1018 -1083 0 0 0 0 0
141 1 3 31.1018 -1080 0 0 0 0 0
142 1 3 31.1018 -1077 0 0 0 0 0
143 1 3 31.1018 -1074 0 0 0 0 0
144 1 3 31.1018 -1071 0 0 0 0 0
145 1 3 31.1018 -1068 0 0 0 0 0
146 1 3 31.1018 -1065 0 0 0 0 0
147 1 3 31.1018 -1062 0 0 0 0 0
148 1 3 31.1018 -1059 0 0 0 0 0
149 1 3 31.1018 -1056 0 0 0 0 0
150 1 3 31.1018 -1053 0 0 0 0 0
151 1 3 31.1018 -1050 0 0 0 0 0
152 1 3 31.1018 -1047 0 0 0 0 0
153 1 3 31.1018 -1044 0 0 0 0 0
154 1 3 31.1018 -1041 0 0 0 0 0
155 1 3 31.1018 -1038 0 0 0 0 0
156 1 3 31.1018 -1035 0 0 0 0 0
157 1 3 31.1018 -1032 0 0 0 0 0
158 1 3 31.1018 -1029 0 0 0 0 0
159 1 3 31.1018 -1026 0 0 0 0 0
160 1 3 31.1018 -1023 0 0 0 0 0
161 1 3 31.1018 -1020 0 0 0 0 0
162 1 3 31.1018 -1017 0 0 0 0 0
163 1 3 31.1018 -1014 0 0 0 0 0
164 1 3 31.1018 -1011 0 0 0 0 0
165 1 3 31.1018 -1008 0 0 0 0 0
166 1 3 31.1018 -1005 0 0 0 0 0
167 1 3 31.1018 -1002 0 0 0 0 0
168 1 3 31.1018 -999 0 0 0 0 0
169 1 3 31.1018 -996 0 0 0 0 0
170 1 3 31.1018 -993 0 0 0 0 0
171 1 3 31.1018 -990 0 0 0 0 0
172 1 3 31.1018 -987 0 0 0 0 0
173 1 3 31.1018 -984 0 0 0 0 0
174 1 3 31.1018 -981 0 0 0 0 0
175 1 3 31.1018 -978 0 0 0 0 0
176 1 3 31.1018 -975 0 0 0 0 0
177 1 3 31.1018 -972 0 0 0 0 0
178 1 3 31.1018 -969 0 0 0 0 0
179 1 3 31.1018 -966 0 0 0 0 0
180 1 3 31.1018 -963 0 0 0 0 0
181 1 3 31.1018 -960 0 0 0 0 0
182 1 3 31.1018 -957 0 0 0 0 0
183 1 3 31.1018 -954 0 0 0 0 0
184 1 3 31.1018 -951 0 0 0 0 0
185 1 3 31.1018 -948 0 0 0 0 0
186 1 3 31.1018 -945 0 0 0 0 0
187 1 3 31.1018 -942 0 0 0 0 0
188 1 3 31.1018 -939 0 0 0 0 0
189 1 3 31.1018 -936 0 0 0 0 0
190 1 3 31.1018 -933 0 0 0 0 0
191 1 3 31.1018 -930 0 0 0 0 0
192 1 3 31.1018 -927 0 0 0 0 0
193 1 3 31.1018 -924 0 0 0 0 0
194 1 3 31.1018 -921 0 0 0 0 0
195 1 3 31.1018 -918 0 0 0 0 0
196 1 3 31.1018 -915 0 0 0 0 0
197 1 3 31.1018 -912 0 0 0 0 0
198 1 3 31.1018 -909 0 0 0 0 0
199 1 3 31.1018 -906 0 0 0 0 0
200 1 3 31.1018 -903 0 0 0 0 0
201 1 3 31.1018 -900 0 0 0 0 0
202 1 3 31.1018 -897 0 0 0 0 0
203 1 3 31.1018 -894 0 0 0 0 0
204 1 3 31.1018 -891 0 0 0 0 0
205 1 3 31.1018 -888 0 0 0 0 0
206 1 3 31.1018 -885 0 0 0 0 0
207 1 3 31.1018 -882 0 0 0 0 0
208 1 3 31.1018 -879 0 0 0 0 0
209 1 3 31.1018 -876 0 0 0 0 0
210 1 3 31.1018 -873 0 0 0 0 0
211 1 3 31.1018 -870 0 0 0 0 0
212 1 3 31.1018 -867 0 0 0 0 0
213 1 3 31.1018 -864 0 0 0 0 0
214 1 3 31.1018 -861 0 0 0 0 0
215 1 3 31.1018 -858 0 0 0 0 0
216 1 3 31.1018 -855 0 0 0 0 0
217 1 3 31.1018 -852 0 0 0 0 0
218 1 3 31.1018 -849 0 0 0 0 0
219 1 3 31.1018 -846 0 0 0 0 0
220 1 3 31.1018 -843 0 0 0 0 0
221 1 3 31.1018 -840 0 0 0 0 0
222 1 3 31.1018 -837 0 0 0 0 0
223 1 3 31.1018 -834 0 0 0 0 0
224 1 3 31.1018 -831 0 0 0 0 0
225 1 3 31.1018 -828 0 0 0 0 0
226 1 3 31.1018 -825 0 0 0 0 0
227 1 3 31.1018 -822 0 0 0 0 0
228 1 3 31.1018 -819 0 0 0 0 0
229 1 3 31.1018 -816 0 0 0 0 0
230 1 3 31.1018 -813 0 0 0 0 0
231 1 3 31.1018 -810 0 0 0 0 0
232 1 3 31.1018 -807 0 0 0 0 0
233 1 3 31.1018 -804 0 0 0 0 0
234 1 3 31.1018 -801 0 0 0 0 0
235 1 3 31.1018 -798 0 0 0 0 0
236 1 3 31.1018 -795 0 0 0 0 0
237 1 3 31.1018 -792 0 0 0 0 0
238 1 3 31.1018 -789 0 0 0 0 0
239 1 3 31.1018 -786 0 0 0 0 0
240 1 3 31.1018 -783 0 0 0 0 0
241 1 3 31.1018 -780 0 0 0 0 0
242 1 3 31.1018 -777 0 0 0 0 0
243 1 3 31.1018 -774 0 0 0 0 0
244 1 3 31.1018 -771 0 0 0 0 0
245 1 3 31.1018 -768 0 0 0 0 0
246 1 3 31.1018 -765 0 0 0 0 0
247 1 3 31.1018 -762 0 0 0 0 0
248 1 3 31.1018 -759 0 0 0 0 0
249 1 3 31.1018 -756 0 0 0 0 0
250 1 3 31.1018 -753 0 0 0 0 0
1001 2 3 31.1018 -1500 0 2.99937136104 -8.78205e-15 0 -0.000193936
1002 2 3 31.1018 -1497 0 2.99937136104 -8.78205e-15 0 -0.000193936
1003 2 3 31.1018 -1494 0 2.99937136104 -8.78205e-15 0 -0.000193936
1004 2 3 31.1018 -1491 0 2.99937136104 -8.78205e-15 0 -0.000193936
1005 2 3 31.1018 -1488 0 2.99937136104 -8.78205e-15 0 -0.000193936
1006 2 3 31.1018 -1485 0 2.99937136104 -8.78205e-15 0 -0.000193936
1007 2 3 31.1018 -1482 0 2.99937136104 -8.78205e-15 0 -0.000193936
1008 2 3 31.1018 -1479 0 2.99937136104 -8.78205e-15 0 -0.000193936
1009 2 3 31.1018 -1476 0 2.99937136104 -8.78205e-15 0 -0.000193936
1010 2 3 31.1018 -1473 0 2.99937136104 -8.78205e-15 0 -0.000193936
1011 2 3 31.1018 -1470 0 2.99937136104 -8.78205e-15 0 -0.000193936
1012 2 3 31.1018 -1467 0 2.99937136104 -8.78205e-15 0 -0.000193936
1013 2 3 31.1018 -1464 0 2.99937136104 -8.78205e-15 0 -0.000193936
1014 2 3 31.1018 -1461 0 2.99937136104 -8.78205e-15 0 -0.000193936
1015 2 3 31.1018 -1458 0 2.99937136104 -8.78205e-15 0 -0.000193936
1016 2 3 31.1018 -1455 0 2.99937136104 -8.78205e-15 0 -0.000193936
1017 2 3 31.1018 -1452 0 2.99937136104 -8.78205e-15 0 -0.000193936
1018 2 3 31.1018 -1449 0 2.99937136104 -8.78205e-15 0 -0.000193936
1019 2 3 31.1018 -1446 0 2.99937136104 -8.78205e-15 0 -0.000193936
1020 2 3 31.1018 -1443 0 2.99937136104 -8.78205e-15 0 -0.000193936
1021 2 3 31.1018 -1440 0 2.99937136104 -8.78205e-15 0 -0.000193936
1022 2 3 31.1018 -1437 0 2.99937136104 -8.78205e-15 0 -0.000193936
1023 2 3 31.1018 -1434 0 2.99937136104 -8.78205e-15 0 -0.000193936
1024 2 3 31.1018 -1431 0 2.99937136104 -8.78205e-15 0 -0.000193936
1025 2 3 31.1018 -1428 0 2.99937136104 -8.78205e-15 0 -0.000193936
1026 2 3 31.1018 -1425 0 2.99937136104 -8.78205e-15 0 -0.000193936
1027 2 3 31.1018 -1422 0 2.99937136104 -8.78205e-15 0 -0.000193936
1028 2 3 31.1018 -1419 0 2.99937136104 -8.78205e-15 0 -0.000193936
1029 2 3 31.1018 -1416 0 2.99937136104 -8.78205e-15 0 -0.000193936
1030 2 3 31.1018 -1413 0 2.99937136104 -8.78205e-15 0 -0.000193936
1031 2 3 31.1018 -1410 0 2.99937136104 -8.78205e-15 0 -0.000193936
1032 2 3 31.1018 -1407 0 2.99937136104 -8.78205e-15 0 -0.000193936
1033 2 3 31.1018 -1404 0 2.99937136104 -8.78205e-15 0 -0.000193936
1034 2 3 31.1018 -1401 0 2.99937136104 -8.78205e-15 0 -0.000193936
1035 2 3 31.1018 -1398 0 2.99937136104 -8.78205e-15 0 -0.000193936
1036 2 3 31.1018 -1395 0 2.99937136104 -8.78205e-15 0 -0.000193936
1037 2 3 31.1018 -1392 0 2.99937136104 -8.78205e-15 0 -0.000193936
1038 2 3 31.1018 -1389 0 2.99937136104 -8.78205e-15 0 -0.000193936
1039 2 3 31.1018 -1386 0 2.99937136104 -8.78205e-15 0 -0.000193936
1040 2 3 31.1018 -1383 0 2.99937136104 -8.78205e-15 0 -0.000193936
1041 2 3 31.1018 -1380 0 2.99937136104 -8.78205e-15 0 -0.000193936
1042 2 3 31.1018 -1377 0 2.99937136104 -8.78205e-15 0 -0.000193936
1043 2 3 31.1018 -1374 0 2.99937136104 -8.78205e-15 0 -0.000193936
1044 2 3 31.1018 -1371 0 2.99937136104 -8.78205e-15 0 -0.000193936
1045 2 3 31.1018 -1368 0 2.99937136104 -8.78205e-15 0 -0.000193936
1046 2 3 31.1018 -1365 0 2.99937136104 -8.78205e-15 0 -0.000193936
1047 2 3 31.1018 -1362 0 2.99937136104 -8.78205e-15 0 -0.000193936
1048 2 3 31.1018 -1359 0 2.99937136104 -8.78205e-15 0 -0.000193936
1049 2 3 31.1018 -1356 0 2.99937136104 -8.78205e-15 0 -0.000193936
1050 2 3 31.1018 -1353 0 2.99937136104 -8.78205e-15 0 -0.000193936
1051 2 3 31.1018 -1350 0 2.99937136104 -8.78205e-15 0 -0.000193936
1052 2 3 31.1018 -1347 0 2.99937136104 -8.78205e-15 0 -0.000193936
1053 2 3 31.1018 -1344 0 2.99937136104 -8.78205e-15 0 -0.000193936
1054 2 3 31.1018 -1341 0 2.99937136104 -8.78205e-15 0 -0.000193936
1055 2 3 31.1018 -1338 0 2.99937136104 -8.78205e-15 0 -0.000193936
1056 2 3 31.1018 -1335 0 2.99937136104 -8.78205e-15 0 -0.000193936
1057 2 3 31.1018 -1332 0 2.99937136104 -8.78205e-15 0 -0.000193936
1058 2 3 31.1018 -1329 0 2.99937136104 -8.78205e-15 0 -0.000193936
1059 2 3 31.1018 -1326 0 2.99937136104 -8.78205e-15 0 -0.000193936
1060 2 3 31.1018 -1323 0 2.99937136104 -8.78205e-15 0 -0.000193936
1061 2 3 31.1018 -1320 0 2.99937136104 -8.78205e-15 0 -0.000193936
1062 2 3 31.1018 -1317 0 2.99937136104 -8.78205e-15 0 -0.000193936
1063 2 3 31.1018 -1314 0 2.99937136104 -8.78205e-15 0 -0.000193936
1064 2 3 31.1018 -1311 0 2.99937136104 -8.78205e-15 0 -0.000193936
1065 2 3 31.1018 -1308 0 2.99937136104 -8.78205e-15 0 -0.000193936
1066 2 3 31.1018 -1305 0 2.99937136104 -8.78205e-15 0 -0.000193936
1067 2 3 31.1018 -1302 0 2.99937136104 -8.78205e-15 0 -0.000193936
1068 2 3 31.1018 -1299 0 2.99937136104 -8.78205e-15 0 -0.000193936
1069 2 3 31.1018 -1296 0 2.99937136104 -8.78205e-15 0 -0.000193936
1070 2 3 31.1018 -1293 0 2.99937136104 -8.78205e-15 0 -0.000193936
1071 2 3 31.1018 -1290 0 2.99937136104 -8.78205e-15 0 -0.000193936
1072 2 3 31.1018 -1287 0 2.99937136104 -8.78205e-15 0 -0.000193936
1073 2 3 31.1018 -1284 0 2.99937136104 -8.78205e-15 0 -0.000193936
1074 2 3 31.1018 -1281 0 2.99937136104 -8.78205e-15 0 -0.000193936
1075 2 3 31.1018 -1278 0 2.99937136104 -8.78205e-15 0 -0.000193936
1076 2 3 31.1018 -1275 0 2.99937136104 -8.78205e-15 0 -0.000193936
1077 2 3 31.1018 -1272 0 2.99937136104 -8.78205e-15 0 -0.000193936
1078 2 3 31.1018 -1269 0 2.99937136104 -8.78205e-15 0 -0.000193936
1079 2 3 31.1018 -1266 0 2.99937136104 -8.78205e-15 0 -0.000193936
1080 2 3 31.1018 -1263 0 2.99937136104 -8.78205e-15 0 -0.000193936
1081 2 3 31.1018 -1260 0 2.99937136104 -8.78205e-15 0 -0.000193936
1082 2 3 31.1018 -1257 0 2.99937136104 -8.78205e-15 0 -0.000193936
1083 2 3 31.1018 -1254 0 2.99937136104 -8.78205e-15 0 -0.000193936
1084 2 3 31.1018 -1251 0 2.99937136104 -8.78205e-15 0 -0.000193936
1085 2 3 31.1018 -1248 0 2.99937136104 -8.78205e-15 0 -0.000193936
1086 2 3 31.1018 -1245 0 2.99937136104 -8.78205e-15 0 -0.000193936
1087 2 3 31.1018 -1242 0 2.99937136104 -8.78205e-15 0 -0.000193936
1088 2 3 31.1018 -1239 0 2.99937136104 -8.78205e-15 0 -0.000193936
1089 2 3 31.1018 -1236 0 2.99937136104 -8.78205e-15 0 -0.000193936
1090 2 3 31.1018 -1233 0 2.99937136104 -8.78205e-15 0 -0.000193936
1091 2 3 31.1018 -1230 0 2.99937136104 -8.78205e-15 0 -0.000193936
1092 2 3 31.1018 -1227 0 2.99937136104 -8.78205e-15 0 -0.000193936
1093 2 3 31.1018 -1224 0 2.99937136104 -8.78205e-15 0 -0.000193936
1094 2 3 31.1018 -1221 0 2.99937136104 -8.78205e-15 0 -0.000193936
1095 2 3 31.1018 -1218 0 2.99937136104 -8.78205e-15 0 -0.000193936
1096 2 3 31.1018 -1215 0 2.99937136104 -8.78205e-15 0 -0.000193936
1097 2 3 31.1018 -1212 0 2.99937136104 -8.78205e-15 0 -0.000193936
1098 2 3 31.1018 -1209 0 2.99937136104 -8.78205e-15 0 -0.000193936
1099 2 3 31.1018 -1206 0 2.99937136104 -8.78205e-15 0 -0.000193936
1100 2 3 31.1018 -1203 0 2.99937136104 -8.78205e-15 0 -0.000193936
1101 2 3 31.1018 -1200 0 2.99937136104 -8.78205e-15 0 -0.000193936
1102 2 3 31.1018 -1197 0 2.99937136104 -8.78205e-15 0 -0.000193936
1103 2 3 31.1018 -1194 0 2.99937136104 -8.78205e-15 0 -0.000193936
1104 2 3 31.1018 -1191 0 2.99937136104 -8.78205e-15 0 -0.000193936
1105 2 3 31.1018 -1188 0 2.99937136104 -8.78205e-15 0 -0.000193936
1106 2 3 31.1018 -1185 0 2.99937136104 -8.78205e-15 0 -0.000193936
1107 2 3 31.1018 -1182 0 2.99937136104 -8.78205e-15 0 -0.000193936
1108 2 3 31.1018 -1179 0 2.99937136104 -8.78205e-15 0 -0.000193936
1109 2 3 31.1018 -1176 0 2.99937136104 -8.78205e-15 0 -0.000193936
1110 2 3 31.1018 -1173 0 2.99937136104 -8.78205e-15 0 -0.000193936
1111 2 3 31.1018 -1170 0 2.99937136104 -8.78205e-15 0 -0.000193936
1112 2 3 31.1018 -1167 0 2.99937136104 -8.78205e-15 0 -0.000193936
1113 2 3 31.1018 -1164 0 2.99937136104 -8.78205e-15 0 -0.000193936
1114 2 3 31.1018 -1161 0 2.99937136104 -8.78205e-15 0 -0.000193936
1115 2 3 31.1018 -1158 0 2.99937136104 -8.78205e-15 0 -0.000193936
1116 2 3 31.1018 -1155 0 2.99937136104 -8.78205e-15 0 -0.000193936
1117 2 3 31.1018 -1152 0 2.99937136104 -8.78205e-15 0 -0.000193936
1118 2 3 31.1018 -1149 0 2.99937136104 -8.78205e-15 0 -0.000193936
1119 2 3 31.1018 -1146 0 2.99937136104 -8.78205e-15 0 -0.000193936
1120 2 3 31.1018 -1143 0 2.99937136104 -8.78205e-15 0 -0.000193936
1121 2 3 31.1018 -1140 0 2.99937136104 -8.78205e-15 0 -0.000193936
1122 2 3 31.1018 -1137 0 2.99937136104 -8.78205e-15 0 -0.000193936
1123 2 3 31.1018 -1134 0 2.99937136104 -8.78205e-15 0 -0.000193936
1124 2 3 31.1018 -1131 0 2.99937136104 -8.78205e-15 0 -0.000193936
1125 2 3 31.1018 -1128 0 2.99937136104 -8.78205e-15 0 -0.000193936
1126 2 3 31.1018 -1125 0 2.99937136104 -8.78205e-15 0 -0.000193936
1127 2 3 31.1018 -1122 0 2.99937136104 -8.78205e-15 0 -0.000193936
1128 2 3 31.1018 -1119 0 2.99937136104 -8.78205e-15 0 -0.000193936
1129 2 3 31.1018 -1116 0 2.99937136104 -8.78205e-15 0 -0.000193936
1130 2 3 31.1018 -1113 0 2.99937136104 -8.78205e-15 0 -0.000193936
1131 2 3 31.1018 -1110 0 2.99937136104 -8.78205e-15 0 -0.000193936
1132 2 3 31.1018 -1107 0 2.99937136104 -8.78205e-15 0 -0.000193936
1133 2 3 31.1018 -1104 0 2.99937136104 -8.78205e-15 0 -0.000193936
1134 2 3 31.1018 -1101 0 2.99937136104 -8.78205e-15 0 -0.000193936
1135 2 3 31.1018 -1098 0 2.99937136104 -8.78205e-15 0 -0.000193936
1136 2 3 31.1018 -1095 0 2.99937136104 -8.78205e-15 0 -0.000193936
1137 2 3 31.1018 -1092 0 2.99937136104 -8.78205e-15 0 -0.000193936
1138 2 3 31.1018 -1089 0 2.99937136104 -8.78205e-15 0 -0.000193936
1139 2 3 31.1018 -1086 0 2.99937136104 -8.78205e-15 0 -0.000193936
1140 2 3 31.1018 -1083 0 2.99937136104 -8.78205e-15 0 -0.000193936
1141 2 3 31.1018 -1080 0 2.99937136104 -8.78205e-15 0 -0.000193936
1142 2 3 31.1018 -1077 0 2.99937136104 -8.78205e-15 0 -0.000193936
1143 2 3 31.1018 -1074 0 2.99937136104 -8.78205e-15 0 -0.000193936
1144 2 3 31.1018 -1071 0 2.99937136104 -8.78205e-15 0 -0.000193936
1145 2 3 31.1018 -1068 0 2.99937136104 -8.78205e-15 0 -0.000193936
1146 2 3 31.1018 -1065 0 2.99937136104 -8.78205e-15 0 -0.000193936
1147 2 3 31.1018 -1062 0 2.99937136104 -8.78205e-15 0 -0.000193936
1148 2 3 31.1018 -1059 0 2.99937136104 -8.78205e-15 0 -0.000193936
1149 2 3 31.1018 -1056 0 2.99937136104 -8.78205e-15 0 -0.000193936
1150 2 3 31.1018 -1053 0 2.99937136104 -8.78205e-15 0 -0.000193936
1151 2 3 31.1018 -1050 0 2.99937136104 -8.78205e-15 0 -0.000193936
1152 2 3 31.1018 -1047 0 2.99937136104 -8.78205e-15 0 -0.000193936
1153 2 3 31.1018 -1044 0 2.99937136104 -8.78205e-15 0 -0.000193936
1154 2 3 31.1018 -1041 0 2.99937136104 -8.78205e-15 0 -0.000193936
1155 2 3 31.1018 -1038 0 2.99937136104 -8.78205e-15 0 -0.000193936
1156 2 3 31.1018 -1035 0 2.99937136104 -8.78205e-15 0 -0.000193936
1157 2 3 31.1018 -1032 0 2.99937136104 -8.78205e-15 0 -0.000193936
1158 2 3 31.1018 -1029 0 2.99937136104 -8.78205e-15 0 -0.000193936
1159 2 3 31.1018 -1026 0 2.99937136104 -8.78205e-15 0 -0.000193936
1160 2 3 31.1018 -1023 0 2.99937136104 -8.78205e-15 0 -0.000193936
1161 2 3 31.1018 -1020 0 2.99937136104 -8.78205e-15 0 -0.000193936
1162 2 3 31.1018 -1017 0 2.99937136104 -8.78205e-15 0 -0.000193936
1163 2 3 31.1018 -1014 0 2.99937136104 -8.78205e-15 0 -0.000193936
1164 2 3 31.1018 -1011 0 2.99937136104 -8.78205e-15 0 -0.000193936
1165 2 3 31.1018 -1008 0 2.99937136104 -8.78205e-15 0 -0.000193936
1166 2 3 31.1018 -1005 0 2.99937136104 -8.78205e-15 0 -0.000193936
1167 2 3 31.1018 -1002 0 2.99937136104 -8.78205e-15 0 -0.000193936
1168 2 3 31.1018 -999 0 2.99937136104 -8.78205e-15 0 -0.000193936
1169 2 3 31.1018 -996 0 2.99937136104 -8.78205e-15 0 -0.000193936
1170 2 3 31.1018 -993 0 2.99937136104 -8.78205e-15 0 -0.000193936
1171 2 3 31.1018 -990 0 2.99937136104 -8.78205e-15 0 -0.000193936
1172 2 3 31.1018 -987 0 2.99937136104 -8.78205e-15 0 -0.000193936
1173 2 3 31.1018 -984 0 2.99937136104 -8.78205e-15 0 -0.000193936
1174 2 3 31.1018 -981 0 2.99937136104 -8.78205e-15 0 -0.000193936
1175 2 3 31.1018 -978 0 2.99937136104 -8.78205e-15 0 -0.000193936
1176 2 3 31.1018 -975 0 2.99937136104 -8.78205e-15 0 -0.000193936
1177 2 3 31.1018 -972 0 2.99937136104 -8.78205e-15 0 -0.000193936
1178 2 3 31.1018 -969 0 2.99937136104 -8.78205e-15 0 -0.000193936
1179 2 3 31.1018 -966 0 2.99937136104 -8.78205e-15 0 -0.000193936
1180 2 3 31.1018 -963 0 2.99937136104 -8.78205e-15 0 -0.000193936
1181 2 3 31.1018 -960 0 2.99937136104 -8.78205e-15 0 -0.000193936
1182 2 3 31.1018 -957 0 2.99937136104 -8.78205e-15 0 -0.000193936
1183 2 3 31.1018 -954 0 2.99937136104 -8.78205e-15 0 -0.000193936
1184 2 3 31.1018 -951 0 2.99937136104 -8.78205e-15 0 -0.000193936
1185 2 3 31.1018 -948 0 2.99937136104 -8.78205e-15 0 -0.000193936
1186 2 3 31.1018 -945 0 2.99937136104 -8.78205e-15 0 -0.000193936
1187 2 3 31.1018 -942 0 2.99937136104 -8.78205e-15 0 -0.000193936
1188 2 3 31.1018 -939 0 2.99937136104 -8.78205e-15 0 -0.000193936
1189 2 3 31.1018 -936 0 2.99937136104 -8.78205e-15 0 -0.000193936
1190 2 3 31.1018 -933 0 2.99937136104 -8.78205e-15 0 -0.000193936
1191 2 3 31.1018 -930 0 2.99937136104 -8.78205e-15 0 -0.000193936
1192 2 3 31.1018 -927 0 2.99937136104 -8.78205e-15 0 -0.000193936
1193 2 3 31.1018 -924 0 2.99937136104 -8.78205e-15 0 -0.000193936
1194 2 3 31.1018 -921 0 2.99937136104 -8.78205e-15 0 -0.000193936
1195 2 3 31.1018 -918 0 2.99937136104 -8.78205e-15 0 -0.000193936
1196 2 3 31.1018 -915 0 2.99937136104 -8.78205e-15 0 -0.000193936
1197 2 3 31.1018 -912 0 2.99937136104 -8.78205e-15 0 -0.000193936
1198 2 3 31.1018 -909 0 2.99937136104 -8.78205e-15 0 -0.000193936
1199 2 3 31.1018 -906 0 2.99937136104 -8.78205e-15 0 -0.000193936
1200 2 3 31.1018 -903 0 2.99937136104 -8.78205e-15 0 -0.000193936
1201 2 3 31.1018 -900 0 2.99937136104 -8.78205e-15 0 -0.000193936
1202 2 3 31.1018 -897 0 2.99937136104 -8.78205e-15 0 -0.000193936
1203 2 3 31.1018 -894 0 2.99937136104 -8.78205e-15 0 -0.000193936
1204 2 3 31.1018 -891 0 2.99937136104 -8.78205e-15 0 -0.000193936
1205 2 3 31.1018 -888 0 2.99937136104 -8.78205e-15 0 -0.000193936
1206 2 3 31.1018 -885 0 2.99937136104 -8.78205e-15 0 -0.000193936
1207 2 3 31.1018 -882 0 2.99937136104 -8.78205e-15 0 -0.000193936
1208 2 3 31.1018 -879 0 2.99937136104 -8.78205e-15 0 -0.000193936
1209 2 3 31.1018 -876 0 2.99937136104 -8.78205e-15 0 -0.000193936
1210 2 3 31.1018 -873 0 2.99937136104 -8.78205e-15 0 -0.000193936
1211 2 3 31.1018 -870 0 2.99937136104 -8.78205e-15 0 -0.000193936
1212 2 3 31.1018 -867 0 2.99937136104 -8.78205e-15 0 -0.000193936
1213 2 3 31.1018 -864 0 2.99937136104 -8.78205e-15 0 -0.000193936
1214 2 3 31.1018 -861 0 2.99937136104 -8.78205e-15 0 -0.000193936
1215 2 3 31.1018 -858 0 2.99937136104 -8.78205e-15 0 -0.000193936
1216 2 3 31.1018 -855 0 2.99937136104 -8.78205e-15 0 -0.000193936
1217 2 3 31.1018 -852 0 2.99937136104 -8.78205e-15 0 -0.000193936
1218 2 3 31.1018 -849 0 2.99937136104 -8.78205e-15 0 -0.000193936
1219 2 3 31.1018 -846 0 2.99937136104 -8.78205e-15 0 -0.000193936
1220 2 3 31.1018 -843 0 2.99937136104 -8.78205e-15 0 -0.000193936
1221 2 3 31.1018 -840 0 2.99937136104 -8.78205e-15 0 -0.000193936
1222 2 3 31.1018 -837 0 2.99937136104 -8.78205e-15 0 -0.000193936
1223 2 3 31.1018 -834 0 2.99937136104 -8.78205e-15 0 -0.000193936
1224 2 3 31.1018 -831 0 2.99937136104 -8.78205e-15 0 -0.000193936
1225 2 3 31.1018 -828 0 2.99937136104 -8.78205e-15 0 -0.000193936
1226 2 3 31.1018 -825 0 2.99937136104 -8.78205e-15 0 -0.000193936
1227 2 3 31.1018 -822 0 2.99937136104 -8.78205e-15 0 -0.000193936
1228 2 3 31.1018 -819 0 2.99937136104 -8.78205e-15 0 -0.000193936
1229 2 3 31.1018 -816 0 2.99937136104 -8.78205e-15 0 -0.000193936
1230 2 3 31.1018 -813 0 2.99937136104 -8.78205e-15 0 -0.000193936
1231 2 3 31.1018 -810 0 2.99937136104 -8.78205e-15 0 -0.000193936
1232 2 3 31.1018 -807 0 2.99937136104 -8.78205e-15 0 -0.000193936
1233 2 3 31.1018 -804 0 2.99937136104 -8.78205e-15 0 -0.000193936
1234 2 3 31.1018 -801 0 2.99937136104 -8.78205e-15 0 -0.000193936
1235 2 3 31.1018 -798 0 2.99937136104 -8.78205e-15 0 -0.000193936
1236 2 3 31.1018 -795 0 2.99937136104 -8.78205e-15 0 -0.000193936
1237 2 3 31.1018 -792 0 2.99937136104 -8.78205e-15 0 -0.000193936
1238 2 3 31.1018 -789 0 2.99937136104 -8.78205e-15 0 -0.000193936
1239 2 3 31.1018 -786 0 2.99937136104 -8.78205e-15 0 -0.000193936
1240 2 3 31.1018 -783 0 2.99937136104 -8.78205e-15 0 -0.000193936
1241 2 3 31.1018 -780 0 2.99937136104 -8.78205e-15 0 -0.000193936
1242 2 3 31.1018 -777 0 2.99937136104 -8.78205e-15 0 -0.000193936
1243 2 3 31.1018 -774 0 2.99937136104 -8.78205e-15 0 -0.000193936
1244 2 3 31.1018 -771 0 2.99937136104 -8.78205e-15 0 -0.000193936
1245 2 3 31.1018 -768 0 2.99937136104 -8.78205e-15 0 -0.000193936
1246 2 3 31.1018 -765 0 2.99937136104 -8.78205e-15 0 -0.000193936
1247 2 3 31.1018 -762 0 2.99937136104 -8.78205e-15 0 -0.000193936
1248 2 3 31.1018 -759 0 2.99937136104 -8.78205e-15 0 -0.000193936
1249 2 3 31.1018 -756 0 2.99937136104 -8.78205e-15 0 -0.000193936
1250 2 3 31.1018 -753 0 2.99937136104 -8.78205e-15 0 -0.000193936
251 1 3 31.1018 -750 0 0 0 0 0
252 1 3 31.1018 -747 0 0 0 0 0
253 1 3 31.1018 -744 0 0 0 0 0
254 1 3 31.1018 -741 0 0 0 0 0
255 1 3 31.1018 -738 0 0 0 0 0
256 1 3 31.1018 -735 0 0 0 0 0
257 1 3 31.1018 -732 0 0 0 0 0
258 1 3 31.1018 -729 0 0 0 0 0
259 1 3 31.1018 -726 0 0 0 0 0
260 1 3 31.1018 -723 0 0 0 0 0
261 1 3 31.1018 -720 0 0 0 0 0
262 1 3 31.1018 -717 0 0 0 0 0
263 1 3 31.1018 -714 0 0 0 0 0
264 1 3 31.1018 -711 0 0 0 0 0
265 1 3 31.1018 -708 0 0 0 0 0
266 1 3 31.1018 -705 0 0 0 0 0
267 1 3 31.1018 -702 0 0 0 0 0
268 1 3 31.1018 -699 0 0 0 0 0
269 1 3 31.1018 -696 0 0 0 0 0
270 1 3 31.1018 -693 0 0 0 0 0
271 1 3 31.1018 -690 0 0 0 0 0
272 1 3 31.1018 -687 0 0 0 0 0
273 1 3 31.1018 -684 0 0 0 0 0
274 1 3 31.1018 -681 0 0 0 0 0
275 1 3 31.1018 -678 0 0 0 0 0
276 1 3 31.1018 -675 0 0 0 0 0
277 1 3 31.1018 -672 0 0 0 0 0
278 1 3 31.1018 -669 0 0 0 0 0
279 1 3 31.1018 -666 0 0 0 0 0
280 1 3 31.1018 -663 0 0 0 0 0
281 1 3 31.1018 -660 0 0 0 0 0
282 1 3 31.1018 -657 0 0 0 0 0
283 1 3 31.1018 -654 0 0 0 0 0
284 1 3 31.1018 -651 0 0 0 0 0
285 1 3 31.1018 -648 0 0 0 0 0
286 1 3 31.1018 -645 0 0 0 0 0
287 1 3 31.1018 -642 0 0 0 0 0
288 1 3 31.1018 -639 0 0 0 0 0
289 1 3 31.1018 -636 0 0 0 0 0
290 1 3 31.1018 -633 0 0 0 0 0
291 1 3 31.1018 -630 0 0 0 0 0
292 1 3 31.1018 -627 0 0 0 0 0
293 1 3 31.1018 -624 0 0 0 0 0
294 1 3 31.1018 -621 0 0 0 0 0
295 1 3 31.1018 -618 0 0 0 0 0
296 1 3 31.1018 -615 0 0 0 0 0
297 1 3 31.1018 -612 0 0 0 0 0
298 1 3 31.1018 -609 0 0 0 0 0
299 1 3 31.1018 -606 0 0 0 0 0
300 1 3 31.1018 -603 0 0 0 0 0
301 1 3 31.1018 -600 0 0 0 0 0
302 1 3 31.1018 -597 0 0 0 0 0
303 1 3 31.1018 -594 0 0 0 0 0
304 1 3 31.1018 -591 0 0 0 0 0
305 1 3 31.1018 -588 0 0 0 0 0
306 1 3 31.1018 -585 0 0 0 0 0
307 1 3 31.1018 -582 0 0 0 0 0
308 1 3 31.1018 -579 0 0 0 0 0
309 1 3 31.1018 -576 0 0 0 0 0
310 1 3 31.1018 -573 0 0 0 0 0
311 1 3 31.1018 -570 0 0 0 0 0
312 1 3 31.1018 -567 0 0 0 0 0
313 1 3 31.1018 -564 0 0 0 0 0
314 1 3 31.1018 -561 0 0 0 0 0
315 1 3 31.1018 -558 0 0 0 0 0
316 1 3 31.1018 -555 0 0 0 0 0
317 1 3 31.1018 -552 0 0 0 0 0
318 1 3 31.1018 -549 0 0 0 0 0
319 1 3 31.1018 -546 0 0 0 0 0
320 1 3 31.1018 -543 0 0 0 0 0
321 1 3 31.1018 -540 0 0 0 0 0
322 1 3 31.1018 -537 0 0 0 0 0
323 1 3 31.1018 -534 0 0 0 0 0
324 1 3 31.1018 -531 0 0 0 0 0
325 1 3 31.1018 -528 0 0 0 0 0
326 1 3 31.1018 -525 0 0 0 0 0
327 1 3 31.1018 -522 0 0 0 0 0
328 1 3 31.1018 -519 0 0 0 0 0
329 1 3 31.1018 -516 0 0 0 0 0
330 1 3 31.1018 -513 0 0 0 0 0
331 1 3 31.1018 -510 0 0 0 0 0
332 1 3 31.1018 -507 0 0 0 0 0
333 1 3 31.1018 -504 0 0 0 0 0
334 1 3 31.1018 -501 0 0 0 0 0
335 1 3 31.1018 -498 0 0 0 0 0
336 1 3 31.1018 -495 0 0 0 0 0
337 1 3 31.1018 -492 0 0 0 0 0
338 1 3 31.1018 -489 0 0 0 0 0
339 1 3 31.1018 -486 0 0 0 0 0
340 1 3 31.1018 -483 0 0 0 0 0
341 1 3 31.1018 -480 0 0 0 0 0
342 1 3 31.1018 -477 0 0 0 0 0
343 1 3 31.1018 -474 0 0 0 0 0
344 1 3 31.1018 -471 0 0 0 0 0
345 1 3 31.1018 -468 0 0 0 0 0
346 1 3 31.1018 -465 0 0 0 0 0
347 1 3 31.1018 -462 0 0 0 0 0
348 1 3 31.1018 -459 0 0 0 0 0
349 1 3 31.1018 -456 0 0 0 0 0
350 1 3 31.1018 -453 0 0 0 0 0
351 1 3 31.1018 -450 0 0 0 0 0
352 1 3 31.1018 -447 0 0 0 0 0
353 1 3 31.1018 -444 0 0 0 0 0
354 1 3 31.1018 -441 0 0 0 0 0
355 1 3 31.1018 -438 0 0 0 0 0
356 1 3 31.1018 -435 0 0 0 0 0
357 1 3 31.1018 -432 0 0 0 0 0
358 1 3 31.1018 -429 0 0 0 0 0
359 1 3 31.1018 -426 0 0 0 0 0
360 1 3 31.1018 -423 0 0 0 0 0
361 1 3 31.1018 -420 0 0 0 0 0
362 1 3 31.1018 -417 0 0 0 0 0
363 1 3 31.1018 -414 0 0 0 0 0
364 1 3 31.1018 -411 0 0 0 0 0
365 1 3 31.1018 -408 0 0 0 0 0
366 1 3 31.1018 -405 0 0 0 0 0
367 1 3 31.1018 -402 0 0 0 0 0
368 1 3 31.1018 -399 0 0 0 0 0
369 1 3 31.1018 -396 0 0 0 0 0
370 1 3 31.1018 -393 0 0 0 0 0
371 1 3 31.1018 -390 0 0 0 0 0
372 1 3 31.1018 -387 0 0 0 0 0
373 1 3 31.1018 -384 0 0 0 0 0
374 1 3 31.1018 -381 0 0 0 0 0
375 1 3 31.1018 -378 0 0 0 0 0
376 1 3 31.1018 -375 0 0 0 0 0
377 1 3 31.1018 -372 0 0 0 0 0
378 1 3 31.1018 -369 0 0 0 0 0
379 1 3 31.1018 -366 0 0 0 0 0
380 1 3 31.1018 -363 0 0 0 0 0
381 1 3 31.1018 -360 0 0 0 0 0
382 1 3 31.1018 -357 0 0 0 0 0
383 1 3 31.1018 -354 0 0 0 0 0
384 1 3 31.1018 -351 0 0 0 0 0
385 1 3 31.1018 -348 0 0 0 0 0
386 1 3 31.1018 -345 0 0 0 0 0
387 1 3 31.1018 -342 0 0 0 0 0
388 1 3 31.1018 -339 0 0 0 0 0
389 1 3 31.1018 -336 0 0 0 0 0
390 1 3 31.1018 -333 0 0 0 0 0
391 1 3 31.1018 -330 0 0 0 0 0
392 1 3 31.1018 -327 0 0 0 0 0
393 1 3 31.1018 -324 0 0 0 0 0
394 1 3 31.1018 -321 0 0 0 0 0
395 1 3 31.1018 -318 0 0 0 0 0
396 1 3 31.1018 -315 0 0 0 0 0
397 1 3 31.1018 -312 0 0 0 0 0
398 1 3 31.1018 -309 0 0 0 0 0
399 1 3 31.1018 -306 0 0 0 0 0
400 1 3 31.1018 -303 0 0 0 0 0
401 1 3 31.1018 -300 0 0 0 0 0
402 1 3 31.1018 -297 0 0 0 0 0
403 1 3 31.1018 -294 0 0 0 0 0
404 1 3 31.1018 -291 0 0 0 0 0
405 1 3 31.1018 -288 0 0 0 0 0
406 1 3 31.1018 -285 0 0 0 0 0
407 1 3 31.1018 -282 0 0 0 0 0
408 1 3 31.1018 -279 0 0 0 0 0
409 1 3 31.1018 -276 0 0 0 0 0
410 1 3 31.1018 -273 0 0 0 0 0
411 1 3 31.1018 -270 0 0 0 0 0
412 1 3 31.1018 -267 0 0 0 0 0
413 1 3 31.1018 -264 0 0 0 0 0
414 1 3 31.1018 -261 0 0 0 0 0
415 1 3 31.1018 -258 0 0 0 0 0
416 1 3 31.1018 -255 0 0 0 0 0
417 1 3 31.1018 -252 0 0 0 0 0
418 1 3 31.1018 -249 0 0 0 0 0
419 1 3 31.1018 -246 0 0 0 0 0