LAMMPS (23 Jun 2022 - Update 1)
  using 1 OpenMP thread(s) per MPI task
Lattice spacing in x,y,z = 3 3 3
Created orthogonal box = (-1500 -50 -50) to (1500 50 50)
  4 by 1 by 1 MPI processor grid
Created 1000 atoms
  using lattice units in orthogonal box = (-1500 -50 -50) to (1500 50 50)
  create_atoms CPU = 0.004 seconds
Lattice spacing in x,y,z = 3 3 3
Created 1000 atoms
  using lattice units in orthogonal box = (-1500 -50 -50) to (1500 50 50)
  create_atoms CPU = 0.000 seconds
Setting atom values ...
  1000 settings made for diameter
Setting atom values ...
  1000 settings made for mass
Setting atom values ...
  1000 settings made for diameter
Setting atom values ...
  1000 settings made for mass
1000 atoms in group substrate
1000 atoms in group slider1
  1 rigid bodies with 1000 atoms
Generated 0 of 1 mixed pair_coeff terms from geometric mixing rule
Neighbor list info ...
  update every 1 steps, delay 0 steps, check yes
  max neighbors/atom: 2000, page size: 100000
  master list distance cutoff = 3.1
  ghost atom cutoff = 3.1
  binsize = 1.55, bins = 1936 65 65
  1 neighbor lists, perpetual/occasional/extra = 1 0 0
  (1) pair granular, perpetual
      attributes: half, newton on, size, history
      pair build: half/size/bin/newton
      stencil: half/bin/3d
      bin: standard
Setting up Verlet run ...
  Unit style    : micro
  Current step  : 0
  Time step     : 1e-05
Per MPI rank memory allocation (min/avg/max) = 21.87 | 21.87 | 21.87 Mbytes
   Step           Lx             Ly             Lz           Press           Pxx            Pyy            Pzz           KinEng         PotEng          Temp          c_1[1]         c_1[2]         c_1[3]    
         0   3000           100            100            0              0              0              0              0              0              0             -1.5            0              6            
    100000   3000           100            100            0.0270653      1.7444337e-20  0              0.081195899    583590.62      0              2.8179502e+13 -1.5            0              3.3294762    
    200000   3000           100            100            0.0096313366   1.0254386e-21  0              0.02889401     143148.68      0              6.9121375e+12 -1.5            0              3.0762624    
    300000   3000           100            100            0.0010324974  -3.9910022e-21  0              0.0030974923   3239.538       0              1.564257e+11  -1.5            0              3.0469219    
    400000   3000           100            100            0.045897825   -4.4111939e-16  0              0.13769348     10775.69       0              5.203195e+11  -1.5            0              2.9971815    
    500000   3000           100            100            0.034914513   -3.1113637e-16  0              0.10474354     1885.0594      0              9.1022772e+10 -1.5            0              2.9977365    
    600000   3000           100            100            0.016978836   -1.5398077e-16  0              0.050936509    46.140967      0              2.2279821e+09 -1.5            0              2.9985858    
    700000   3000           100            100            0.039823397   -3.6323597e-16  0              0.11947019     5.8129827      0              2.8068813e+08 -1.5            0              2.9974932    
    800000   3000           100            100            0.031844839   -2.9113483e-16  0              0.095534516    2.8609448      0              1.3814478e+08 -1.5            0              2.9978377    
    900000   3000           100            100            0.033413533   -3.0503101e-16  0              0.1002406      0.54978689     0              26547241      -1.5            0              2.9977691    
   1000000   3000           100            100            0.033427488   -3.0533137e-16  0              0.10028246     0.062470199    0              3016462.3     -1.5            0              2.9977678    
   1100000   3000           100            100            0.033218868   -3.0337279e-16  0              0.099656603    0.0039301415   0              189772.47     -1.5            0              2.9977773    
   1200000   3000           100            100            0.033350227   -3.0458386e-16  0              0.10005068     5.56258e-05    0              2685.9708     -1.5            0              2.9977714    
   1300000   3000           100            100            0.033293753   -3.0406774e-16  0              0.099881258    1.1559621e-05  0              558.17274     -1.5            0              2.9977739    
   1400000   3000           100            100            0.033312628   -3.0423889e-16  0              0.099937885    9.8156692e-06  0              473.96353     -1.5            0              2.9977731    
   1500000   3000           100            100            0.03330795    -3.04197e-16    0              0.09992385     2.4098807e-06  0              116.36451     -1.5            0              2.9977733    
   1600000   3000           100            100            0.033308475   -3.0420142e-16  0              0.099925426    3.3763997e-07  0              16.303426     -1.5            0              2.9977732    
   1700000   3000           100            100            0.033308749   -3.0420405e-16  0              0.099926246    2.8281403e-08  0              1.3656077     -1.5            0              2.9977732    
   1800000   3000           100            100            0.033308507   -3.042018e-16   0              0.09992552     9.9545157e-10  0              0.048066794   -1.5            0              2.9977732    
   1900000   3000           100            100            0.033308625   -3.0420289e-16  0              0.099925876    3.1196867e-12  0              0.0001506385  -1.5            0              2.9977732    
   2000000   3000           100            100            0.033308581   -3.0420249e-16  0              0.099925743    2.7274052e-11  0              0.0013169663  -1.5            0              2.9977732    
   2100000   3000           100            100            0.033308594   -3.042026e-16   0              0.099925781    9.575082e-12   0              0.00046234644 -1.5            0              2.9977732    
   2200000   3000           100            100            0.033308591   -3.0420258e-16  0              0.099925774    1.6676698e-12  0              8.0525808e-05 -1.5            0              2.9977732    
   2300000   3000           100            100            0.033308591   -3.0420258e-16  0              0.099925774    1.7625118e-13  0              8.5105387e-06 -1.5            0              2.9977732    
   2400000   3000           100            100            0.033308592   -3.0420258e-16  0              0.099925775    9.9881487e-15  0              4.8229196e-07 -1.5            0              2.9977732    
   2500000   3000           100            100            0.033308591   -3.0420258e-16  0              0.099925774    8.4441688e-17  0              4.0773869e-09 -1.5            0              2.9977732    
   2600000   3000           100            100            0.033308592   -3.0420258e-16  0              0.099925775    5.5038823e-17  0              2.6576278e-09 -1.5            0              2.9977732    
   2700000   3000           100            100            0.033308592   -3.0420258e-16  0              0.099925775    3.1264288e-17  0              1.5096406e-09 -1.5            0              2.9977732    
   2800000   3000           100            100            0.033308592   -3.0420258e-16  0              0.099925775    7.656895e-18   0              3.6972405e-10 -1.5            0              2.9977732    
   2900000   3000           100            100            0.033308592   -3.0420258e-16  0              0.099925775    4.5471874e-18  0              2.1956741e-10 -1.5            0              2.9977732    
   3000000   3000           100            100            0.033308592   -3.0420258e-16  0              0.099925775    1.0982552e-18  0              5.3030815e-11 -1.5            0              2.9977732    
Loop time of 267.256 on 4 procs for 3000000 steps with 2000 atoms

Performance: 9698562.799 ns/day, 0.000 hours/ns, 11225.188 timesteps/s
99.9% CPU use with 4 MPI tasks x 1 OpenMP threads

MPI task timing breakdown:
Section |  min time  |  avg time  |  max time  |%varavg| %total
---------------------------------------------------------------
Pair    | 104.2      | 104.53     | 105.01     |   3.1 | 39.11
Neigh   | 0.55161    | 0.56214    | 0.57257    |   1.4 |  0.21
Comm    | 28.68      | 28.887     | 29.262     |   4.3 | 10.81
Output  | 0.19966    | 0.19979    | 0.20013    |   0.0 |  0.07
Modify  | 114.6      | 115.84     | 117.59     |  11.2 | 43.34
Other   |            | 17.24      |            |       |  6.45

Nlocal:            500 ave         500 max         500 min
Histogram: 4 0 0 0 0 0 0 0 0 0
Nghost:              6 ave           6 max           6 min
Histogram: 4 0 0 0 0 0 0 0 0 0
Neighs:            750 ave         750 max         750 min
Histogram: 4 0 0 0 0 0 0 0 0 0

Total # of neighbors = 3000
Ave neighs/atom = 1.5
Neighbor list builds = 166
Dangerous builds = 0
  using 1 OpenMP thread(s) per MPI task
Lattice spacing in x,y,z = 3 3 3
Created orthogonal box = (-1500 -50 -50) to (1500 50 50)
  4 by 1 by 1 MPI processor grid
Created 1000 atoms
  using lattice units in orthogonal box = (-1500 -50 -50) to (1500 50 50)
  create_atoms CPU = 0.001 seconds
Lattice spacing in x,y,z = 3 3 3
Created 1000 atoms
  using lattice units in orthogonal box = (-1500 -50 -50) to (1500 50 50)
  create_atoms CPU = 0.000 seconds
Setting atom values ...
  1000 settings made for diameter
Setting atom values ...
  1000 settings made for mass
Setting atom values ...
  1000 settings made for diameter
Setting atom values ...
  1000 settings made for mass
1000 atoms in group substrate
1000 atoms in group slider1
  1 rigid bodies with 1000 atoms
Generated 0 of 1 mixed pair_coeff terms from geometric mixing rule
Neighbor list info ...
  update every 1 steps, delay 0 steps, check yes
  max neighbors/atom: 2000, page size: 100000
  master list distance cutoff = 3.1
  ghost atom cutoff = 3.1
  binsize = 1.55, bins = 1936 65 65
  1 neighbor lists, perpetual/occasional/extra = 1 0 0
  (1) pair granular, perpetual
      attributes: half, newton on, size, history
      pair build: half/size/bin/newton
      stencil: half/bin/3d
      bin: standard
Setting up Verlet run ...
  Unit style    : micro
  Current step  : 0
  Time step     : 1e-05
Per MPI rank memory allocation (min/avg/max) = 21.87 | 21.87 | 21.87 Mbytes
   Step           Lx             Ly             Lz           Press           Pxx            Pyy            Pzz           KinEng         PotEng          Temp          c_1[1]         c_1[2]         c_1[3]    
         0   3000           100            100            0              0              0              0              0              0              0             -1.5            0              6            
    100000   3000           100            100            0.027192713    1.814184e-20   0              0.08157814     587715.08      0              2.8378658e+13 -1.5            0              3.3261883    
    200000   3000           100            100            0.0099090943   9.4477625e-22  0              0.029727283    149652.28      0              7.2261729e+12 -1.5            0              3.070814     
    300000   3000           100            100            0.0014508349  -4.0480839e-21  0              0.0043525046   6081.7232      0              2.9366465e+11 -1.5            0              3.0454954    
    400000   3000           100            100           -0.00091339409 -7.0800376e-21  0             -0.0027401823   3539.5255      0              1.7091102e+11 -1.5            0              3.0065275    
    500000   3000           100            100            7.094395e-05  -9.6681378e-21  0              0.00021283185  18.326696      0              8.8493054e+08 -1.5            0              3.0009309    
    600000   3000           100            100            0.034703974   -3.2012646e-16  0              0.10411192     279.96825      0              1.3518665e+10 -1.5            0              2.998101     
    700000   3000           100            100            0.040304973   -3.678103e-16   0              0.12091492     11.166335      0              5.3918236e+08 -1.5            0              2.9979147    
    800000   3000           100            100            0.032004724   -2.9227038e-16  0              0.096014171    3.8275596      0              1.8481916e+08 -1.5            0              2.9982115    
    900000   3000           100            100            0.03229172    -2.9527173e-16  0              0.096875161    0.048669696    0              2350085.4     -1.5            0              2.9981995    
   1000000   3000           100            100            0.033347941   -3.0492754e-16  0              0.10004382     0.080954825    0              3909018.8     -1.5            0              2.9981604    
   1100000   3000           100            100            0.033451248   -3.0582266e-16  0              0.10035374     8.0647612e-05  0              3894.1845     -1.5            0              2.9981568    
   1200000   3000           100            100            0.03332673    -3.0467792e-16  0              0.09998019     0.0012887964   0              62231.368     -1.5            0              2.9981614    
   1300000   3000           100            100            0.033296726   -3.0440915e-16  0              0.099890177    3.5575616e-05  0              1717.8192     -1.5            0              2.9981624    
   1400000   3000           100            100            0.033308945   -3.0452245e-16  0              0.099926834    1.5088571e-05  0              728.57311     -1.5            0              2.998162     
   1500000   3000           100            100            0.03331449    -3.0457263e-16  0              0.099943471    1.6812467e-06  0              81.181386     -1.5            0              2.9981618    
   1600000   3000           100            100            0.033313638   -3.0456456e-16  0              0.099940913    1.1112591e-07  0              5.3658727     -1.5            0              2.9981618    
   1700000   3000           100            100            0.033312801   -3.0455694e-16  0              0.099938402    4.5625866e-08  0              2.2031098     -1.5            0              2.9981619    
   1800000   3000           100            100            0.0333128     -3.0455698e-16  0              0.0999384      2.2321154e-10  0              0.010778086   -1.5            0              2.9981619    
   1900000   3000           100            100            0.033312909   -3.0455797e-16  0              0.099938727    8.909938e-10   0              0.043022902   -1.5            0              2.9981618    
   2000000   3000           100            100            0.033312924   -3.045581e-16   0              0.099938771    4.1565482e-12  0              0.00020070484 -1.5            0              2.9981618    
   2100000   3000           100            100            0.033312911   -3.0455799e-16  0              0.099938734    1.3102317e-11  0              0.00063266401 -1.5            0              2.9981618    
   2200000   3000           100            100            0.033312908   -3.0455796e-16  0              0.099938723    5.6117455e-13  0              2.709711e-05  -1.5            0              2.9981618    
   2300000   3000           100            100            0.033312909   -3.0455797e-16  0              0.099938727    1.3833655e-13  0              6.6797769e-06 -1.5            0              2.9981618    
   2400000   3000           100            100            0.03331291    -3.0455797e-16  0              0.099938729    2.1874735e-14  0              1.0562527e-06 -1.5            0              2.9981618    
   2500000   3000           100            100            0.03331291    -3.0455797e-16  0              0.099938729    7.7244839e-16  0              3.7298768e-08 -1.5            0              2.9981618    
   2600000   3000           100            100            0.033312909   -3.0455797e-16  0              0.099938728    5.358515e-16   0              2.5874351e-08 -1.5            0              2.9981618    
   2700000   3000           100            100            0.033312909   -3.0455797e-16  0              0.099938728    3.5594071e-17  0              1.7187103e-09 -1.5            0              2.9981618    
   2800000   3000           100            100            0.033312909   -3.0455797e-16  0              0.099938728    8.9738404e-18  0              4.3331464e-10 -1.5            0              2.9981618    
   2900000   3000           100            100            0.033312909   -3.0455797e-16  0              0.099938728    2.6154984e-18  0              1.2629306e-10 -1.5            0              2.9981618    
   3000000   3000           100            100            0.033312909   -3.0455797e-16  0              0.099938728    4.4240188e-19  0              2.1362003e-11 -1.5            0              2.9981618    
Loop time of 260.565 on 4 procs for 3000000 steps with 2000 atoms

Performance: 9947625.827 ns/day, 0.000 hours/ns, 11513.456 timesteps/s
99.9% CPU use with 4 MPI tasks x 1 OpenMP threads

MPI task timing breakdown:
Section |  min time  |  avg time  |  max time  |%varavg| %total
---------------------------------------------------------------
Pair    | 98.689     | 100.58     | 104.67     |  23.7 | 38.60
Neigh   | 0.54318    | 0.55432    | 0.56573    |   1.5 |  0.21
Comm    | 28.049     | 30.514     | 32.83      |  40.6 | 11.71
Output  | 0.20066    | 0.20084    | 0.20137    |   0.1 |  0.08
Modify  | 110.7      | 112.07     | 115.43     |  18.6 | 43.01
Other   |            | 16.65      |            |       |  6.39

Nlocal:            500 ave         500 max         500 min
Histogram: 4 0 0 0 0 0 0 0 0 0
Nghost:              6 ave           6 max           6 min
Histogram: 4 0 0 0 0 0 0 0 0 0
Neighs:            750 ave         750 max         750 min
Histogram: 4 0 0 0 0 0 0 0 0 0

Total # of neighbors = 3000
Ave neighs/atom = 1.5
Neighbor list builds = 168
Dangerous builds = 0
  using 1 OpenMP thread(s) per MPI task
Lattice spacing in x,y,z = 3 3 3
Created orthogonal box = (-1500 -50 -50) to (1500 50 50)
  4 by 1 by 1 MPI processor grid
Created 1000 atoms
  using lattice units in orthogonal box = (-1500 -50 -50) to (1500 50 50)
  create_atoms CPU = 0.001 seconds
Lattice spacing in x,y,z = 3 3 3
Created 1000 atoms
  using lattice units in orthogonal box = (-1500 -50 -50) to (1500 50 50)
  create_atoms CPU = 0.000 seconds
Setting atom values ...
  1000 settings made for diameter
Setting atom values ...
  1000 settings made for mass
Setting atom values ...
  1000 settings made for diameter
Setting atom values ...
  1000 settings made for mass
1000 atoms in group substrate
1000 atoms in group slider1
  1 rigid bodies with 1000 atoms
Generated 0 of 1 mixed pair_coeff terms from geometric mixing rule
Neighbor list info ...
  update every 1 steps, delay 0 steps, check yes
  max neighbors/atom: 2000, page size: 100000
  master list distance cutoff = 3.1
  ghost atom cutoff = 3.1
  binsize = 1.55, bins = 1936 65 65
  1 neighbor lists, perpetual/occasional/extra = 1 0 0
  (1) pair granular, perpetual
      attributes: half, newton on, size, history
      pair build: half/size/bin/newton
      stencil: half/bin/3d
      bin: standard
Setting up Verlet run ...
  Unit style    : micro
  Current step  : 0
  Time step     : 1e-05
Per MPI rank memory allocation (min/avg/max) = 21.87 | 21.87 | 21.87 Mbytes
   Step           Lx             Ly             Lz           Press           Pxx            Pyy            Pzz           KinEng         PotEng          Temp          c_1[1]         c_1[2]         c_1[3]    
         0   3000           100            100            0              0              0              0              0              0              0             -1.5            0              6            
    100000   3000           100            100            0.027281789    1.7958138e-20  0              0.081845367    590606.94      0              2.8518296e+13 -1.5            0              3.32386      
    200000   3000           100            100            0.010104436    1.2445212e-21  0              0.030313307    154281.09      0              7.4496818e+12 -1.5            0              3.066876     
    300000   3000           100            100            0.0017514905  -3.8412214e-21  0              0.0052544715   8569.0662      0              4.1376954e+11 -1.5            0              3.043958     
    400000   3000           100            100           -0.00039576817 -6.4837557e-21  0             -0.0011873045   599.32646      0              2.893933e+10  -1.5            0              3.0100187    
    500000   3000           100            100            0.10869264    -9.970463e-16   0              0.32607791     152.18043      0              7.3482484e+09 -1.5            0              2.9965096    
    600000   3000           100            100            0.035372527   -3.2603713e-16  0              0.10611758     302.85983      0              1.4624017e+10 -1.5            0              2.9983424    
    700000   3000           100            100            0.039129014   -3.564462e-16   0              0.11738704     24.825005      0              1.1987106e+09 -1.5            0              2.9982391    
    800000   3000           100            100            0.030819853   -2.8122072e-16  0              0.09245956     2.2009032      0              1.0627374e+08 -1.5            0              2.9984969    
    900000   3000           100            100            0.032429081   -2.9626696e-16  0              0.097287242    0.31383512     0              15153975      -1.5            0              2.9984439    
   1000000   3000           100            100            0.033565576   -3.0658634e-16  0              0.10069673     0.059574635    0              2876645.9     -1.5            0              2.9984079    
   1100000   3000           100            100            0.033454564   -3.0552143e-16  0              0.10036369     0.0026222602   0              126619.56     -1.5            0              2.9984116    
   1200000   3000           100            100            0.033295795   -3.040747e-16   0              0.099887384    0.0013387924   0              64645.495     -1.5            0              2.9984166    
   1300000   3000           100            100            0.033295754   -3.040813e-16   0              0.099887261    1.1049465e-05  0              533.53912     -1.5            0              2.9984166    
   1400000   3000           100            100            0.033316499   -3.0427098e-16  0              0.099949497    2.5911212e-05  0              1251.1597     -1.5            0              2.9984159    
   1500000   3000           100            100            0.033318415   -3.0428759e-16  0              0.099955246    1.1499791e-09  0              0.055528373   -1.5            0              2.9984158    
   1600000   3000           100            100            0.033315879   -3.0426432e-16  0              0.099947638    4.3880238e-07  0              21.188197     -1.5            0              2.9984159    
   1700000   3000           100            100            0.033315395   -3.0426e-16     0              0.099946186    4.2782864e-09  0              0.20658314    -1.5            0              2.9984159    
   1800000   3000           100            100            0.033315682   -3.0426265e-16  0              0.099947047    6.4946315e-09  0              0.31360251    -1.5            0              2.9984159    
   1900000   3000           100            100            0.033315772   -3.0426345e-16  0              0.099947316    2.5504717e-10  0              0.012315315   -1.5            0              2.9984159    
   2000000   3000           100            100            0.033315743   -3.0426318e-16  0              0.099947228    8.2197984e-11  0              0.0039690465  -1.5            0              2.9984159    
   2100000   3000           100            100            0.033315728   -3.0426305e-16  0              0.099947185    8.541733e-12   0              0.00041244971 -1.5            0              2.9984159    
   2200000   3000           100            100            0.033315731   -3.0426308e-16  0              0.099947192    8.398197e-13   0              4.0551888e-05 -1.5            0              2.9984159    
   2300000   3000           100            100            0.033315733   -3.0426309e-16  0              0.099947199    2.1817257e-13  0              1.0534773e-05 -1.5            0              2.9984159    
   2400000   3000           100            100            0.033315733   -3.0426309e-16  0              0.099947198    5.9969201e-15  0              2.8956981e-07 -1.5            0              2.9984159    
   2500000   3000           100            100            0.033315733   -3.0426309e-16  0              0.099947198    4.6496895e-15  0              2.2451687e-07 -1.5            0              2.9984159    
   2600000   3000           100            100            0.033315733   -3.0426309e-16  0              0.099947198    4.6119056e-18  0              2.2269241e-10 -1.5            0              2.9984159    
   2700000   3000           100            100            0.033315733   -3.0426309e-16  0              0.099947198    4.9776112e-17  0              2.4035103e-09 -1.5            0              2.9984159    
   2800000   3000           100            100            0.033315733   -3.0426309e-16  0              0.099947198    2.8095185e-18  0              1.3566159e-10 -1.5            0              2.9984159    
   2900000   3000           100            100            0.033315733   -3.0426309e-16  0              0.099947198    5.9342451e-19  0              2.8654346e-11 -1.5            0              2.9984159    
   3000000   3000           100            100            0.033315733   -3.0426309e-16  0              0.099947198    2.1320022e-18  0              1.0294676e-10 -1.5            0              2.9984159    
Loop time of 258.41 on 4 procs for 3000000 steps with 2000 atoms

Performance: 10030587.650 ns/day, 0.000 hours/ns, 11609.476 timesteps/s
100.0% CPU use with 4 MPI tasks x 1 OpenMP threads

MPI task timing breakdown:
Section |  min time  |  avg time  |  max time  |%varavg| %total
---------------------------------------------------------------
Pair    | 96.89      | 99.014     | 101.11     |  17.2 | 38.32
Neigh   | 0.54843    | 0.55968    | 0.57094    |   1.5 |  0.22
Comm    | 27.731     | 29.754     | 32.214     |  36.8 | 11.51
Output  | 0.20573    | 0.20592    | 0.20644    |   0.1 |  0.08
Modify  | 111.15     | 112.14     | 113.42     |   9.0 | 43.40
Other   |            | 16.73      |            |       |  6.48

Nlocal:            500 ave         500 max         500 min
Histogram: 4 0 0 0 0 0 0 0 0 0
Nghost:              6 ave           6 max           6 min
Histogram: 4 0 0 0 0 0 0 0 0 0
Neighs:            750 ave         750 max         750 min
Histogram: 4 0 0 0 0 0 0 0 0 0

Total # of neighbors = 3000
Ave neighs/atom = 1.5
Neighbor list builds = 168
Dangerous builds = 0
  using 1 OpenMP thread(s) per MPI task
Lattice spacing in x,y,z = 3 3 3
Created orthogonal box = (-1500 -50 -50) to (1500 50 50)
  4 by 1 by 1 MPI processor grid
Created 1000 atoms
  using lattice units in orthogonal box = (-1500 -50 -50) to (1500 50 50)
  create_atoms CPU = 0.001 seconds
Lattice spacing in x,y,z = 3 3 3
Created 1000 atoms
  using lattice units in orthogonal box = (-1500 -50 -50) to (1500 50 50)
  create_atoms CPU = 0.000 seconds
Setting atom values ...
  1000 settings made for diameter
Setting atom values ...
  1000 settings made for mass
Setting atom values ...
  1000 settings made for diameter
Setting atom values ...
  1000 settings made for mass
1000 atoms in group substrate
1000 atoms in group slider1
  1 rigid bodies with 1000 atoms
Generated 0 of 1 mixed pair_coeff terms from geometric mixing rule
Neighbor list info ...
  update every 1 steps, delay 0 steps, check yes
  max neighbors/atom: 2000, page size: 100000
  master list distance cutoff = 3.1
  ghost atom cutoff = 3.1
  binsize = 1.55, bins = 1936 65 65
  1 neighbor lists, perpetual/occasional/extra = 1 0 0
  (1) pair granular, perpetual
      attributes: half, newton on, size, history
      pair build: half/size/bin/newton
      stencil: half/bin/3d
      bin: standard
Setting up Verlet run ...
  Unit style    : micro
  Current step  : 0
  Time step     : 1e-05
Per MPI rank memory allocation (min/avg/max) = 21.87 | 21.87 | 21.87 Mbytes
   Step           Lx             Ly             Lz           Press           Pxx            Pyy            Pzz           KinEng         PotEng          Temp          c_1[1]         c_1[2]         c_1[3]    
         0   3000           100            100            0              0              0              0              0              0              0             -1.5            0              6            
    100000   3000           100            100            0.027348818    1.8055088e-20  0              0.082046455    592787.7       0              2.8623597e+13 -1.5            0              3.3220915    
    200000   3000           100            100            0.010252065    1.2454204e-21  0              0.030756195    157809.15      0              7.6200389e+12 -1.5            0              3.0638416    
    300000   3000           100            100            0.0019820311  -3.6352546e-21  0              0.0059460932   10705.796      0              5.1694456e+11 -1.5            0              3.0425101    
    400000   3000           100            100            1.8824242e-05 -6.4248745e-21  0              5.6472725e-05  1.3601155      0              65675109      -1.5            0              3.011076     
    500000   3000           100            100           -0.00022646156 -8.2943945e-21  0             -0.00067938468  191.25809      0              9.2351688e+09 -1.5            0              3.0012271    
    600000   3000           100            100            0.039533879   -3.5806872e-16  0              0.11860164     311.18058      0              1.5025796e+10 -1.5            0              2.9984358    
    700000   3000           100            100            0.0397819     -3.6443721e-16  0              0.1193457      25.841992      0              1.2478173e+09 -1.5            0              2.9984189    
    800000   3000           100            100            0.030763686   -2.8090062e-16  0              0.092291059    2.8054809      0              1.3546663e+08 -1.5            0              2.9986707    
    900000   3000           100            100            0.034195554   -3.1264456e-16  0              0.10258666     0.41148838     0              19869301      -1.5            0              2.9985724    
   1000000   3000           100            100            0.033022869   -3.0178085e-16  0              0.099068608    0.059499273    0              2873006.9     -1.5            0              2.9986056    
   1100000   3000           100            100            0.033415254   -3.0542322e-16  0              0.10024576     0.0086045206   0              415481.51     -1.5            0              2.9985944    
   1200000   3000           100            100            0.033285903   -3.0421961e-16  0              0.09985771     0.0012249788   0              59149.844     -1.5            0              2.9985981    
   1300000   3000           100            100            0.033327964   -3.0461213e-16  0              0.099983893    0.00017258132  0              8333.3343     -1.5            0              2.9985969    
   1400000   3000           100            100            0.033314537   -3.0448634e-16  0              0.09994361     2.4043734e-05  0              1160.9858     -1.5            0              2.9985973    
   1500000   3000           100            100            0.033318727   -3.0452579e-16  0              0.099956181    3.3162262e-06  0              160.1287      -1.5            0              2.9985972    
   1600000   3000           100            100            0.033317459   -3.0451378e-16  0              0.099952378    4.5297486e-07  0              21.872535     -1.5            0              2.9985972    
   1700000   3000           100            100            0.033317826   -3.0451729e-16  0              0.099953479    6.1303342e-08  0              2.960119      -1.5            0              2.9985972    
   1800000   3000           100            100            0.033317727   -3.0451633e-16  0              0.099953182    8.2222959e-09  0              0.39702524    -1.5            0              2.9985972    
   1900000   3000           100            100            0.033317751   -3.0451656e-16  0              0.099953252    1.0931881e-09  0              0.05278614    -1.5            0              2.9985972    
   2000000   3000           100            100            0.033317747   -3.0451652e-16  0              0.09995324     1.4409612e-10  0              0.006957886   -1.5            0              2.9985972    
   2100000   3000           100            100            0.033317747   -3.0451652e-16  0              0.09995324     1.8835453e-11  0              0.00090949662 -1.5            0              2.9985972    
   2200000   3000           100            100            0.033317747   -3.0451652e-16  0              0.099953242    2.4401815e-12  0              0.00011782763 -1.5            0              2.9985972    
   2300000   3000           100            100            0.033317747   -3.0451652e-16  0              0.09995324     3.1363646e-13  0              1.5144382e-05 -1.5            0              2.9985972    
   2400000   3000           100            100            0.033317747   -3.0451652e-16  0              0.099953241    4.0010335e-14  0              1.9319559e-06 -1.5            0              2.9985972    
   2500000   3000           100            100            0.033317747   -3.0451652e-16  0              0.099953241    5.0759559e-15  0              2.4509975e-07 -1.5            0              2.9985972    
   2600000   3000           100            100            0.033317747   -3.0451652e-16  0              0.099953241    6.2355665e-16  0              3.0109319e-08 -1.5            0              2.9985972    
   2700000   3000           100            100            0.033317747   -3.0451652e-16  0              0.099953241    4.0213578e-17  0              1.9417698e-09 -1.5            0              2.9985972    
   2800000   3000           100            100            0.033317747   -3.0451652e-16  0              0.099953241    3.4249767e-18  0              1.6537987e-10 -1.5            0              2.9985972    
   2900000   3000           100            100            0.033317747   -3.0451652e-16  0              0.099953241    3.6745671e-18  0              1.7743169e-10 -1.5            0              2.9985972    
   3000000   3000           100            100            0.033317747   -3.0451652e-16  0              0.099953241    8.3825857e-19  0              4.0476507e-11 -1.5            0              2.9985972    
Loop time of 258.853 on 4 procs for 3000000 steps with 2000 atoms

Performance: 10013402.711 ns/day, 0.000 hours/ns, 11589.586 timesteps/s
100.0% CPU use with 4 MPI tasks x 1 OpenMP threads

MPI task timing breakdown:
Section |  min time  |  avg time  |  max time  |%varavg| %total
---------------------------------------------------------------
Pair    | 95.815     | 98.529     | 102.46     |  24.5 | 38.06
Neigh   | 0.52955    | 0.54225    | 0.55462    |   1.7 |  0.21
Comm    | 28.124     | 30.58      | 33.635     |  43.1 | 11.81
Output  | 0.20246    | 0.20261    | 0.20297    |   0.0 |  0.08
Modify  | 111.14     | 112.49     | 115.29     |  15.5 | 43.46
Other   |            | 16.51      |            |       |  6.38

Nlocal:            500 ave         500 max         500 min
Histogram: 4 0 0 0 0 0 0 0 0 0
Nghost:              6 ave           6 max           6 min
Histogram: 4 0 0 0 0 0 0 0 0 0
Neighs:            750 ave         750 max         750 min
Histogram: 4 0 0 0 0 0 0 0 0 0

Total # of neighbors = 3000
Ave neighs/atom = 1.5
Neighbor list builds = 168
Dangerous builds = 0
  using 1 OpenMP thread(s) per MPI task
Lattice spacing in x,y,z = 3 3 3
Created orthogonal box = (-1500 -50 -50) to (1500 50 50)
  4 by 1 by 1 MPI processor grid
Created 1000 atoms
  using lattice units in orthogonal box = (-1500 -50 -50) to (1500 50 50)
  create_atoms CPU = 0.001 seconds
Lattice spacing in x,y,z = 3 3 3
Created 1000 atoms
  using lattice units in orthogonal box = (-1500 -50 -50) to (1500 50 50)
  create_atoms CPU = 0.001 seconds
Setting atom values ...
  1000 settings made for diameter
Setting atom values ...
  1000 settings made for mass
Setting atom values ...
  1000 settings made for diameter
Setting atom values ...
  1000 settings made for mass
1000 atoms in group substrate
1000 atoms in group slider1
  1 rigid bodies with 1000 atoms
Generated 0 of 1 mixed pair_coeff terms from geometric mixing rule
Neighbor list info ...
  update every 1 steps, delay 0 steps, check yes
  max neighbors/atom: 2000, page size: 100000
  master list distance cutoff = 3.1
  ghost atom cutoff = 3.1
  binsize = 1.55, bins = 1936 65 65
  1 neighbor lists, perpetual/occasional/extra = 1 0 0
  (1) pair granular, perpetual
      attributes: half, newton on, size, history
      pair build: half/size/bin/newton
      stencil: half/bin/3d
      bin: standard
Setting up Verlet run ...
  Unit style    : micro
  Current step  : 0
  Time step     : 1e-05
Per MPI rank memory allocation (min/avg/max) = 21.87 | 21.87 | 21.87 Mbytes
   Step           Lx             Ly             Lz           Press           Pxx            Pyy            Pzz           KinEng         PotEng          Temp          c_1[1]         c_1[2]         c_1[3]    
         0   3000           100            100            0              0              0              0              0              0              0             -1.5            0              6            
    100000   3000           100            100            0.027401755    1.8343766e-20  0              0.082205265    594512.82      0              2.8706896e+13 -1.5            0              3.3206845    
    200000   3000           100            100            0.010369058    1.4861286e-21  0              0.031107174    160623.16      0              7.7559175e+12 -1.5            0              3.061401     
    300000   3000           100            100            0.0021666687  -3.0908157e-21  0              0.0065000061   12551.649      0              6.0607419e+11 -1.5            0              3.0411906    
    400000   3000           100            100            0.00035993667 -6.3222786e-21  0              0.00107981     441.83342      0              2.1334555e+10 -1.5            0              3.0109998    
    500000   3000           100            100            0.00063485168 -7.6253246e-21  0              0.001904555    1328.0652      0              6.4127515e+10 -1.5            0              3.0002899    
    600000   3000           100            100            0.059934324   -5.496154e-16   0              0.17980297     108.45431      0              5.2368707e+09 -1.5            0              2.998124     
    700000   3000           100            100            0.043720984   -3.9922759e-16  0              0.13116295     7.0250249      0              3.3921331e+08 -1.5            0              2.9984838    
    800000   3000           100            100            0.037297975   -3.4098472e-16  0              0.11189392     0.12009016     0              5798724.3     -1.5            0              2.9986355    
    900000   3000           100            100            0.034713437   -3.1748052e-16  0              0.10414031     0.050541022    0              2440445.1     -1.5            0              2.9986991    
   1000000   3000           100            100            0.033725723   -3.0845478e-16  0              0.10117717     0.039832318    0              1923360.1     -1.5            0              2.9987239    
   1100000   3000           100            100            0.033405997   -3.0551764e-16  0              0.10021799     0.010600693    0              511869.53     -1.5            0              2.998732     
   1200000   3000           100            100            0.033323412   -3.0475264e-16  0              0.099970237    0.0017660726   0              85277.324     -1.5            0              2.9987341    
   1300000   3000           100            100            0.033310631   -3.0463101e-16  0              0.099931893    0.00020517681  0              9907.2539     -1.5            0              2.9987344    
   1400000   3000           100            100            0.033313004   -3.0465084e-16  0              0.099939011    1.577549e-05   0              761.74195     -1.5            0              2.9987344    
   1500000   3000           100            100            0.033316253   -3.0467995e-16  0              0.099948759    5.6358797e-07  0              27.213646     -1.5            0              2.9987343    
   1600000   3000           100            100            0.033318094   -3.0469663e-16  0              0.099954282    5.777097e-10   0              0.027895534   -1.5            0              2.9987343    
   1700000   3000           100            100            0.033318887   -3.0470385e-16  0              0.09995666     1.3095087e-08  0              0.6323149     -1.5            0              2.9987342    
   1800000   3000           100            100            0.03331917    -3.0470645e-16  0              0.09995751     5.2753962e-09  0              0.25473       -1.5            0              2.9987342    
   1900000   3000           100            100            0.033319254   -3.0470722e-16  0              0.099957761    1.0946016e-09  0              0.052854395   -1.5            0              2.9987342    
   2000000   3000           100            100            0.033319272   -3.0470739e-16  0              0.099957816    1.5325632e-10  0              0.007400199   -1.5            0              2.9987342    
   2100000   3000           100            100            0.033319273   -3.047074e-16   0              0.099957819    1.4876327e-11  0              0.00071832459 -1.5            0              2.9987342    
   2200000   3000           100            100            0.033319271   -3.0470738e-16  0              0.099957814    8.6499592e-13  0              4.1767557e-05 -1.5            0              2.9987342    
   2300000   3000           100            100            0.03331927    -3.0470737e-16  0              0.09995781     1.2010112e-14  0              5.7992531e-07 -1.5            0              2.9987342    
   2400000   3000           100            100            0.03331927    -3.0470737e-16  0              0.099957809    2.4777638e-15  0              1.1964235e-07 -1.5            0              2.9987342    
   2500000   3000           100            100            0.033319269   -3.0470736e-16  0              0.099957808    2.1535292e-15  0              1.0398622e-07 -1.5            0              2.9987342    
   2600000   3000           100            100            0.033319269   -3.0470736e-16  0              0.099957808    5.768298e-16   0              2.7853047e-08 -1.5            0              2.9987342    
   2700000   3000           100            100            0.033319269   -3.0470736e-16  0              0.099957808    1.0194556e-16  0              4.9225865e-09 -1.5            0              2.9987342    
   2800000   3000           100            100            0.033319269   -3.0470736e-16  0              0.099957808    9.2280839e-18  0              4.4559115e-10 -1.5            0              2.9987342    
   2900000   3000           100            100            0.033319269   -3.0470736e-16  0              0.099957808    2.9251292e-18  0              1.4124402e-10 -1.5            0              2.9987342    
   3000000   3000           100            100            0.033319269   -3.0470736e-16  0              0.099957808    3.9416772e-18  0              1.9032948e-10 -1.5            0              2.9987342    
Loop time of 260.52 on 4 procs for 3000000 steps with 2000 atoms

Performance: 9949334.754 ns/day, 0.000 hours/ns, 11515.434 timesteps/s
100.0% CPU use with 4 MPI tasks x 1 OpenMP threads

MPI task timing breakdown:
Section |  min time  |  avg time  |  max time  |%varavg| %total
---------------------------------------------------------------
Pair    | 97.307     | 99.35      | 101.52     |  16.5 | 38.14
Neigh   | 0.51783    | 0.52806    | 0.53829    |   1.4 |  0.20
Comm    | 27.673     | 29.484     | 31.772     |  33.1 | 11.32
Output  | 0.20217    | 0.2023     | 0.2026     |   0.0 |  0.08
Modify  | 114.01     | 114.62     | 115.68     |   5.9 | 44.00
Other   |            | 16.34      |            |       |  6.27

Nlocal:            500 ave         500 max         500 min
Histogram: 4 0 0 0 0 0 0 0 0 0
Nghost:              6 ave           6 max           6 min
Histogram: 4 0 0 0 0 0 0 0 0 0
Neighs:            750 ave         750 max         750 min
Histogram: 4 0 0 0 0 0 0 0 0 0

Total # of neighbors = 3000
Ave neighs/atom = 1.5
Neighbor list builds = 168
Dangerous builds = 0
  using 1 OpenMP thread(s) per MPI task
Lattice spacing in x,y,z = 3 3 3
Created orthogonal box = (-1500 -50 -50) to (1500 50 50)
  4 by 1 by 1 MPI processor grid
Created 1000 atoms
  using lattice units in orthogonal box = (-1500 -50 -50) to (1500 50 50)
  create_atoms CPU = 0.001 seconds
Lattice spacing in x,y,z = 3 3 3
Created 1000 atoms
  using lattice units in orthogonal box = (-1500 -50 -50) to (1500 50 50)
  create_atoms CPU = 0.000 seconds
Setting atom values ...
  1000 settings made for diameter
Setting atom values ...
  1000 settings made for mass
Setting atom values ...
  1000 settings made for diameter
Setting atom values ...
  1000 settings made for mass
1000 atoms in group substrate
1000 atoms in group slider1
  1 rigid bodies with 1000 atoms
Generated 0 of 1 mixed pair_coeff terms from geometric mixing rule
Neighbor list info ...
  update every 1 steps, delay 0 steps, check yes
  max neighbors/atom: 2000, page size: 100000
  master list distance cutoff = 3.1
  ghost atom cutoff = 3.1
  binsize = 1.55, bins = 1936 65 65
  1 neighbor lists, perpetual/occasional/extra = 1 0 0
  (1) pair granular, perpetual
      attributes: half, newton on, size, history
      pair build: half/size/bin/newton
      stencil: half/bin/3d
      bin: standard
Setting up Verlet run ...
  Unit style    : micro
  Current step  : 0
  Time step     : 1e-05
Per MPI rank memory allocation (min/avg/max) = 21.87 | 21.87 | 21.87 Mbytes
   Step           Lx             Ly             Lz           Press           Pxx            Pyy            Pzz           KinEng         PotEng          Temp          c_1[1]         c_1[2]         c_1[3]    
         0   3000           100            100            0              0              0              0              0              0              0             -1.5            0              6            
    100000   3000           100            100            0.027445016    1.7951709e-20  0              0.082335048    595924.48      0              2.8775061e+13 -1.5            0              3.319528     
    200000   3000           100            100            0.010464921    1.9891971e-21  0              0.031394764    162940.81      0              7.8678286e+12 -1.5            0              3.0593778    
    300000   3000           100            100            0.0023191991  -3.5035926e-21  0              0.0069575974   14162.494      0              6.8385615e+11 -1.5            0              3.0399972    
    400000   3000           100            100            0.00064693718 -5.8868421e-21  0              0.0019408115   1368.3719      0              6.607378e+10  -1.5            0              3.0103601    
    500000   3000           100            100            0.12716718    -1.1637882e-15  0              0.38150155     244.05037      0              1.1784319e+10 -1.5            0              2.9971751    
    600000   3000           100            100            0.047938544   -4.411278e-16   0              0.14381563     291.34182      0              1.4067854e+10 -1.5            0              2.9985184    
    700000   3000           100            100            0.024680608   -2.2649664e-16  0              0.074041824    20.417049      0              9.8586623e+08 -1.5            0              2.9990501    
    800000   3000           100            100            0.035369967   -3.2295008e-16  0              0.1061099      4.8789012      0              2.3558468e+08 -1.5            0              2.9987959    
    900000   3000           100            100            0.032767354   -2.9972555e-16  0              0.098302062    0.72315635     0              34918632      -1.5            0              2.9988546    
   1000000   3000           100            100            0.033450643   -3.0575839e-16  0              0.10035193     0.10305496     0              4976155.4     -1.5            0              2.9988391    
   1100000   3000           100            100            0.033297322   -3.0443623e-16  0              0.099891966    0.01411301     0              681466.73     -1.5            0              2.9988425    
   1200000   3000           100            100            0.033319807   -3.046128e-16   0              0.099959421    0.001876539    0              90611.353     -1.5            0              2.9988421    
   1300000   3000           100            100            0.033323949   -3.0466109e-16  0              0.099971848    0.00024208833  0              11689.579     -1.5            0              2.998842     
   1400000   3000           100            100            0.033318044   -3.0460342e-16  0              0.099954132    3.028654e-05   0              1462.4286     -1.5            0              2.9988421    
   1500000   3000           100            100            0.033321753   -3.0463861e-16  0              0.099965258    3.669176e-06   0              177.17138     -1.5            0              2.998842     
   1600000   3000           100            100            0.03331986    -3.0462087e-16  0              0.099959581    4.2923227e-07  0              20.72609      -1.5            0              2.9988421    
   1700000   3000           100            100            0.033320735   -3.0462901e-16  0              0.099962204    4.8278756e-08  0              2.3312084     -1.5            0              2.998842     
   1800000   3000           100            100            0.033320354   -3.0462548e-16  0              0.099961063    5.1860885e-09  0              0.25041765    -1.5            0              2.998842     
   1900000   3000           100            100            0.033320513   -3.0462695e-16  0              0.099961539    5.2654306e-10  0              0.02542488    -1.5            0              2.998842     
   2000000   3000           100            100            0.033320449   -3.0462636e-16  0              0.099961346    4.9681707e-11  0              0.0023989518  -1.5            0              2.998842     
   2100000   3000           100            100            0.033320474   -3.0462659e-16  0              0.099961423    4.2283755e-12  0              0.00020417312 -1.5            0              2.998842     
   2200000   3000           100            100            0.033320464   -3.046265e-16   0              0.099961393    3.0589034e-13  0              1.477035e-05  -1.5            0              2.998842     
   2300000   3000           100            100            0.033320468   -3.0462654e-16  0              0.099961404    1.6472569e-14  0              7.9540139e-07 -1.5            0              2.998842     
   2400000   3000           100            100            0.033320467   -3.0462652e-16  0              0.0999614      4.1629783e-16  0              2.0101532e-08 -1.5            0              2.998842     
   2500000   3000           100            100            0.033320467   -3.0462653e-16  0              0.099961402    5.6204709e-18  0              2.7139242e-10 -1.5            0              2.998842     
   2600000   3000           100            100            0.033320467   -3.0462653e-16  0              0.099961401    2.7536439e-17  0              1.3296361e-09 -1.5            0              2.998842     
   2700000   3000           100            100            0.033320467   -3.0462653e-16  0              0.099961401    1.3795583e-17  0              6.6613934e-10 -1.5            0              2.998842     
   2800000   3000           100            100            0.033320467   -3.0462653e-16  0              0.099961401    6.4559093e-18  0              3.1173276e-10 -1.5            0              2.998842     
   2900000   3000           100            100            0.033320467   -3.0462653e-16  0              0.099961401    5.3996588e-21  0              2.607302e-13  -1.5            0              2.998842     
   3000000   3000           100            100            0.033320467   -3.0462653e-16  0              0.099961401    6.778214e-18   0              3.2729569e-10 -1.5            0              2.998842     
Loop time of 258.874 on 4 procs for 3000000 steps with 2000 atoms

Performance: 10012597.283 ns/day, 0.000 hours/ns, 11588.654 timesteps/s
100.0% CPU use with 4 MPI tasks x 1 OpenMP threads

MPI task timing breakdown:
Section |  min time  |  avg time  |  max time  |%varavg| %total
---------------------------------------------------------------
Pair    | 98.012     | 99.363     | 100.85     |  12.6 | 38.38
Neigh   | 0.54592    | 0.5581     | 0.5705     |   1.6 |  0.22
Comm    | 27.783     | 29.416     | 31.152     |  27.9 | 11.36
Output  | 0.20212    | 0.20236    | 0.20305    |   0.1 |  0.08
Modify  | 111.89     | 112.71     | 113.66     |   7.0 | 43.54
Other   |            | 16.63      |            |       |  6.42

Nlocal:            500 ave         500 max         500 min
Histogram: 4 0 0 0 0 0 0 0 0 0
Nghost:              6 ave           6 max           6 min
Histogram: 4 0 0 0 0 0 0 0 0 0
Neighs:            750 ave         750 max         750 min
Histogram: 4 0 0 0 0 0 0 0 0 0

Total # of neighbors = 3000
Ave neighs/atom = 1.5
Neighbor list builds = 168
Dangerous builds = 0
  using 1 OpenMP thread(s) per MPI task
Lattice spacing in x,y,z = 3 3 3
Created orthogonal box = (-1500 -50 -50) to (1500 50 50)
  4 by 1 by 1 MPI processor grid
Created 1000 atoms
  using lattice units in orthogonal box = (-1500 -50 -50) to (1500 50 50)
  create_atoms CPU = 0.001 seconds
Lattice spacing in x,y,z = 3 3 3
Created 1000 atoms
  using lattice units in orthogonal box = (-1500 -50 -50) to (1500 50 50)
  create_atoms CPU = 0.000 seconds
Setting atom values ...
  1000 settings made for diameter
Setting atom values ...
  1000 settings made for mass
Setting atom values ...
  1000 settings made for diameter
Setting atom values ...
  1000 settings made for mass
1000 atoms in group substrate
1000 atoms in group slider1
  1 rigid bodies with 1000 atoms
Generated 0 of 1 mixed pair_coeff terms from geometric mixing rule
Neighbor list info ...
  update every 1 steps, delay 0 steps, check yes
  max neighbors/atom: 2000, page size: 100000
  master list distance cutoff = 3.1
  ghost atom cutoff = 3.1
  binsize = 1.55, bins = 1936 65 65
  1 neighbor lists, perpetual/occasional/extra = 1 0 0
  (1) pair granular, perpetual
      attributes: half, newton on, size, history
      pair build: half/size/bin/newton
      stencil: half/bin/3d
      bin: standard
Setting up Verlet run ...
  Unit style    : micro
  Current step  : 0
  Time step     : 1e-05
Per MPI rank memory allocation (min/avg/max) = 21.87 | 21.87 | 21.87 Mbytes
   Step           Lx             Ly             Lz           Press           Pxx            Pyy            Pzz           KinEng         PotEng          Temp          c_1[1]         c_1[2]         c_1[3]    
         0   3000           100            100            0              0              0              0              0              0              0             -1.5            0              6            
    100000   3000           100            100            0.027481284    1.8214892e-20  0              0.082443851    597109.28      0              2.883227e+13  -1.5            0              3.3185535    
    200000   3000           100            100            0.010545476    1.5605635e-21  0              0.031636429    164896.6       0              7.9622669e+12 -1.5            0              3.0576611    
    300000   3000           100            100            0.0024482048  -2.9308462e-21  0              0.0073446143   15583.327      0              7.5246308e+11 -1.5            0              3.038917     
    400000   3000           100            100            0.0008928856  -5.8203174e-21  0              0.0026786568   2521.2688      0              1.2174305e+11 -1.5            0              3.009434     
    500000   3000           100            100            0.023304678   -2.234863e-16   0              0.069914035    2445.7889      0              1.1809839e+11 -1.5            0              2.9991379    
    600000   3000           100            100            0.06498019    -5.9522385e-16  0              0.19494057     99.894644      0              4.8235548e+09 -1.5            0              2.998326     
    700000   3000           100            100            0.021940369   -2.0010217e-16  0              0.065821108    4.3308463      0              2.0912107e+08 -1.5            0              2.9991907    
    800000   3000           100            100            0.032040986   -2.9314207e-16  0              0.096122959    6.067958       0              2.9299998e+08 -1.5            0              2.9989562    
    900000   3000           100            100            0.034813577   -3.1808946e-16  0              0.10444073     0.15407609     0              7439783       -1.5            0              2.9988976    
   1000000   3000           100            100            0.033671485   -3.0754234e-16  0              0.10101445     0.075152234    0              3628832.4     -1.5            0              2.9989221    
   1100000   3000           100            100            0.033174824   -3.0304072e-16  0              0.099524471    0.0079994673   0              386265.65     -1.5            0              2.9989327    
   1200000   3000           100            100            0.033254723   -3.0379031e-16  0              0.099764168    0.00054853429  0              26486.758     -1.5            0              2.9989309    
   1300000   3000           100            100            0.03333132    -3.0448821e-16  0              0.099993961    0.00022719547  0              10970.456     -1.5            0              2.9989293    
   1400000   3000           100            100            0.03333161    -3.04488e-16    0              0.099994829    9.1682773e-07  0              44.27033      -1.5            0              2.9989293    
   1500000   3000           100            100            0.033321572   -3.0439614e-16  0              0.099964716    4.4849084e-06  0              216.56018     -1.5            0              2.9989295    
   1600000   3000           100            100            0.03332012    -3.0438323e-16  0              0.099960359    2.9762838e-08  0              1.4371409     -1.5            0              2.9989295    
   1700000   3000           100            100            0.033321235   -3.0439349e-16  0              0.099963706    6.4658224e-08  0              3.1221142     -1.5            0              2.9989295    
   1800000   3000           100            100            0.033321584   -3.0439664e-16  0              0.099964751    3.4262198e-09  0              0.16543989    -1.5            0              2.9989295    
   1900000   3000           100            100            0.033321486   -3.0439573e-16  0              0.099964458    6.3512869e-10  0              0.030668091   -1.5            0              2.9989295    
   2000000   3000           100            100            0.033321426   -3.0439519e-16  0              0.099964279    1.2660707e-10  0              0.0061134023  -1.5            0              2.9989295    
   2100000   3000           100            100            0.033321431   -3.0439523e-16  0              0.099964292    2.9881236e-12  0              0.00014428579 -1.5            0              2.9989295    
   2200000   3000           100            100            0.033321439   -3.0439531e-16  0              0.099964318    2.9696806e-12  0              0.00014339525 -1.5            0              2.9989295    
   2300000   3000           100            100            0.03332144    -3.0439531e-16  0              0.09996432     2.0996507e-16  0              1.0138462e-08 -1.5            0              2.9989295    
   2400000   3000           100            100            0.033321439   -3.043953e-16   0              0.099964316    5.0619243e-14  0              2.4442221e-06 -1.5            0              2.9989295    
   2500000   3000           100            100            0.033321439   -3.043953e-16   0              0.099964316    1.0885889e-15  0              5.2564063e-08 -1.5            0              2.9989295    
   2600000   3000           100            100            0.033321439   -3.043953e-16   0              0.099964316    5.904287e-16   0              2.8509689e-08 -1.5            0              2.9989295    
   2700000   3000           100            100            0.033321439   -3.043953e-16   0              0.099964316    2.9129776e-17  0              1.4065726e-09 -1.5            0              2.9989295    
   2800000   3000           100            100            0.033321439   -3.043953e-16   0              0.099964316    1.509295e-17   0              7.2878454e-10 -1.5            0              2.9989295    
   2900000   3000           100            100            0.033321439   -3.043953e-16   0              0.099964316    6.3532872e-18  0              3.067775e-10  -1.5            0              2.9989295    
   3000000   3000           100            100            0.033321439   -3.043953e-16   0              0.099964316    1.0999953e-18  0              5.3114835e-11 -1.5            0              2.9989295    
Loop time of 257.851 on 4 procs for 3000000 steps with 2000 atoms

Performance: 10052297.978 ns/day, 0.000 hours/ns, 11634.604 timesteps/s
100.0% CPU use with 4 MPI tasks x 1 OpenMP threads

MPI task timing breakdown:
Section |  min time  |  avg time  |  max time  |%varavg| %total
---------------------------------------------------------------
Pair    | 96.186     | 97.363     | 99.37      |  12.5 | 37.76
Neigh   | 0.52534    | 0.53537    | 0.54561    |   1.3 |  0.21
Comm    | 27.578     | 29.218     | 30.989     |  22.5 | 11.33
Output  | 0.20022    | 0.20048    | 0.20115    |   0.1 |  0.08
Modify  | 112.74     | 114.01     | 115.97     |  11.2 | 44.22
Other   |            | 16.52      |            |       |  6.41

Nlocal:            500 ave         500 max         500 min
Histogram: 4 0 0 0 0 0 0 0 0 0
Nghost:              6 ave           6 max           6 min
Histogram: 4 0 0 0 0 0 0 0 0 0
Neighs:            750 ave         750 max         750 min
Histogram: 4 0 0 0 0 0 0 0 0 0

Total # of neighbors = 3000
Ave neighs/atom = 1.5
Neighbor list builds = 170
Dangerous builds = 0
  using 1 OpenMP thread(s) per MPI task
Lattice spacing in x,y,z = 3 3 3
Created orthogonal box = (-1500 -50 -50) to (1500 50 50)
  4 by 1 by 1 MPI processor grid
Created 1000 atoms
  using lattice units in orthogonal box = (-1500 -50 -50) to (1500 50 50)
  create_atoms CPU = 0.001 seconds
Lattice spacing in x,y,z = 3 3 3
Created 1000 atoms
  using lattice units in orthogonal box = (-1500 -50 -50) to (1500 50 50)
  create_atoms CPU = 0.000 seconds
Setting atom values ...
  1000 settings made for diameter
Setting atom values ...
  1000 settings made for mass
Setting atom values ...
  1000 settings made for diameter
Setting atom values ...
  1000 settings made for mass
1000 atoms in group substrate
1000 atoms in group slider1
  1 rigid bodies with 1000 atoms
Generated 0 of 1 mixed pair_coeff terms from geometric mixing rule
Neighbor list info ...
  update every 1 steps, delay 0 steps, check yes
  max neighbors/atom: 2000, page size: 100000
  master list distance cutoff = 3.1
  ghost atom cutoff = 3.1
  binsize = 1.55, bins = 1936 65 65
  1 neighbor lists, perpetual/occasional/extra = 1 0 0
  (1) pair granular, perpetual
      attributes: half, newton on, size, history
      pair build: half/size/bin/newton
      stencil: half/bin/3d
      bin: standard
Setting up Verlet run ...
  Unit style    : micro
  Current step  : 0
  Time step     : 1e-05
Per MPI rank memory allocation (min/avg/max) = 21.87 | 21.87 | 21.87 Mbytes
   Step           Lx             Ly             Lz           Press           Pxx            Pyy            Pzz           KinEng         PotEng          Temp          c_1[1]         c_1[2]         c_1[3]    
         0   3000           100            100            0              0              0              0              0              0              0             -1.5            0              6            
    100000   3000           100            100            0.027512295    1.8563965e-20  0              0.082536884    598123.3       0              2.8881234e+13 -1.5            0              3.3177169    
    200000   3000           100            100            0.010614491    1.3294522e-21  0              0.031843472    166578.17      0              8.0434636e+12 -1.5            0              3.0561782    
    300000   3000           100            100            0.0025593314  -3.9167875e-21  0              0.0076779942   16848.855      0              8.1357089e+11 -1.5            0              3.0379356    
    400000   3000           100            100            0.0011068505  -5.7857702e-21  0              0.0033205515   3769.7736      0              1.8202888e+11 -1.5            0              3.0083658    
    500000   3000           100            100           -0.00036569912 -7.0366392e-21  0             -0.0010970973   511.99466      0              2.472239e+10  -1.5            0              3.0014051    
    600000   3000           100            100            0.056228212   -5.1046399e-16  0              0.16868464     252.66256      0              1.2200171e+10 -1.5            0              2.9985901    
    700000   3000           100            100            0.020795421   -1.9001323e-16  0              0.062386262    0.04558864     0              2201312.3     -1.5            0              2.9992712    
    800000   3000           100            100            0.028929213   -2.6442171e-16  0              0.086787639    0.90768878     0              43829043      -1.5            0              2.9990915    
    900000   3000           100            100            0.031790157   -2.9045451e-16  0              0.09537047     0.19487585     0              9409857.4     -1.5            0              2.9990328    
   1000000   3000           100            100            0.032788591   -2.9952409e-16  0              0.098365772    0.033648992    0              1624789.4     -1.5            0              2.9990127    
   1100000   3000           100            100            0.033137651   -3.0269152e-16  0              0.099412953    0.0054890425   0              265046.22     -1.5            0              2.9990058    
   1200000   3000           100            100            0.033258907   -3.0379073e-16  0              0.099776722    0.00086670308  0              41849.99      -1.5            0              2.9990034    
   1300000   3000           100            100            0.033300705   -3.0416916e-16  0              0.099902116    0.00013345561  0              6444.0936     -1.5            0              2.9990025    
   1400000   3000           100            100            0.033314993   -3.0429834e-16  0              0.09994498     2.0121748e-05  0              971.60721     -1.5            0              2.9990022    
   1500000   3000           100            100            0.033319832   -3.0434202e-16  0              0.099959496    2.97899e-06    0              143.84477     -1.5            0              2.9990021    
   1600000   3000           100            100            0.033321453   -3.0435664e-16  0              0.09996436     4.3395262e-07  0              20.954019     -1.5            0              2.9990021    
   1700000   3000           100            100            0.03332199    -3.0436146e-16  0              0.09996597     6.2297779e-08  0              3.0081368     -1.5            0              2.9990021    
   1800000   3000           100            100            0.033322165   -3.0436303e-16  0              0.099966494    8.8243393e-09  0              0.42609576    -1.5            0              2.9990021    
   1900000   3000           100            100            0.033322221   -3.0436353e-16  0              0.099966662    1.234491e-09   0              0.059609151   -1.5            0              2.9990021    
   2000000   3000           100            100            0.033322238   -3.0436369e-16  0              0.099966715    1.7068072e-10  0              0.0082415613  -1.5            0              2.9990021    
   2100000   3000           100            100            0.033322244   -3.0436373e-16  0              0.099966731    2.3342264e-11  0              0.0011271144  -1.5            0              2.9990021    
   2200000   3000           100            100            0.033322245   -3.0436375e-16  0              0.099966735    3.1580348e-12  0              0.0001524902  -1.5            0              2.9990021    
   2300000   3000           100            100            0.033322245   -3.0436375e-16  0              0.099966736    4.2290996e-13  0              2.0420808e-05 -1.5            0              2.9990021    
   2400000   3000           100            100            0.033322246   -3.0436375e-16  0              0.099966737    5.6062198e-14  0              2.7070429e-06 -1.5            0              2.9990021    
   2500000   3000           100            100            0.033322246   -3.0436375e-16  0              0.099966737    7.3712218e-15  0              3.5592992e-07 -1.5            0              2.9990021    
   2600000   3000           100            100            0.033322246   -3.0436375e-16  0              0.099966737    9.7013104e-16  0              4.6844156e-08 -1.5            0              2.9990021    
   2700000   3000           100            100            0.033322246   -3.0436375e-16  0              0.099966737    8.4183093e-17  0              4.0649003e-09 -1.5            0              2.9990021    
   2800000   3000           100            100            0.033322246   -3.0436375e-16  0              0.099966737    5.2690342e-20  0              2.5442281e-12 -1.5            0              2.9990021    
   2900000   3000           100            100            0.033322246   -3.0436375e-16  0              0.099966737    1.0881532e-19  0              5.2543022e-12 -1.5            0              2.9990021    
   3000000   3000           100            100            0.033322246   -3.0436375e-16  0              0.099966737    1.8393872e-18  0              8.8817425e-11 -1.5            0              2.9990021    
Loop time of 259.492 on 4 procs for 3000000 steps with 2000 atoms

Performance: 9988739.678 ns/day, 0.000 hours/ns, 11561.041 timesteps/s
100.0% CPU use with 4 MPI tasks x 1 OpenMP threads

MPI task timing breakdown:
Section |  min time  |  avg time  |  max time  |%varavg| %total
---------------------------------------------------------------
Pair    | 98.662     | 100.11     | 102.41     |  15.2 | 38.58
Neigh   | 0.54817    | 0.55821    | 0.56803    |   1.3 |  0.22
Comm    | 27.613     | 29.563     | 31.621     |  33.9 | 11.39
Output  | 0.20082    | 0.20102    | 0.20154    |   0.1 |  0.08
Modify  | 110.48     | 112.01     | 114.07     |  13.9 | 43.17
Other   |            | 17.04      |            |       |  6.57

Nlocal:            500 ave         500 max         500 min
Histogram: 4 0 0 0 0 0 0 0 0 0
Nghost:              6 ave           6 max           6 min
Histogram: 4 0 0 0 0 0 0 0 0 0
Neighs:            750 ave         750 max         750 min
Histogram: 4 0 0 0 0 0 0 0 0 0

Total # of neighbors = 3000
Ave neighs/atom = 1.5
Neighbor list builds = 172
Dangerous builds = 0
  using 1 OpenMP thread(s) per MPI task
Lattice spacing in x,y,z = 3 3 3
Created orthogonal box = (-1500 -50 -50) to (1500 50 50)
  4 by 1 by 1 MPI processor grid
Created 1000 atoms
  using lattice units in orthogonal box = (-1500 -50 -50) to (1500 50 50)
  create_atoms CPU = 0.001 seconds
Lattice spacing in x,y,z = 3 3 3
Created 1000 atoms
  using lattice units in orthogonal box = (-1500 -50 -50) to (1500 50 50)
  create_atoms CPU = 0.000 seconds
Setting atom values ...
  1000 settings made for diameter
Setting atom values ...
  1000 settings made for mass
Setting atom values ...
  1000 settings made for diameter
Setting atom values ...
  1000 settings made for mass
1000 atoms in group substrate
1000 atoms in group slider1
  1 rigid bodies with 1000 atoms
Generated 0 of 1 mixed pair_coeff terms from geometric mixing rule
Neighbor list info ...
  update every 1 steps, delay 0 steps, check yes
  max neighbors/atom: 2000, page size: 100000
  master list distance cutoff = 3.1
  ghost atom cutoff = 3.1
  binsize = 1.55, bins = 1936 65 65
  1 neighbor lists, perpetual/occasional/extra = 1 0 0
  (1) pair granular, perpetual
      attributes: half, newton on, size, history
      pair build: half/size/bin/newton
      stencil: half/bin/3d
      bin: standard
Setting up Verlet run ...
  Unit style    : micro
  Current step  : 0
  Time step     : 1e-05
Per MPI rank memory allocation (min/avg/max) = 21.87 | 21.87 | 21.87 Mbytes
   Step           Lx             Ly             Lz           Press           Pxx            Pyy            Pzz           KinEng         PotEng          Temp          c_1[1]         c_1[2]         c_1[3]    
         0   3000           100            100            0              0              0              0              0              0              0             -1.5            0              6            
    100000   3000           100            100            0.027539233    1.867012e-20   0              0.0826177      599004.89      0              2.8923802e+13 -1.5            0              3.3169874    
    200000   3000           100            100            0.010674547    1.283792e-21   0              0.03202364     168045.92      0              8.1143361e+12 -1.5            0              3.0548789    
    300000   3000           100            100            0.0026564628  -2.8431448e-21  0              0.0079693884   17985.732      0              8.6846664e+11 -1.5            0              3.0370401    
    400000   3000           100            100            0.0012953145  -5.9270945e-21  0              0.0038859435   5045.0503      0              2.4360742e+11 -1.5            0              3.007235     
    500000   3000           100            100            3.6232937e-05 -7.315074e-21   0              0.00010869881  4.889437       0              2.3609341e+08 -1.5            0              3.0020181    
    600000   3000           100            100            0.0033850279  -3.0014286e-17  0              0.010155084    34.405419      0              1.6613146e+09 -1.5            0              2.9998001    
    700000   3000           100            100            0.031877149   -2.925424e-16   0              0.095631447    53.245731      0              2.5710458e+09 -1.5            0              2.9990885    
    800000   3000           100            100            0.030928848   -2.8300672e-16  0              0.092786545    5.4890084      0              2.6504457e+08 -1.5            0              2.9991082    
    900000   3000           100            100            0.031639339   -2.8913941e-16  0              0.094918018    0.13265448     0              6405410.1     -1.5            0              2.9990952    
   1000000   3000           100            100            0.032702513   -2.9876046e-16  0              0.098107538    0.014305148    0              690744.39     -1.5            0              2.9990752    
   1100000   3000           100            100            0.033212458   -3.034183e-16   0              0.099637374    0.012764168    0              616336        -1.5            0              2.9990656    
   1200000   3000           100            100            0.033345769   -3.0464798e-16  0              0.10003731     0.0020008268   0              96612.763     -1.5            0              2.9990631    
   1300000   3000           100            100            0.033349713   -3.0469041e-16  0              0.10004914     8.1812606e-05  0              3950.438      -1.5            0              2.999063     
   1400000   3000           100            100            0.033334251   -3.0455103e-16  0              0.10000275     1.1113473e-06  0              53.662982     -1.5            0              2.9990633    
   1500000   3000           100            100            0.033325458   -3.0447087e-16  0              0.099976374    3.0841905e-06  0              148.92452     -1.5            0              2.9990635    
   1600000   3000           100            100            0.03332279    -3.0444634e-16  0              0.09996837     6.4159086e-07  0              30.980127     -1.5            0              2.9990635    
   1700000   3000           100            100            0.033322521   -3.0444377e-16  0              0.099967562    3.8907727e-08  0              1.8787149     -1.5            0              2.9990635    
   1800000   3000           100            100            0.033322728   -3.0444563e-16  0              0.099968185    2.9877933e-17  0              1.4426985e-09 -1.5            0              2.9990635    
   1900000   3000           100            100            0.033322875   -3.0444696e-16  0              0.099968625    6.7560775e-10  0              0.03262268    -1.5            0              2.9990635    
   2000000   3000           100            100            0.033322926   -3.0444743e-16  0              0.099968778    1.935472e-10   0              0.0093457015  -1.5            0              2.9990635    
   2100000   3000           100            100            0.033322934   -3.044475e-16   0              0.099968802    1.6161355e-11  0              0.00078037398 -1.5            0              2.9990635    
   2200000   3000           100            100            0.033322932   -3.0444748e-16  0              0.099968795    1.0092592e-13  0              4.8733514e-06 -1.5            0              2.9990635    
   2300000   3000           100            100            0.033322929   -3.0444746e-16  0              0.099968788    1.2894873e-13  0              6.2264724e-06 -1.5            0              2.9990635    
[...]
   2900000   3000           100            100            0.033328933   -3.0464874e-16  0              0.099986799    5.3221542e-18  0              2.5698778e-10 -1.5            0              2.999604     
   3000000   3000           100            100            0.033328933   -3.0464874e-16  0              0.099986799    1.0973962e-18  0              5.2989334e-11 -1.5            0              2.999604     
Loop time of 259.736 on 4 procs for 3000000 steps with 2000 atoms

Performance: 9979365.632 ns/day, 0.000 hours/ns, 11550.192 timesteps/s
100.0% CPU use with 4 MPI tasks x 1 OpenMP threads

MPI task timing breakdown:
Section |  min time  |  avg time  |  max time  |%varavg| %total
---------------------------------------------------------------
Pair    | 97.91      | 99.243     | 100.48     |   9.4 | 38.21
Neigh   | 0.55126    | 0.5556     | 0.55952    |   0.5 |  0.21
Comm    | 28.183     | 29.116     | 30.438     |  16.8 | 11.21
Output  | 0.20157    | 0.20172    | 0.20212    |   0.1 |  0.08
Modify  | 113.82     | 114.24     | 114.51     |   2.4 | 43.98
Other   |            | 16.38      |            |       |  6.31

Nlocal:            500 ave         500 max         500 min
Histogram: 4 0 0 0 0 0 0 0 0 0
Nghost:              6 ave           6 max           6 min
Histogram: 4 0 0 0 0 0 0 0 0 0
Neighs:            750 ave         750 max         750 min
Histogram: 4 0 0 0 0 0 0 0 0 0

Total # of neighbors = 3000
Ave neighs/atom = 1.5
Neighbor list builds = 174
Dangerous builds = 0
  using 1 OpenMP thread(s) per MPI task
Lattice spacing in x,y,z = 3 3 3
Created orthogonal box = (-1500 -50 -50) to (1500 50 50)
  4 by 1 by 1 MPI processor grid
Created 1000 atoms
  using lattice units in orthogonal box = (-1500 -50 -50) to (1500 50 50)
  create_atoms CPU = 0.001 seconds
Lattice spacing in x,y,z = 3 3 3
Created 1000 atoms
  using lattice units in orthogonal box = (-1500 -50 -50) to (1500 50 50)
  create_atoms CPU = 0.000 seconds
Setting atom values ...
  1000 settings made for diameter
Setting atom values ...
  1000 settings made for mass
Setting atom values ...
  1000 settings made for diameter
Setting atom values ...
  1000 settings made for mass
1000 atoms in group substrate
1000 atoms in group slider1
  1 rigid bodies with 1000 atoms
Generated 0 of 1 mixed pair_coeff terms from geometric mixing rule
Neighbor list info ...
  update every 1 steps, delay 0 steps, check yes
  max neighbors/atom: 2000, page size: 100000
  master list distance cutoff = 3.1
  ghost atom cutoff = 3.1
  binsize = 1.55, bins = 1936 65 65
  1 neighbor lists, perpetual/occasional/extra = 1 0 0
  (1) pair granular, perpetual
      attributes: half, newton on, size, history
      pair build: half/size/bin/newton
      stencil: half/bin/3d
      bin: standard
Setting up Verlet run ...
  Unit style    : micro
  Current step  : 0
  Time step     : 1e-05
Per MPI rank memory allocation (min/avg/max) = 21.87 | 21.87 | 21.87 Mbytes
   Step           Lx             Ly             Lz           Press           Pxx            Pyy            Pzz           KinEng         PotEng          Temp          c_1[1]         c_1[2]         c_1[3]    
         0   3000           100            100            0              0              0              0              0              0              0             -1.5            0              6            
    100000   3000           100            100            0.027822311    1.9159015e-20  0              0.083466934    608310.71      0              2.9373147e+13 -1.5            0              3.3091637    
    200000   3000           100            100            0.01131176     2.354043e-21   0              0.033935281    183873.17      0              8.8785772e+12 -1.5            0              3.0405671    
    300000   3000           100            100            0.0037107287  -2.3673538e-21  0              0.011132186    32013.035      0              1.5457949e+12 -1.5            0              3.0251933    
    400000   3000           100            100           -0.0013379093  -5.6373023e-21  0             -0.004013728    8363.131       0              4.0382566e+11 -1.5            0              3.0049527    
    500000   3000           100            100           -0.00076273752 -6.4492522e-21  0             -0.0022882125   2404.7845      0              1.1611844e+11 -1.5            0              3.0004611    
    600000   3000           100            100            0.00031302272 -6.3737862e-21  0              0.00093906817  339.02145      0              1.6370133e+10 -1.5            0              3.0000245    
    700000   3000           100            100            0.062237407   -5.6827465e-16  0              0.18671222     1.598468       0              77184299      -1.5            0              2.9994094    
    800000   3000           100            100            0.028405183   -2.5898669e-16  0              0.085215549    8.5179392      0              4.113008e+08  -1.5            0              2.9996502    
    900000   3000           100            100            0.030867924   -2.8189025e-16  0              0.092603771    0.804133       0              38828705      -1.5            0              2.99963      
   1000000   3000           100            100            0.032403027   -2.960277e-16   0              0.097209082    0.10195054     0              4922826.7     -1.5            0              2.9996177    
   1100000   3000           100            100            0.032990616   -3.014354e-16   0              0.098971847    0.013566451    0              655075.37     -1.5            0              2.9996131    
   1200000   3000           100            100            0.03320582    -3.0341596e-16  0              0.09961746     0.0018144201   0              87611.852     -1.5            0              2.9996114    
   1300000   3000           100            100            0.033284185   -3.0413723e-16  0              0.099852556    0.00024268387  0              11718.335     -1.5            0              2.9996108    
   1400000   3000           100            100            0.033312699   -3.0439968e-16  0              0.099938098    3.2452435e-05  0              1567.0119     -1.5            0              2.9996106    
   1500000   3000           100            100            0.033323073   -3.0449516e-16  0              0.099969219    4.3390862e-06  0              209.51894     -1.5            0              2.9996105    
   1600000   3000           100            100            0.033326847   -3.045299e-16   0              0.099980541    5.8012478e-07  0              28.012149     -1.5            0              2.9996105    
   1700000   3000           100            100            0.03332822    -3.0454254e-16  0              0.09998466     7.755783e-08   0              3.7449901     -1.5            0              2.9996105    
   1800000   3000           100            100            0.033328719   -3.0454714e-16  0              0.099986158    1.0368482e-08  0              0.50065687    -1.5            0              2.9996105    
   1900000   3000           100            100            0.033328901   -3.0454881e-16  0              0.099986703    1.3860907e-09  0              0.066929361   -1.5            0              2.9996104    
   2000000   3000           100            100            0.033328967   -3.0454942e-16  0              0.099986902    1.8527981e-10  0              0.0089464991  -1.5            0              2.9996104    
   2100000   3000           100            100            0.033328991   -3.0454964e-16  0              0.099986974    2.477183e-11   0              0.001196143   -1.5            0              2.9996104    
   2200000   3000           100            100            0.033329      -3.0454972e-16  0              0.099987       3.3112885e-12  0              0.00015989027 -1.5            0              2.9996104    
   2300000   3000           100            100            0.033329003   -3.0454975e-16  0              0.099987009    4.4141543e-13  0              2.1314371e-05 -1.5            0              2.9996104    
   2400000   3000           100            100            0.033329004   -3.0454976e-16  0              0.099987013    5.8485108e-14  0              2.8240366e-06 -1.5            0              2.9996104    
   2500000   3000           100            100            0.033329005   -3.0454976e-16  0              0.099987014    7.879306e-15   0              3.8046349e-07 -1.5            0              2.9996104    
   2600000   3000           100            100            0.033329005   -3.0454976e-16  0              0.099987015    1.0056221e-15  0              4.8557893e-08 -1.5            0              2.9996104    
   2700000   3000           100            100            0.033329005   -3.0454976e-16  0              0.099987015    1.1079273e-16  0              5.3497845e-09 -1.5            0              2.9996104    
   2800000   3000           100            100            0.033329005   -3.0454976e-16  0              0.099987015    1.9205256e-17  0              9.2735308e-10 -1.5            0              2.9996104    
   2900000   3000           100            100            0.033329005   -3.0454976e-16  0              0.099987015    4.1907253e-18  0              2.0235513e-10 -1.5            0              2.9996104    
   3000000   3000           100            100            0.033329005   -3.0454976e-16  0              0.099987015    2.3408614e-18  0              1.1303182e-10 -1.5            0              2.9996104    
Loop time of 256.592 on 4 procs for 3000000 steps with 2000 atoms

Performance: 10101637.786 ns/day, 0.000 hours/ns, 11691.710 timesteps/s
99.9% CPU use with 4 MPI tasks x 1 OpenMP threads

MPI task timing breakdown:
Section |  min time  |  avg time  |  max time  |%varavg| %total
---------------------------------------------------------------
Pair    | 85.919     | 92.47      | 100.26     |  58.0 | 36.04
Neigh   | 0.57392    | 0.58605    | 0.59872    |   1.6 |  0.23
Comm    | 27.652     | 34.034     | 40.96      | 107.2 | 13.26
Output  | 0.20489    | 0.20501    | 0.20529    |   0.0 |  0.08
Modify  | 110.32     | 112.51     | 116.7      |  23.3 | 43.85
Other   |            | 16.79      |            |       |  6.54

Nlocal:            500 ave         500 max         500 min
Histogram: 4 0 0 0 0 0 0 0 0 0
Nghost:              6 ave           6 max           6 min
Histogram: 4 0 0 0 0 0 0 0 0 0
Neighs:            750 ave         750 max         750 min
Histogram: 4 0 0 0 0 0 0 0 0 0

Total # of neighbors = 3000
Ave neighs/atom = 1.5
Neighbor list builds = 174
Dangerous builds = 0
  using 1 OpenMP thread(s) per MPI task
Lattice spacing in x,y,z = 3 3 3
Created orthogonal box = (-1500 -50 -50) to (1500 50 50)
  4 by 1 by 1 MPI processor grid
Created 1000 atoms
  using lattice units in orthogonal box = (-1500 -50 -50) to (1500 50 50)
  create_atoms CPU = 0.001 seconds
Lattice spacing in x,y,z = 3 3 3
Created 1000 atoms
  using lattice units in orthogonal box = (-1500 -50 -50) to (1500 50 50)
  create_atoms CPU = 0.000 seconds
Setting atom values ...
  1000 settings made for diameter
Setting atom values ...
  1000 settings made for mass
Setting atom values ...
  1000 settings made for diameter
Setting atom values ...
  1000 settings made for mass
1000 atoms in group substrate
1000 atoms in group slider1
  1 rigid bodies with 1000 atoms
Generated 0 of 1 mixed pair_coeff terms from geometric mixing rule
Neighbor list info ...
  update every 1 steps, delay 0 steps, check yes
  max neighbors/atom: 2000, page size: 100000
  master list distance cutoff = 3.1
  ghost atom cutoff = 3.1
  binsize = 1.55, bins = 1936 65 65
  1 neighbor lists, perpetual/occasional/extra = 1 0 0
  (1) pair granular, perpetual
      attributes: half, newton on, size, history
      pair build: half/size/bin/newton
      stencil: half/bin/3d
      bin: standard
Setting up Verlet run ...
  Unit style    : micro
  Current step  : 0
  Time step     : 1e-05
Per MPI rank memory allocation (min/avg/max) = 21.87 | 21.87 | 21.87 Mbytes
   Step           Lx             Ly             Lz           Press           Pxx            Pyy            Pzz           KinEng         PotEng          Temp          c_1[1]         c_1[2]         c_1[3]    
         0   3000           100            100            0              0              0              0              0              0              0             -1.5            0              6            
    100000   3000           100            100            0.027826222    2.0203072e-20  0              0.083478666    608439.75      0              2.9379378e+13 -1.5            0              3.3090542    
    200000   3000           100            100            0.011320622    2.2024546e-21  0              0.033961866    184096.5       0              8.8893613e+12 -1.5            0              3.0403616    
    300000   3000           100            100            0.0037256876  -2.3871774e-21  0              0.011177063    32232.641      0              1.5563989e+12 -1.5            0              3.0249988    
    400000   3000           100            100           -0.0013185791  -5.6003144e-21  0             -0.0039557372   8083.3376      0              3.9031544e+11 -1.5            0              3.005247     
    500000   3000           100            100           -0.00071298385 -6.4442585e-21  0             -0.0021389515   2080.0735      0              1.0043931e+11 -1.5            0              3.000794     
    600000   3000           100            100            0.028755959   -2.6118435e-16  0              0.086267876    595.80961      0              2.8769514e+10 -1.5            0              2.999656     
    700000   3000           100            100            0.013495087   -1.2461486e-16  0              0.04048526     32.661786      0              1.5771208e+09 -1.5            0              2.9997892    
    800000   3000           100            100            0.02369446    -2.1667459e-16  0              0.07108338     0.088916882    0              4293478       -1.5            0              2.9996947    
    900000   3000           100            100            0.036626043   -3.3475528e-16  0              0.10987813     0.32131544     0              15515173      -1.5            0              2.9995918    
   1000000   3000           100            100            0.032399329   -2.9632777e-16  0              0.097197988    0.10573858     0              5105737.8     -1.5            0              2.9996238    
   1100000   3000           100            100            0.033546582   -3.0671168e-16  0              0.10063975     0.021934018    0              1059115.3     -1.5            0              2.999615     
   1200000   3000           100            100            0.033300317   -3.0450457e-16  0              0.09990095     0.0035415353   0              171008.06     -1.5            0              2.9996169    
   1300000   3000           100            100            0.03332005    -3.0466814e-16  0              0.09996015     0.00047370167  0              22873.358     -1.5            0              2.9996167    
   1400000   3000           100            100            0.033339162   -3.0484867e-16  0              0.10001748     5.247891e-05   0              2534.0187     -1.5            0              2.9996166    
   1500000   3000           100            100            0.033323244   -3.0470135e-16  0              0.099969733    4.6249721e-06  0              223.32335     -1.5            0              2.9996167    
   1600000   3000           100            100            0.033331793   -3.0477999e-16  0              0.099995378    2.8559049e-07  0              13.790143     -1.5            0              2.9996166    
   1700000   3000           100            100            0.033327955   -3.0474481e-16  0              0.099983866    7.4208437e-09  0              0.35832598    -1.5            0              2.9996167    
   1800000   3000           100            100            0.033329491   -3.0475885e-16  0              0.099988474    1.2301944e-10  0              0.0059401686  -1.5            0              2.9996167    
   1900000   3000           100            100            0.033328932   -3.0475375e-16  0              0.099986796    3.6819722e-10  0              0.017778926   -1.5            0              2.9996167    
   2000000   3000           100            100            0.033329117   -3.0475544e-16  0              0.099987352    1.4146096e-10  0              0.0068306435  -1.5            0              2.9996167    
   2100000   3000           100            100            0.033329063   -3.0475494e-16  0              0.099987188    3.2861662e-11  0              0.001586772   -1.5            0              2.9996167    
   2200000   3000           100            100            0.033329076   -3.0475506e-16  0              0.099987228    5.8167593e-12  0              0.00028087049 -1.5            0              2.9996167    
   2300000   3000           100            100            0.033329074   -3.0475504e-16  0              0.099987222    8.3981546e-13  0              4.0551683e-05 -1.5            0              2.9996167    
   2400000   3000           100            100            0.033329074   -3.0475504e-16  0              0.099987221    1.014997e-13   0              4.9010571e-06 -1.5            0              2.9996167    
   2500000   3000           100            100            0.033329074   -3.0475504e-16  0              0.099987222    9.9587457e-15  0              4.8087219e-07 -1.5            0              2.9996167    
   2600000   3000           100            100            0.033329074   -3.0475504e-16  0              0.099987222    6.8763183e-16  0              3.320328e-08  -1.5            0              2.9996167    
   2700000   3000           100            100            0.033329074   -3.0475504e-16  0              0.099987222    2.3799917e-17  0              1.1492128e-09 -1.5            0              2.9996167    
   2800000   3000           100            100            0.033329074   -3.0475504e-16  0              0.099987222    3.0298207e-19  0              1.462992e-11  -1.5            0              2.9996167    
   2900000   3000           100            100            0.033329074   -3.0475504e-16  0              0.099987222    3.8306689e-18  0              1.8496929e-10 -1.5            0              2.9996167    
   3000000   3000           100            100            0.033329074   -3.0475504e-16  0              0.099987222    3.0668918e-18  0              1.4808923e-10 -1.5            0              2.9996167    
Loop time of 241.846 on 4 procs for 3000000 steps with 2000 atoms

Performance: 10717547.018 ns/day, 0.000 hours/ns, 12404.568 timesteps/s
99.9% CPU use with 4 MPI tasks x 1 OpenMP threads

MPI task timing breakdown:
Section |  min time  |  avg time  |  max time  |%varavg| %total
---------------------------------------------------------------
Pair    | 83.307     | 84.606     | 85.903     |  11.6 | 34.98
Neigh   | 0.58673    | 0.59875    | 0.61016    |   1.5 |  0.25
Comm    | 27.547     | 28.994     | 30.549     |  26.9 | 11.99
Output  | 0.20219    | 0.20242    | 0.20306    |   0.1 |  0.08
Modify  | 109.96     | 110.75     | 111.38     |   5.6 | 45.79
Other   |            | 16.7       |            |       |  6.90

Nlocal:            500 ave         500 max         500 min
Histogram: 4 0 0 0 0 0 0 0 0 0
Nghost:              6 ave           6 max           6 min
Histogram: 4 0 0 0 0 0 0 0 0 0
Neighs:            750 ave         750 max         750 min
Histogram: 4 0 0 0 0 0 0 0 0 0

Total # of neighbors = 3000
Ave neighs/atom = 1.5
Neighbor list builds = 174
Dangerous builds = 0
  using 1 OpenMP thread(s) per MPI task
Total wall time: 2:52:23
