LAMMPS (23 Jun 2022 - Update 1)
  using 1 OpenMP thread(s) per MPI task
variable num index 0 1 2 3 4 5 6 7 8 9 10 11 12 13 14 15 16 17 18 19 20 21 22 23 24 25 26 27 28 29 30 31 32 33 34 35 36 37 38 39 40 41 42 43 44 45 46 47 48 49 50 51 52 53 54 55 56 57 58 59 60 61 62 63 64 65 66 67 68 69 70 71 72 73 74 75 76 77 78 79 80 81 82 83 84 85 86 87 88 89 90 91 92 93 94 95 96 97 98 99

label startloop

include granular.in
### Simulation of contact between two chain

##################### Simulation setup ####################

units micro                              # units
dimension	3                            # dimension
boundary	p p p                        # boundary condition p: periodic
atom_style	sphere                       # atom style
#processors * * 1

####################### Parameter ##################################

variable ind equal ${num}
variable ind equal 0

#variable lat0 equal 1                    #
variable lat1 equal 3*(2^(1/2))       # Lattice distance of bottom chain
variable lat2 equal 3                   # Lattice distance of top chain
variable d1 equal 3+(0*0.01)+(v_ind*0.01)                      # Diamter of particle at bottom chain
variable d2 equal 3                      # Diamter of particle at top chain
#variable d3 equal 1                      # Diamter of supporting particle

variable n2e1 equal 500*v_lat2              # Half length of top chain. 1500 is number of particles
variable n1e1 equal 1.5*v_n2e1*(v_lat1/v_lat2)               # Half length of bottom chain, which is 1.5 time larger than top chain
variable n1e2 equal -v_n1e1
variable n2e2 equal -v_n2e1
#variable lenspr equal -(v_n2e1+100)           # length of the spring connecting top chain and supporting particle
#variable lenspr1 equal -v_lenspr-0.1         # Position of supporting particle upper bound
#variable lenspr2 equal -v_lenspr+0.1         # Position of supporting particle lower bound

variable den equal 2.2 #grams/cm^3      # micrometer^3=10^-12 cm^3 Density of materials
#variable den2 equal 1.5

variable V1 equal (1/6)*PI*(v_d1^3)     # Volume of particle 1
variable V2 equal (1/6)*PI*(v_d2^3)     # Volume of particle 2
#variable V3 equal (1/6)*PI*(v_d3^3)     # Volume of particle 3

variable mass1 equal v_den*v_V1  # Mass of particle 1 (picograms)
variable mass2 equal v_den*v_V2  # Mass of particle 2
#variable mass3 equal v_den*v_V3  # Mass of particle 3

# E GPa to picogram/(micrometer-microsecond^2)= 10^3 Pa= 10^-6 GPa
# Force unit(picogram-micrometer/microsecond^2)=10^-9 N= 1nN
# Spring stiffness (force/distance) 10^-3 N/m

variable K0 equal (1500/50)*(10^5)             # Spring stiffness conneting top chain and sup particle
variable E equal 100*(10^6)                    # Young's Modulus using for Hertz/material model
variable PR equal 0.3                          # Poisson's ratio using for Hertz/material model
variable Fn equal -1000 #-(v_ind*100)                       # Force apply to each particles in top chain
variable dt equal 0.00001                      # Time step units microsecond
variable lgv equal 0.5                         #damping for langevin thermostat for slider


################### Creating the model #################################
lattice sc ${lat1}                                                               # Bottom chain type1
lattice sc 4.24264068711929                                                               
Lattice spacing in x,y,z = 4.2426407 4.2426407 4.2426407

region box block ${n1e2} ${n1e1} -100 100 -100 100 units box
region box block -3181.98051533947 ${n1e1} -100 100 -100 100 units box
region box block -3181.98051533947 3181.98051533947 -100 100 -100 100 units box
region substrate block ${n1e2} ${n1e1} -0.5 0.5 0 0.5 units box
region substrate block -3181.98051533947 ${n1e1} -0.5 0.5 0 0.5 units box
region substrate block -3181.98051533947 3181.98051533947 -0.5 0.5 0 0.5 units box

create_box 2 box
Created orthogonal box = (-3181.9805 -100 -100) to (3181.9805 100 100)
  4 by 1 by 1 MPI processor grid
create_atoms 1 region substrate
Created 1500 atoms
  using lattice units in orthogonal box = (-3181.9805 -100 -100) to (3181.9805 100 100)
  create_atoms CPU = 0.003 seconds

lattice sc ${lat2}                                                             # Top chain type2
lattice sc 3                                                             
Lattice spacing in x,y,z = 3 3 3

region slider1 block ${n2e2} ${n2e1} -0.1 0.1 5.9 6.1 units box
region slider1 block -1500 ${n2e1} -0.1 0.1 5.9 6.1 units box
region slider1 block -1500 1500 -0.1 0.1 5.9 6.1 units box

create_atoms 2 region slider1
Created 1001 atoms
  using lattice units in orthogonal box = (-3181.9805 -100 -100) to (3181.9805 100 100)
  create_atoms CPU = 0.001 seconds

#lattice sc ${lat0}                                                             # Supporting particle type3

#region support block ${lenspr1} ${lenspr2} -0.1 0.1 7.9 8.1 units box

#create_atoms 3 region support

set type 1 diameter ${d1}                    # Set mass and diameter for each particles type
set type 1 diameter 3                    
Setting atom values ...
  1500 settings made for diameter
set type 1 mass ${mass1}
set type 1 mass 31.101767270539
Setting atom values ...
  1500 settings made for mass
set type 2 diameter ${d2}
set type 2 diameter 3
Setting atom values ...
  1001 settings made for diameter
set type 2 mass ${mass2}
set type 2 mass 31.101767270539
Setting atom values ...
  1001 settings made for mass
#set type 3 diameter ${d3}
#set type 3 mass ${mass3}

group substrate region substrate           # Define gorup
1500 atoms in group substrate
group slider1 region slider1
1001 atoms in group slider1
#group support region support
group substrate_slider union substrate slider1
2501 atoms in group substrate_slider

########################## Potential ###################################
pair_style granular
pair_coeff 1 1 hertz/material 0.00000001 0.001 ${PR} tangential mindlin NULL 0.1 0.01 damping viscoelastic              ########### set E between each particle in same type is small to neglect their interaction
pair_coeff 1 1 hertz/material 0.00000001 0.001 0.3 tangential mindlin NULL 0.1 0.01 damping viscoelastic              
pair_coeff 2 2 hertz/material 0.00000001 0.001 ${PR} tangential mindlin NULL 0.1 0.01 damping viscoelastic
pair_coeff 2 2 hertz/material 0.00000001 0.001 0.3 tangential mindlin NULL 0.1 0.01 damping viscoelastic
#pair_coeff 3 3 hertz/material ${E} 0.001 ${PR} tangential mindlin NULL 0.1 0.01 damping viscoelastic
pair_coeff 1 2 hertz/material ${E} 0.001 ${PR} tangential mindlin NULL 0.1 0.01 damping viscoelastic
pair_coeff 1 2 hertz/material 100000000 0.001 ${PR} tangential mindlin NULL 0.1 0.01 damping viscoelastic
pair_coeff 1 2 hertz/material 100000000 0.001 0.3 tangential mindlin NULL 0.1 0.01 damping viscoelastic
#pair_coeff 1 3 hertz/material 0.00000001 0.001 ${PR} tangential mindlin NULL 0.1 0.01 damping viscoelastic
#pair_coeff 2 3 hertz/material 0.00000001 0.001 ${PR} tangential mindlin NULL 0.1 0.01 damping viscoelastic
comm_modify     vel yes
neigh_modify    delay 0 every 1 check yes

### Compute properties ###

compute 1 slider1 com                      # Compute the center of mass of top chain
#compute 2 support com                      # Compute the center of mass of supporting particle

variable p0 equal "step"

variable slider_z equal "c_1[3]"          # output the position of top chain in z-direction

#variable distance equal "c_2[1]-c_1[1]"   # Distance between COM of top chain and supporting particle

thermo 100000
thermo_style custom step lx ly lz press pxx pyy pzz ke pe temp c_1[1] c_1[2] c_1[3] #c_2[1] c_2[2] c_2[3] v_distance

############### Fix ##################


############## Equilibrium the system with apply force ########################

fix force_slider1 slider1 setforce NULL 0 NULL                                # Fix top chain not to move in y-direction

fix f_sub substrate freeze                                                    # Freeze the bottom chain

fix rigid_top slider1 rigid/nve group 1 slider1 langevin 0 0 ${lgv} 6987532   # NVE+langevin
fix rigid_top slider1 rigid/nve group 1 slider1 langevin 0 0 0.5 6987532   
  1 rigid bodies with 1001 atoms

fix add slider1 addforce 0 0 ${Fn} every 1                                    # Add force to top layer
fix add slider1 addforce 0 0 -1000 every 1                                    

timestep ${dt}
timestep 1e-05

# fix  nve_1 slider1 nve

dump 		D1 all custom 100000 Equi_${num}_*.dump id type diameter mass xu yu zu
dump 		D1 all custom 100000 Equi_0_*.dump id type diameter mass xu yu zu
dump_modify D1 format 5 %.18g
dump_modify D1 format 7 %.18g

run 3000000
Generated 0 of 1 mixed pair_coeff terms from geometric mixing rule
Neighbor list info ...
  update every 1 steps, delay 0 steps, check yes
  max neighbors/atom: 2000, page size: 100000
  master list distance cutoff = 3.1
  ghost atom cutoff = 3.1
  binsize = 1.55, bins = 4106 130 130
  1 neighbor lists, perpetual/occasional/extra = 1 0 0
  (1) pair granular, perpetual
      attributes: half, newton on, size, history
      pair build: half/size/bin/newton
      stencil: half/bin/3d
      bin: standard
Per MPI rank memory allocation (min/avg/max) = 84.53 | 84.56 | 84.59 Mbytes
   Step           Lx             Ly             Lz           Press           Pxx            Pyy            Pzz           KinEng         PotEng          Temp          c_1[1]         c_1[2]         c_1[3]    
         0   6363.961       200            200            0              0              0              0              0              0              0              1.1965779e-13  0              6            
    100000   6363.961       200            200            0.0031900369   1.5672759e-46  0              0.0095701108   583701.27      0              5.6369691e+10  1.1965779e-13  0              3.3276395    
    200000   6363.961       200            200            0.0011191705   2.1076267e-41  0              0.0033575116   140074.29      0              1.3527373e+10  1.1965779e-13  0              3.076224     
    300000   6363.961       200            200            6.0779916e-05 -5.077221e-35   0              0.00018233975  866.61424      0              83691400       1.1965779e-13  0              3.0454899    
    400000   6363.961       200            200            0.00016740651 -7.615915e-35   0              0.00050221953  5990.6498      0              5.7853408e+08  1.1965779e-13  0              3.0010204    
    500000   6363.961       200            200            0.00076075288 -0.00025478339  0              0.002537042    403.89098      0              39004899       1.1965779e-13  0              2.9978269    
    600000   6363.961       200            200            0.0023471316  -0.002401275    0              0.0094426697   158.49071      0              15305898       1.1965779e-13  0              2.9957225    
    700000   6363.961       200            200            0.003609145   -0.0027939709   0              0.013621406    0.00015190424  0              14.669824      1.1965779e-13  0              2.9948351    
    800000   6363.961       200            200            0.0028566185  -0.0028011027   0              0.011370958    2.3658711      0              228478.9       1.1965779e-13  0              2.9952824    
    900000   6363.961       200            200            0.0029743032  -0.0027943934   0              0.011717303    0.47711998     0              46076.832      1.1965779e-13  0              2.9952133    
   1000000   6363.961       200            200            0.0030230242  -0.0027909039   0              0.011859977    0.0099710799   0              962.93552      1.1965779e-13  0              2.995183     
   1100000   6363.961       200            200            0.002987239   -0.002788032    0              0.011749749    0.0023766102   0              229.516        1.1965779e-13  0              2.9952057    
   1200000   6363.961       200            200            0.0029968677  -0.0027889624   0              0.011779565    0.001235163    0              119.2832       1.1965779e-13  0              2.9951997    
   1300000   6363.961       200            200            0.0029973754  -0.0027890223   0              0.011781148    8.2156117e-05  0              7.9340498      1.1965779e-13  0              2.9951993    
   1400000   6363.961       200            200            0.002995852   -0.0027888678   0              0.011776424    4.9690892e-07  0              0.047987907    1.1965779e-13  0              2.9952003    
   1500000   6363.961       200            200            0.0029964616  -0.0027889284   0              0.011778313    2.3583719e-06  0              0.22775468     1.1965779e-13  0              2.9951999    
   1600000   6363.961       200            200            0.0029963957  -0.0027889222   0              0.011778109    3.4615286e-07  0              0.033428966    1.1965779e-13  0              2.9951999    
   1700000   6363.961       200            200            0.0029963428  -0.0027889168   0              0.011777945    2.9994655e-09  0              0.00028966691  1.1965779e-13  0              2.9952       
   1800000   6363.961       200            200            0.0029963752  -0.00278892     0              0.011778046    3.0196827e-09  0              0.00029161934  1.1965779e-13  0              2.9951999    
   1900000   6363.961       200            200            0.0029963679  -0.0027889193   0              0.011778023    1.0136517e-09  0              9.7891222e-05  1.1965779e-13  0              2.9951999    
   2000000   6363.961       200            200            0.0029963668  -0.0027889192   0              0.01177802     4.5674466e-11  0              4.410913e-06   1.1965779e-13  0              2.9951999    
   2100000   6363.961       200            200            0.0029963683  -0.0027889193   0              0.011778024    1.6510877e-12  0              1.5945023e-07  1.1965779e-13  0              2.9951999    
   2200000   6363.961       200            200            0.0029963678  -0.0027889193   0              0.011778023    2.200729e-12   0              2.1253065e-07  1.1965779e-13  0              2.9951999    
   2300000   6363.961       200            200            0.0029963678  -0.0027889193   0              0.011778023    2.3685315e-13  0              2.2873582e-08  1.1965779e-13  0              2.9951999    
   2400000   6363.961       200            200            0.0029963679  -0.0027889193   0              0.011778023    2.8449357e-16  0              2.7474353e-11  1.1965779e-13  0              2.9951999    
   2500000   6363.961       200            200            0.0029963678  -0.0027889193   0              0.011778023    3.3166533e-15  0              3.2029863e-10  1.1965779e-13  0              2.9951999    
   2600000   6363.961       200            200            0.0029963679  -0.0027889193   0              0.011778023    7.8266145e-16  0              7.558384e-11   1.1965779e-13  0              2.9951999    
   2700000   6363.961       200            200            0.0029963679  -0.0027889193   0              0.011778023    2.1743188e-17  0              2.0998015e-12  1.1965779e-13  0              2.9951999    
   2800000   6363.961       200            200            0.0029963679  -0.0027889193   0              0.011778023    2.5213951e-19  0              2.4349829e-14  1.1965779e-13  0              2.9951999    
   2900000   6363.961       200            200            0.0029963679  -0.0027889193   0              0.011778023    4.5879052e-18  0              4.4306705e-13  1.1965779e-13  0              2.9951999    
   3000000   6363.961       200            200            0.0029963679  -0.0027889193   0              0.011778023    4.2797368e-18  0              4.1330635e-13  1.1965779e-13  0              2.9951999    
Loop time of 311.081 on 4 procs for 3000000 steps with 2501 atoms

Performance: 8332232.684 ns/day, 0.000 hours/ns, 9643.788 timesteps/s
100.0% CPU use with 4 MPI tasks x 1 OpenMP threads

MPI task timing breakdown:
Section |  min time  |  avg time  |  max time  |%varavg| %total
---------------------------------------------------------------
Pair    | 11.327     | 40.328     | 70.017     | 449.7 | 12.96
Neigh   | 3.4613     | 3.4861     | 3.5075     |   0.9 |  1.12
Comm    | 16.318     | 21.303     | 25.002     |  81.7 |  6.85
Output  | 0.24111    | 0.24148    | 0.24191    |   0.1 |  0.08
Modify  | 180.25     | 186.33     | 193.05     |  39.6 | 59.90
Other   |            | 59.39      |            |       | 19.09

Nlocal:         625.25 ave         877 max         374 min
Histogram: 2 0 0 0 0 0 0 0 0 2
Nghost:           1.75 ave           3 max           1 min
Histogram: 2 0 0 0 0 1 0 0 0 1
Neighs:         343.25 ave         687 max           0 min
Histogram: 2 0 0 0 0 0 0 0 0 2

Total # of neighbors = 1373
Ave neighs/atom = 0.54898041
Neighbor list builds = 164
Dangerous builds = 0

undump D1

############ Add spring between top chain to supp particle and then equilibrium  ###########

#fix sp1 support spring couple slider1 ${K0} ${lenspr} NULL NULL 0                                 # Add spring

#dump 		D2 all custom 100000 add_${num}*.dump id type diameter mass xu yu zu

#fix add1 all print 10 "${p0} ${distance} ${slider_z}" file add_distance_${num}.txt screen no      # out put step, distance(spring length), z-position of top chain

#run 1000000

#undump D2

#unfix add1

########## Pulling the supporting particle with constant velocity #############

#fix m1 support move linear 0.1 0 0 units box                                                      # apply constant velocity to supporting particles along x-direction V=0.1m/s

#fix move1 all print 100 "${p0} ${distance} ${slider_z}" file move_distance_${num}.txt screen no

#dump 		1 all custom 50000 move_${num}_*.dump id type diameter mass xu yu zu

#run 1000000

clear
  using 1 OpenMP thread(s) per MPI task

next num

jump SELF startloop

include granular.in
### Simulation of contact between two chain

##################### Simulation setup ####################

units micro                              # units
dimension	3                            # dimension
boundary	p p p                        # boundary condition p: periodic
atom_style	sphere                       # atom style
#processors * * 1

####################### Parameter ##################################

variable ind equal ${num}
variable ind equal 1

#variable lat0 equal 1                    #
variable lat1 equal 3*(2^(1/2))       # Lattice distance of bottom chain
variable lat2 equal 3                   # Lattice distance of top chain
variable d1 equal 3+(0*0.01)+(v_ind*0.01)                      # Diamter of particle at bottom chain
variable d2 equal 3                      # Diamter of particle at top chain
#variable d3 equal 1                      # Diamter of supporting particle

variable n2e1 equal 500*v_lat2              # Half length of top chain. 1500 is number of particles
variable n1e1 equal 1.5*v_n2e1*(v_lat1/v_lat2)               # Half length of bottom chain, which is 1.5 time larger than top chain
variable n1e2 equal -v_n1e1
variable n2e2 equal -v_n2e1
#variable lenspr equal -(v_n2e1+100)           # length of the spring connecting top chain and supporting particle
#variable lenspr1 equal -v_lenspr-0.1         # Position of supporting particle upper bound
#variable lenspr2 equal -v_lenspr+0.1         # Position of supporting particle lower bound

variable den equal 2.2 #grams/cm^3      # micrometer^3=10^-12 cm^3 Density of materials
#variable den2 equal 1.5

variable V1 equal (1/6)*PI*(v_d1^3)     # Volume of particle 1
variable V2 equal (1/6)*PI*(v_d2^3)     # Volume of particle 2
#variable V3 equal (1/6)*PI*(v_d3^3)     # Volume of particle 3

variable mass1 equal v_den*v_V1  # Mass of particle 1 (picograms)
variable mass2 equal v_den*v_V2  # Mass of particle 2
#variable mass3 equal v_den*v_V3  # Mass of particle 3

# E GPa to picogram/(micrometer-microsecond^2)= 10^3 Pa= 10^-6 GPa
# Force unit(picogram-micrometer/microsecond^2)=10^-9 N= 1nN
# Spring stiffness (force/distance) 10^-3 N/m

variable K0 equal (1500/50)*(10^5)             # Spring stiffness conneting top chain and sup particle
variable E equal 100*(10^6)                    # Young's Modulus using for Hertz/material model
variable PR equal 0.3                          # Poisson's ratio using for Hertz/material model
variable Fn equal -1000 #-(v_ind*100)                       # Force apply to each particles in top chain
variable dt equal 0.00001                      # Time step units microsecond
variable lgv equal 0.5                         #damping for langevin thermostat for slider


################### Creating the model #################################
lattice sc ${lat1}                                                               # Bottom chain type1
lattice sc 4.24264068711929                                                               
Lattice spacing in x,y,z = 4.2426407 4.2426407 4.2426407

region box block ${n1e2} ${n1e1} -100 100 -100 100 units box
region box block -3181.98051533947 ${n1e1} -100 100 -100 100 units box
region box block -3181.98051533947 3181.98051533947 -100 100 -100 100 units box
region substrate block ${n1e2} ${n1e1} -0.5 0.5 0 0.5 units box
region substrate block -3181.98051533947 ${n1e1} -0.5 0.5 0 0.5 units box
region substrate block -3181.98051533947 3181.98051533947 -0.5 0.5 0 0.5 units box

create_box 2 box
Created orthogonal box = (-3181.9805 -100 -100) to (3181.9805 100 100)
  4 by 1 by 1 MPI processor grid
create_atoms 1 region substrate
Created 1500 atoms
  using lattice units in orthogonal box = (-3181.9805 -100 -100) to (3181.9805 100 100)
  create_atoms CPU = 0.001 seconds

lattice sc ${lat2}                                                             # Top chain type2
lattice sc 3                                                             
Lattice spacing in x,y,z = 3 3 3

region slider1 block ${n2e2} ${n2e1} -0.1 0.1 5.9 6.1 units box
region slider1 block -1500 ${n2e1} -0.1 0.1 5.9 6.1 units box
region slider1 block -1500 1500 -0.1 0.1 5.9 6.1 units box

create_atoms 2 region slider1
Created 1001 atoms
  using lattice units in orthogonal box = (-3181.9805 -100 -100) to (3181.9805 100 100)
  create_atoms CPU = 0.001 seconds

#lattice sc ${lat0}                                                             # Supporting particle type3

#region support block ${lenspr1} ${lenspr2} -0.1 0.1 7.9 8.1 units box

#create_atoms 3 region support

set type 1 diameter ${d1}                    # Set mass and diameter for each particles type
set type 1 diameter 3.01                    
Setting atom values ...
  1500 settings made for diameter
set type 1 mass ${mass1}
set type 1 mass 31.4138228207373
Setting atom values ...
  1500 settings made for mass
set type 2 diameter ${d2}
set type 2 diameter 3
Setting atom values ...
  1001 settings made for diameter
set type 2 mass ${mass2}
set type 2 mass 31.101767270539
Setting atom values ...
  1001 settings made for mass
#set type 3 diameter ${d3}
#set type 3 mass ${mass3}

group substrate region substrate           # Define gorup
1500 atoms in group substrate
group slider1 region slider1
1001 atoms in group slider1
#group support region support
group substrate_slider union substrate slider1
2501 atoms in group substrate_slider

########################## Potential ###################################
pair_style granular
pair_coeff 1 1 hertz/material 0.00000001 0.001 ${PR} tangential mindlin NULL 0.1 0.01 damping viscoelastic              ########### set E between each particle in same type is small to neglect their interaction
pair_coeff 1 1 hertz/material 0.00000001 0.001 0.3 tangential mindlin NULL 0.1 0.01 damping viscoelastic              
pair_coeff 2 2 hertz/material 0.00000001 0.001 ${PR} tangential mindlin NULL 0.1 0.01 damping viscoelastic
pair_coeff 2 2 hertz/material 0.00000001 0.001 0.3 tangential mindlin NULL 0.1 0.01 damping viscoelastic
#pair_coeff 3 3 hertz/material ${E} 0.001 ${PR} tangential mindlin NULL 0.1 0.01 damping viscoelastic
pair_coeff 1 2 hertz/material ${E} 0.001 ${PR} tangential mindlin NULL 0.1 0.01 damping viscoelastic
pair_coeff 1 2 hertz/material 100000000 0.001 ${PR} tangential mindlin NULL 0.1 0.01 damping viscoelastic
pair_coeff 1 2 hertz/material 100000000 0.001 0.3 tangential mindlin NULL 0.1 0.01 damping viscoelastic
#pair_coeff 1 3 hertz/material 0.00000001 0.001 ${PR} tangential mindlin NULL 0.1 0.01 damping viscoelastic
#pair_coeff 2 3 hertz/material 0.00000001 0.001 ${PR} tangential mindlin NULL 0.1 0.01 damping viscoelastic
comm_modify     vel yes
neigh_modify    delay 0 every 1 check yes

### Compute properties ###

compute 1 slider1 com                      # Compute the center of mass of top chain
#compute 2 support com                      # Compute the center of mass of supporting particle

variable p0 equal "step"

variable slider_z equal "c_1[3]"          # output the position of top chain in z-direction

#variable distance equal "c_2[1]-c_1[1]"   # Distance between COM of top chain and supporting particle

thermo 100000
thermo_style custom step lx ly lz press pxx pyy pzz ke pe temp c_1[1] c_1[2] c_1[3] #c_2[1] c_2[2] c_2[3] v_distance

############### Fix ##################


############## Equilibrium the system with apply force ########################

fix force_slider1 slider1 setforce NULL 0 NULL                                # Fix top chain not to move in y-direction

fix f_sub substrate freeze                                                    # Freeze the bottom chain

fix rigid_top slider1 rigid/nve group 1 slider1 langevin 0 0 ${lgv} 6987532   # NVE+langevin
fix rigid_top slider1 rigid/nve group 1 slider1 langevin 0 0 0.5 6987532   
  1 rigid bodies with 1001 atoms

fix add slider1 addforce 0 0 ${Fn} every 1                                    # Add force to top layer
fix add slider1 addforce 0 0 -1000 every 1                                    

timestep ${dt}
timestep 1e-05

# fix  nve_1 slider1 nve

dump 		D1 all custom 100000 Equi_${num}_*.dump id type diameter mass xu yu zu
dump 		D1 all custom 100000 Equi_1_*.dump id type diameter mass xu yu zu
dump_modify D1 format 5 %.18g
dump_modify D1 format 7 %.18g

run 3000000
Generated 0 of 1 mixed pair_coeff terms from geometric mixing rule
Neighbor list info ...
  update every 1 steps, delay 0 steps, check yes
  max neighbors/atom: 2000, page size: 100000
  master list distance cutoff = 3.11
  ghost atom cutoff = 3.11
  binsize = 1.555, bins = 4093 129 129
  1 neighbor lists, perpetual/occasional/extra = 1 0 0
  (1) pair granular, perpetual
      attributes: half, newton on, size, history
      pair build: half/size/bin/newton
      stencil: half/bin/3d
      bin: standard
Per MPI rank memory allocation (min/avg/max) = 83.32 | 83.33 | 83.33 Mbytes
   Step           Lx             Ly             Lz           Press           Pxx            Pyy            Pzz           KinEng         PotEng          Temp          c_1[1]         c_1[2]         c_1[3]    
         0   6363.961       200            200            0              0              0              0              0              0              0              1.1965779e-13  0              6            
    100000   6363.961       200            200            0.0031993863  -3.3002433e-34  0              0.009598159    585985.55      0              5.659029e+10   1.1965779e-13  0              3.3278778    
    200000   6363.961       200            200            0.0011327053   2.5386518e-34  0              0.0033981159   142544.43      0              1.3765921e+10  1.1965779e-13  0              3.0780905    
    300000   6363.961       200            200            7.1052312e-05 -2.3799843e-36  0              0.00021315694  1166.3987      0              1.1264243e+08  1.1965779e-13  0              3.050183     
    400000   6363.961       200            200            0.00017965571  1.7770589e-34  0              0.00053896714  6798.3489      0              6.5653587e+08  1.1965779e-13  0              3.0051847    
    500000   6363.961       200            200            0.00097978071 -0.00028241924  0              0.0032217614   612.73282      0              59173350       1.1965779e-13  0              3.002556     
    600000   6363.961       200            200            0.0026212624  -0.0025060524   0              0.01036984     191.27194      0              18471674       1.1965779e-13  0              3.0005239    
    700000   6363.961       200            200            0.0035926328  -0.0027901678   0              0.013568066    2.0771063      0              200592.06      1.1965779e-13  0              2.9998523    
    800000   6363.961       200            200            0.0028179336  -0.0027993232   0              0.011253124    1.2001087      0              115897.91      1.1965779e-13  0              3.0003154    
    900000   6363.961       200            200            0.0030116038  -0.0027892729   0              0.011824084    0.50534128     0              48802.244      1.1965779e-13  0              3.0001994    
   1000000   6363.961       200            200            0.0030241902  -0.0027866492   0              0.01185922     0.035322939    0              3411.2367      1.1965779e-13  0              3.0001911    
   1100000   6363.961       200            200            0.002993626   -0.002784262    0              0.01176514     5.5081779e-05  0              5.3194039      1.1965779e-13  0              3.0002106    
   1200000   6363.961       200            200            0.0030064117  -0.0027855009   0              0.011804736    0.00083015318  0              80.170252      1.1965779e-13  0              3.0002025    
   1300000   6363.961       200            200            0.0030044873  -0.0027853172   0              0.011798779    0.00015775681  0              15.235024      1.1965779e-13  0              3.0002037    
   1400000   6363.961       200            200            0.00300367    -0.0027852332   0              0.011796243    4.1129496e-06  0              0.39719923     1.1965779e-13  0              3.0002042    
   1500000   6363.961       200            200            0.0030043143  -0.0027852973   0              0.01179824     5.4569225e-07  0              0.052699052    1.1965779e-13  0              3.0002038    
   1600000   6363.961       200            200            0.0030041212  -0.0027852784   0              0.011797642    3.8584182e-07  0              0.037261841    1.1965779e-13  0              3.0002039    
   1700000   6363.961       200            200            0.0030041252  -0.0027852787   0              0.011797654    3.7172979e-08  0              0.0035899002   1.1965779e-13  0              3.0002039    
   1800000   6363.961       200            200            0.0030041494  -0.0027852811   0              0.011797729    4.9141977e-11  0              4.7457804e-06  1.1965779e-13  0              3.0002039    
   1900000   6363.961       200            200            0.0030041375  -0.0027852799   0              0.011797692    5.1503949e-10  0              4.9738827e-05  1.1965779e-13  0              3.0002039    
   2000000   6363.961       200            200            0.0030041398  -0.0027852801   0              0.0117977      1.3521892e-10  0              1.3058475e-05  1.1965779e-13  0              3.0002039    
   2100000   6363.961       200            200            0.0030041403  -0.0027852802   0              0.011797701    5.827893e-12   0              5.6281619e-07  1.1965779e-13  0              3.0002039    
   2200000   6363.961       200            200            0.0030041398  -0.0027852801   0              0.011797699    1.857925e-13   0              1.794251e-08   1.1965779e-13  0              3.0002039    
   2300000   6363.961       200            200            0.00300414    -0.0027852802   0              0.0117977      2.7900746e-13  0              2.6944544e-08  1.1965779e-13  0              3.0002039    
   2400000   6363.961       200            200            0.0030041399  -0.0027852802   0              0.0117977      3.6198061e-14  0              3.4957496e-09  1.1965779e-13  0              3.0002039    
   2500000   6363.961       200            200            0.0030041399  -0.0027852802   0              0.0117977      3.2290119e-16  0              3.1183485e-11  1.1965779e-13  0              3.0002039    
   2600000   6363.961       200            200            0.0030041399  -0.0027852802   0              0.0117977      3.3843506e-16  0              3.2683636e-11  1.1965779e-13  0              3.0002039    
   2700000   6363.961       200            200            0.0030041399  -0.0027852802   0              0.0117977      1.0837524e-16  0              1.0466105e-11  1.1965779e-13  0              3.0002039    
   2800000   6363.961       200            200            0.0030041399  -0.0027852802   0              0.0117977      7.1973761e-18  0              6.9507107e-13  1.1965779e-13  0              3.0002039    
   2900000   6363.961       200            200            0.0030041399  -0.0027852802   0              0.0117977      1.1710323e-18  0              1.1308991e-13  1.1965779e-13  0              3.0002039    
   3000000   6363.961       200            200            0.0030041399  -0.0027852802   0              0.0117977      3.5237412e-18  0              3.402977e-13   1.1965779e-13  0              3.0002039    
Loop time of 295.169 on 4 procs for 3000000 steps with 2501 atoms

Performance: 8781403.895 ns/day, 0.000 hours/ns, 10163.662 timesteps/s
100.0% CPU use with 4 MPI tasks x 1 OpenMP threads

MPI task timing breakdown:
Section |  min time  |  avg time  |  max time  |%varavg| %total
---------------------------------------------------------------
Pair    | 11.311     | 39.455     | 67.404     | 443.4 | 13.37
Neigh   | 3.4769     | 3.5013     | 3.5252     |   0.9 |  1.19
Comm    | 16.11      | 21.055     | 25.745     |  83.8 |  7.13
Output  | 0.24102    | 0.24137    | 0.24177    |   0.1 |  0.08
Modify  | 170.62     | 175.07     | 179.23     |  28.9 | 59.31
Other   |            | 55.84      |            |       | 18.92

Nlocal:         625.25 ave         877 max         374 min
Histogram: 2 0 0 0 0 0 0 0 0 2
Nghost:           1.75 ave           3 max           1 min
Histogram: 2 0 0 0 0 1 0 0 0 1
Neighs:         345.75 ave         692 max           0 min
Histogram: 2 0 0 0 0 0 0 0 0 2

Total # of neighbors = 1383
Ave neighs/atom = 0.55297881
Neighbor list builds = 168
Dangerous builds = 0

undump D1

############ Add spring between top chain to supp particle and then equilibrium  ###########

#fix sp1 support spring couple slider1 ${K0} ${lenspr} NULL NULL 0                                 # Add spring

#dump 		D2 all custom 100000 add_${num}*.dump id type diameter mass xu yu zu

#fix add1 all print 10 "${p0} ${distance} ${slider_z}" file add_distance_${num}.txt screen no      # out put step, distance(spring length), z-position of top chain

#run 1000000

#undump D2

#unfix add1

########## Pulling the supporting particle with constant velocity #############

#fix m1 support move linear 0.1 0 0 units box                                                      # apply constant velocity to supporting particles along x-direction V=0.1m/s

#fix move1 all print 100 "${p0} ${distance} ${slider_z}" file move_distance_${num}.txt screen no

#dump 		1 all custom 50000 move_${num}_*.dump id type diameter mass xu yu zu

#run 1000000

clear
  using 1 OpenMP thread(s) per MPI task

next num

jump SELF startloop

include granular.in
### Simulation of contact between two chain

##################### Simulation setup ####################

units micro                              # units
dimension	3                            # dimension
boundary	p p p                        # boundary condition p: periodic
atom_style	sphere                       # atom style
#processors * * 1

####################### Parameter ##################################

variable ind equal ${num}
variable ind equal 2

#variable lat0 equal 1                    #
variable lat1 equal 3*(2^(1/2))       # Lattice distance of bottom chain
variable lat2 equal 3                   # Lattice distance of top chain
variable d1 equal 3+(0*0.01)+(v_ind*0.01)                      # Diamter of particle at bottom chain
variable d2 equal 3                      # Diamter of particle at top chain
#variable d3 equal 1                      # Diamter of supporting particle

variable n2e1 equal 500*v_lat2              # Half length of top chain. 1500 is number of particles
variable n1e1 equal 1.5*v_n2e1*(v_lat1/v_lat2)               # Half length of bottom chain, which is 1.5 time larger than top chain
variable n1e2 equal -v_n1e1
variable n2e2 equal -v_n2e1
#variable lenspr equal -(v_n2e1+100)           # length of the spring connecting top chain and supporting particle
#variable lenspr1 equal -v_lenspr-0.1         # Position of supporting particle upper bound
#variable lenspr2 equal -v_lenspr+0.1         # Position of supporting particle lower bound

variable den equal 2.2 #grams/cm^3      # micrometer^3=10^-12 cm^3 Density of materials
#variable den2 equal 1.5

variable V1 equal (1/6)*PI*(v_d1^3)     # Volume of particle 1
variable V2 equal (1/6)*PI*(v_d2^3)     # Volume of particle 2
#variable V3 equal (1/6)*PI*(v_d3^3)     # Volume of particle 3

variable mass1 equal v_den*v_V1  # Mass of particle 1 (picograms)
variable mass2 equal v_den*v_V2  # Mass of particle 2
#variable mass3 equal v_den*v_V3  # Mass of particle 3

# E GPa to picogram/(micrometer-microsecond^2)= 10^3 Pa= 10^-6 GPa
# Force unit(picogram-micrometer/microsecond^2)=10^-9 N= 1nN
# Spring stiffness (force/distance) 10^-3 N/m

variable K0 equal (1500/50)*(10^5)             # Spring stiffness conneting top chain and sup particle
variable E equal 100*(10^6)                    # Young's Modulus using for Hertz/material model
variable PR equal 0.3                          # Poisson's ratio using for Hertz/material model
variable Fn equal -1000 #-(v_ind*100)                       # Force apply to each particles in top chain
variable dt equal 0.00001                      # Time step units microsecond
variable lgv equal 0.5                         #damping for langevin thermostat for slider


################### Creating the model #################################
lattice sc ${lat1}                                                               # Bottom chain type1
lattice sc 4.24264068711929                                                               
Lattice spacing in x,y,z = 4.2426407 4.2426407 4.2426407

region box block ${n1e2} ${n1e1} -100 100 -100 100 units box
region box block -3181.98051533947 ${n1e1} -100 100 -100 100 units box
region box block -3181.98051533947 3181.98051533947 -100 100 -100 100 units box
region substrate block ${n1e2} ${n1e1} -0.5 0.5 0 0.5 units box
region substrate block -3181.98051533947 ${n1e1} -0.5 0.5 0 0.5 units box
region substrate block -3181.98051533947 3181.98051533947 -0.5 0.5 0 0.5 units box

create_box 2 box
Created orthogonal box = (-3181.9805 -100 -100) to (3181.9805 100 100)
  4 by 1 by 1 MPI processor grid
create_atoms 1 region substrate
Created 1500 atoms
  using lattice units in orthogonal box = (-3181.9805 -100 -100) to (3181.9805 100 100)
  create_atoms CPU = 0.001 seconds

lattice sc ${lat2}                                                             # Top chain type2
lattice sc 3                                                             
Lattice spacing in x,y,z = 3 3 3

region slider1 block ${n2e2} ${n2e1} -0.1 0.1 5.9 6.1 units box
region slider1 block -1500 ${n2e1} -0.1 0.1 5.9 6.1 units box
region slider1 block -1500 1500 -0.1 0.1 5.9 6.1 units box

create_atoms 2 region slider1
Created 1001 atoms
  using lattice units in orthogonal box = (-3181.9805 -100 -100) to (3181.9805 100 100)
  create_atoms CPU = 0.001 seconds

#lattice sc ${lat0}                                                             # Supporting particle type3

#region support block ${lenspr1} ${lenspr2} -0.1 0.1 7.9 8.1 units box

#create_atoms 3 region support

set type 1 diameter ${d1}                    # Set mass and diameter for each particles type
set type 1 diameter 3.02                    
Setting atom values ...
  1500 settings made for diameter
set type 1 mass ${mass1}
set type 1 mass 31.7279587335909
Setting atom values ...
  1500 settings made for mass
set type 2 diameter ${d2}
set type 2 diameter 3
Setting atom values ...
  1001 settings made for diameter
set type 2 mass ${mass2}
set type 2 mass 31.101767270539
Setting atom values ...
  1001 settings made for mass
#set type 3 diameter ${d3}
#set type 3 mass ${mass3}

group substrate region substrate           # Define gorup
1500 atoms in group substrate
group slider1 region slider1
1001 atoms in group slider1
#group support region support
group substrate_slider union substrate slider1
2501 atoms in group substrate_slider

########################## Potential ###################################
pair_style granular
pair_coeff 1 1 hertz/material 0.00000001 0.001 ${PR} tangential mindlin NULL 0.1 0.01 damping viscoelastic              ########### set E between each particle in same type is small to neglect their interaction
pair_coeff 1 1 hertz/material 0.00000001 0.001 0.3 tangential mindlin NULL 0.1 0.01 damping viscoelastic              
pair_coeff 2 2 hertz/material 0.00000001 0.001 ${PR} tangential mindlin NULL 0.1 0.01 damping viscoelastic
pair_coeff 2 2 hertz/material 0.00000001 0.001 0.3 tangential mindlin NULL 0.1 0.01 damping viscoelastic
#pair_coeff 3 3 hertz/material ${E} 0.001 ${PR} tangential mindlin NULL 0.1 0.01 damping viscoelastic
pair_coeff 1 2 hertz/material ${E} 0.001 ${PR} tangential mindlin NULL 0.1 0.01 damping viscoelastic
pair_coeff 1 2 hertz/material 100000000 0.001 ${PR} tangential mindlin NULL 0.1 0.01 damping viscoelastic
pair_coeff 1 2 hertz/material 100000000 0.001 0.3 tangential mindlin NULL 0.1 0.01 damping viscoelastic
#pair_coeff 1 3 hertz/material 0.00000001 0.001 ${PR} tangential mindlin NULL 0.1 0.01 damping viscoelastic
#pair_coeff 2 3 hertz/material 0.00000001 0.001 ${PR} tangential mindlin NULL 0.1 0.01 damping viscoelastic
comm_modify     vel yes
neigh_modify    delay 0 every 1 check yes

### Compute properties ###

compute 1 slider1 com                      # Compute the center of mass of top chain
#compute 2 support com                      # Compute the center of mass of supporting particle

variable p0 equal "step"

variable slider_z equal "c_1[3]"          # output the position of top chain in z-direction

#variable distance equal "c_2[1]-c_1[1]"   # Distance between COM of top chain and supporting particle

thermo 100000
thermo_style custom step lx ly lz press pxx pyy pzz ke pe temp c_1[1] c_1[2] c_1[3] #c_2[1] c_2[2] c_2[3] v_distance

############### Fix ##################


############## Equilibrium the system with apply force ########################

fix force_slider1 slider1 setforce NULL 0 NULL                                # Fix top chain not to move in y-direction

fix f_sub substrate freeze                                                    # Freeze the bottom chain

fix rigid_top slider1 rigid/nve group 1 slider1 langevin 0 0 ${lgv} 6987532   # NVE+langevin
fix rigid_top slider1 rigid/nve group 1 slider1 langevin 0 0 0.5 6987532   
  1 rigid bodies with 1001 atoms

fix add slider1 addforce 0 0 ${Fn} every 1                                    # Add force to top layer
fix add slider1 addforce 0 0 -1000 every 1                                    

timestep ${dt}
timestep 1e-05

# fix  nve_1 slider1 nve

dump 		D1 all custom 100000 Equi_${num}_*.dump id type diameter mass xu yu zu
dump 		D1 all custom 100000 Equi_2_*.dump id type diameter mass xu yu zu
dump_modify D1 format 5 %.18g
dump_modify D1 format 7 %.18g

run 3000000
Generated 0 of 1 mixed pair_coeff terms from geometric mixing rule
Neighbor list info ...
  update every 1 steps, delay 0 steps, check yes
  max neighbors/atom: 2000, page size: 100000
  master list distance cutoff = 3.12
  ghost atom cutoff = 3.12
  binsize = 1.56, bins = 4080 129 129
  1 neighbor lists, perpetual/occasional/extra = 1 0 0
  (1) pair granular, perpetual
      attributes: half, newton on, size, history
      pair build: half/size/bin/newton
      stencil: half/bin/3d
      bin: standard
Per MPI rank memory allocation (min/avg/max) = 83.05 | 83.05 | 83.06 Mbytes
   Step           Lx             Ly             Lz           Press           Pxx            Pyy            Pzz           KinEng         PotEng          Temp          c_1[1]         c_1[2]         c_1[3]    
         0   6363.961       200            200            0              0              0              0              0              0              0              1.1965779e-13  0              6            
    100000   6363.961       200            200            0.0032087379   1.2693313e-35  0              0.0096262137   588273.22      0              5.6811217e+10  1.1965779e-13  0              3.3281048    
    200000   6363.961       200            200            0.0011462857   5.0773209e-35  0              0.003438857    145033.99      0              1.4006345e+10  1.1965779e-13  0              3.0799266    
    300000   6363.961       200            200            8.1456995e-05 -2.5386079e-35  0              0.00024437098  1510.2119      0              1.4584546e+08  1.1965779e-13  0              3.0548305    
    400000   6363.961       200            200            0.00027671682 -2.9184679e-06  0              0.00083306893  7650.5308      0              7.3883351e+08  1.1965779e-13  0              3.009295     
    500000   6363.961       200            200            0.0012406718  -0.00042066032  0              0.0041426756   841.1331       0              81230614       1.1965779e-13  0              3.00723      
    600000   6363.961       200            200            0.0029263893  -0.002626362    0              0.01140553     208.62565      0              20147572       1.1965779e-13  0              3.005311     
    700000   6363.961       200            200            0.0035325405  -0.0027844366   0              0.013382058    7.6098135      0              734901.32      1.1965779e-13  0              3.004895     
    800000   6363.961       200            200            0.002799718   -0.0027886402   0              0.011187794    0.30199898     0              29164.9        1.1965779e-13  0              3.0053376    
    900000   6363.961       200            200            0.0030475012  -0.0027853322   0              0.011927836    0.40748401     0              39351.889      1.1965779e-13  0              3.0051861    
   1000000   6363.961       200            200            0.0030214791  -0.0027838671   0              0.011848305    0.059969564    0              5791.4312      1.1965779e-13  0              3.0052012    
   1100000   6363.961       200            200            0.0030015538  -0.0027824287   0              0.01178709     0.0012446516   0              120.19954      1.1965779e-13  0              3.0052141    
   1200000   6363.961       200            200            0.0030148281  -0.0027837191   0              0.011828204    0.00024089389  0              23.263808      1.1965779e-13  0              3.0052057    
   1300000   6363.961       200            200            0.0030109203  -0.0027833382   0              0.011816099    0.00015487661  0              14.956875      1.1965779e-13  0              3.0052081    
   1400000   6363.961       200            200            0.003011067   -0.0027833494   0              0.01181655     1.6585156e-05  0              1.6016756      1.1965779e-13  0              3.005208     
   1500000   6363.961       200            200            0.0030115213  -0.0027833949   0              0.011817959    1.1523693e-07  0              0.011128758    1.1965779e-13  0              3.0052077    
   1600000   6363.961       200            200            0.0030112765  -0.0027833708   0              0.0118172      1.4509632e-07  0              0.014012364    1.1965779e-13  0              3.0052079    
   1700000   6363.961       200            200            0.0030113365  -0.0027833766   0              0.011817386    5.4970183e-08  0              0.0053086268   1.1965779e-13  0              3.0052079    
   1800000   6363.961       200            200            0.0030113398  -0.002783377    0              0.011817396    4.1968708e-09  0              0.00040530374  1.1965779e-13  0              3.0052079    
   1900000   6363.961       200            200            0.0030113301  -0.002783376    0              0.011817366    2.310153e-13   0              2.2309804e-08  1.1965779e-13  0              3.0052079    
   2000000   6363.961       200            200            0.0030113344  -0.0027833765   0              0.01181738     7.2188277e-11  0              6.9714271e-06  1.1965779e-13  0              3.0052079    
   2100000   6363.961       200            200            0.0030113336  -0.0027833764   0              0.011817377    1.8262516e-11  0              1.7636631e-06  1.1965779e-13  0              3.0052079    
   2200000   6363.961       200            200            0.0030113334  -0.0027833764   0              0.011817377    9.4300738e-13  0              9.1068903e-08  1.1965779e-13  0              3.0052079    
   2300000   6363.961       200            200            0.0030113336  -0.0027833764   0              0.011817377    9.1835126e-15  0              8.8687792e-10  1.1965779e-13  0              3.0052079    
   2400000   6363.961       200            200            0.0030113335  -0.0027833764   0              0.011817377    3.1746532e-14  0              3.0658528e-09  1.1965779e-13  0              3.0052079    
   2500000   6363.961       200            200            0.0030113335  -0.0027833764   0              0.011817377    5.6315517e-15  0              5.4385495e-10  1.1965779e-13  0              3.0052079    
   2600000   6363.961       200            200            0.0030113335  -0.0027833764   0              0.011817377    1.641941e-16   0              1.5856691e-11  1.1965779e-13  0              3.0052079    
   2700000   6363.961       200            200            0.0030113335  -0.0027833764   0              0.011817377    1.2251079e-17  0              1.1831216e-12  1.1965779e-13  0              3.0052079    
   2800000   6363.961       200            200            0.0030113335  -0.0027833764   0              0.011817377    7.78252e-18    0              7.5158008e-13  1.1965779e-13  0              3.0052079    
   2900000   6363.961       200            200            0.0030113335  -0.0027833764   0              0.011817377    5.2214038e-18  0              5.0424581e-13  1.1965779e-13  0              3.0052079    
   3000000   6363.961       200            200            0.0030113335  -0.0027833764   0              0.011817377    7.1683458e-18  0              6.9226753e-13  1.1965779e-13  0              3.0052079    
Loop time of 303.158 on 4 procs for 3000000 steps with 2501 atoms

Performance: 8550007.025 ns/day, 0.000 hours/ns, 9895.841 timesteps/s
100.0% CPU use with 4 MPI tasks x 1 OpenMP threads

MPI task timing breakdown:
Section |  min time  |  avg time  |  max time  |%varavg| %total
---------------------------------------------------------------
Pair    | 11.227     | 40.88      | 71.696     | 460.8 | 13.48
Neigh   | 3.456      | 3.4803     | 3.5032     |   0.9 |  1.15
Comm    | 16.308     | 21.218     | 27.58      |  92.7 |  7.00
Output  | 0.2443     | 0.24466    | 0.24508    |   0.1 |  0.08
Modify  | 175.8      | 179.56     | 183.54     |  23.6 | 59.23
Other   |            | 57.77      |            |       | 19.06

Nlocal:         625.25 ave         877 max         374 min
Histogram: 2 0 0 0 0 0 0 0 0 2
Nghost:           1.75 ave           3 max           1 min
Histogram: 2 0 0 0 0 1 0 0 0 1
Neighs:         347.75 ave         696 max           0 min
Histogram: 2 0 0 0 0 0 0 0 0 2

Total # of neighbors = 1391
Ave neighs/atom = 0.55617753
Neighbor list builds = 168
Dangerous builds = 0

undump D1

############ Add spring between top chain to supp particle and then equilibrium  ###########

#fix sp1 support spring couple slider1 ${K0} ${lenspr} NULL NULL 0                                 # Add spring

#dump 		D2 all custom 100000 add_${num}*.dump id type diameter mass xu yu zu

#fix add1 all print 10 "${p0} ${distance} ${slider_z}" file add_distance_${num}.txt screen no      # out put step, distance(spring length), z-position of top chain

#run 1000000

#undump D2

#unfix add1

########## Pulling the supporting particle with constant velocity #############

#fix m1 support move linear 0.1 0 0 units box                                                      # apply constant velocity to supporting particles along x-direction V=0.1m/s

#fix move1 all print 100 "${p0} ${distance} ${slider_z}" file move_distance_${num}.txt screen no

#dump 		1 all custom 50000 move_${num}_*.dump id type diameter mass xu yu zu

#run 1000000

clear
  using 1 OpenMP thread(s) per MPI task

next num

jump SELF startloop

include granular.in
### Simulation of contact between two chain

##################### Simulation setup ####################

units micro                              # units
dimension	3                            # dimension
boundary	p p p                        # boundary condition p: periodic
atom_style	sphere                       # atom style
#processors * * 1

####################### Parameter ##################################

variable ind equal ${num}
variable ind equal 3

#variable lat0 equal 1                    #
variable lat1 equal 3*(2^(1/2))       # Lattice distance of bottom chain
variable lat2 equal 3                   # Lattice distance of top chain
variable d1 equal 3+(0*0.01)+(v_ind*0.01)                      # Diamter of particle at bottom chain
variable d2 equal 3                      # Diamter of particle at top chain
#variable d3 equal 1                      # Diamter of supporting particle

variable n2e1 equal 500*v_lat2              # Half length of top chain. 1500 is number of particles
variable n1e1 equal 1.5*v_n2e1*(v_lat1/v_lat2)               # Half length of bottom chain, which is 1.5 time larger than top chain
variable n1e2 equal -v_n1e1
variable n2e2 equal -v_n2e1
#variable lenspr equal -(v_n2e1+100)           # length of the spring connecting top chain and supporting particle
#variable lenspr1 equal -v_lenspr-0.1         # Position of supporting particle upper bound
#variable lenspr2 equal -v_lenspr+0.1         # Position of supporting particle lower bound

variable den equal 2.2 #grams/cm^3      # micrometer^3=10^-12 cm^3 Density of materials
#variable den2 equal 1.5

variable V1 equal (1/6)*PI*(v_d1^3)     # Volume of particle 1
variable V2 equal (1/6)*PI*(v_d2^3)     # Volume of particle 2
#variable V3 equal (1/6)*PI*(v_d3^3)     # Volume of particle 3

variable mass1 equal v_den*v_V1  # Mass of particle 1 (picograms)
variable mass2 equal v_den*v_V2  # Mass of particle 2
#variable mass3 equal v_den*v_V3  # Mass of particle 3

# E GPa to picogram/(micrometer-microsecond^2)= 10^3 Pa= 10^-6 GPa
# Force unit(picogram-micrometer/microsecond^2)=10^-9 N= 1nN
# Spring stiffness (force/distance) 10^-3 N/m

variable K0 equal (1500/50)*(10^5)             # Spring stiffness conneting top chain and sup particle
variable E equal 100*(10^6)                    # Young's Modulus using for Hertz/material model
variable PR equal 0.3                          # Poisson's ratio using for Hertz/material model
variable Fn equal -1000 #-(v_ind*100)                       # Force apply to each particles in top chain
variable dt equal 0.00001                      # Time step units microsecond
variable lgv equal 0.5                         #damping for langevin thermostat for slider


################### Creating the model #################################
lattice sc ${lat1}                                                               # Bottom chain type1
lattice sc 4.24264068711929                                                               
Lattice spacing in x,y,z = 4.2426407 4.2426407 4.2426407

region box block ${n1e2} ${n1e1} -100 100 -100 100 units box
region box block -3181.98051533947 ${n1e1} -100 100 -100 100 units box
region box block -3181.98051533947 3181.98051533947 -100 100 -100 100 units box
region substrate block ${n1e2} ${n1e1} -0.5 0.5 0 0.5 units box
region substrate block -3181.98051533947 ${n1e1} -0.5 0.5 0 0.5 units box
region substrate block -3181.98051533947 3181.98051533947 -0.5 0.5 0 0.5 units box

create_box 2 box
Created orthogonal box = (-3181.9805 -100 -100) to (3181.9805 100 100)
  4 by 1 by 1 MPI processor grid
create_atoms 1 region substrate
Created 1500 atoms
  using lattice units in orthogonal box = (-3181.9805 -100 -100) to (3181.9805 100 100)
  create_atoms CPU = 0.001 seconds

lattice sc ${lat2}                                                             # Top chain type2
lattice sc 3                                                             
Lattice spacing in x,y,z = 3 3 3

region slider1 block ${n2e2} ${n2e1} -0.1 0.1 5.9 6.1 units box
region slider1 block -1500 ${n2e1} -0.1 0.1 5.9 6.1 units box
region slider1 block -1500 1500 -0.1 0.1 5.9 6.1 units box

create_atoms 2 region slider1
Created 1001 atoms
  using lattice units in orthogonal box = (-3181.9805 -100 -100) to (3181.9805 100 100)
  create_atoms CPU = 0.001 seconds

#lattice sc ${lat0}                                                             # Supporting particle type3

#region support block ${lenspr1} ${lenspr2} -0.1 0.1 7.9 8.1 units box

#create_atoms 3 region support

set type 1 diameter ${d1}                    # Set mass and diameter for each particles type
set type 1 diameter 3.03                    
Setting atom values ...
  1500 settings made for diameter
set type 1 mass ${mass1}
set type 1 mass 32.0441819206036
Setting atom values ...
  1500 settings made for mass
set type 2 diameter ${d2}
set type 2 diameter 3
Setting atom values ...
  1001 settings made for diameter
set type 2 mass ${mass2}
set type 2 mass 31.101767270539
Setting atom values ...
  1001 settings made for mass
#set type 3 diameter ${d3}
#set type 3 mass ${mass3}

group substrate region substrate           # Define gorup
1500 atoms in group substrate
group slider1 region slider1
1001 atoms in group slider1
#group support region support
group substrate_slider union substrate slider1
2501 atoms in group substrate_slider

########################## Potential ###################################
pair_style granular
pair_coeff 1 1 hertz/material 0.00000001 0.001 ${PR} tangential mindlin NULL 0.1 0.01 damping viscoelastic              ########### set E between each particle in same type is small to neglect their interaction
pair_coeff 1 1 hertz/material 0.00000001 0.001 0.3 tangential mindlin NULL 0.1 0.01 damping viscoelastic              
pair_coeff 2 2 hertz/material 0.00000001 0.001 ${PR} tangential mindlin NULL 0.1 0.01 damping viscoelastic
pair_coeff 2 2 hertz/material 0.00000001 0.001 0.3 tangential mindlin NULL 0.1 0.01 damping viscoelastic
#pair_coeff 3 3 hertz/material ${E} 0.001 ${PR} tangential mindlin NULL 0.1 0.01 damping viscoelastic
pair_coeff 1 2 hertz/material ${E} 0.001 ${PR} tangential mindlin NULL 0.1 0.01 damping viscoelastic
pair_coeff 1 2 hertz/material 100000000 0.001 ${PR} tangential mindlin NULL 0.1 0.01 damping viscoelastic
pair_coeff 1 2 hertz/material 100000000 0.001 0.3 tangential mindlin NULL 0.1 0.01 damping viscoelastic
#pair_coeff 1 3 hertz/material 0.00000001 0.001 ${PR} tangential mindlin NULL 0.1 0.01 damping viscoelastic
#pair_coeff 2 3 hertz/material 0.00000001 0.001 ${PR} tangential mindlin NULL 0.1 0.01 damping viscoelastic
comm_modify     vel yes
neigh_modify    delay 0 every 1 check yes

### Compute properties ###

compute 1 slider1 com                      # Compute the center of mass of top chain
#compute 2 support com                      # Compute the center of mass of supporting particle

variable p0 equal "step"

variable slider_z equal "c_1[3]"          # output the position of top chain in z-direction

#variable distance equal "c_2[1]-c_1[1]"   # Distance between COM of top chain and supporting particle

thermo 100000
thermo_style custom step lx ly lz press pxx pyy pzz ke pe temp c_1[1] c_1[2] c_1[3] #c_2[1] c_2[2] c_2[3] v_distance

############### Fix ##################


############## Equilibrium the system with apply force ########################

fix force_slider1 slider1 setforce NULL 0 NULL                                # Fix top chain not to move in y-direction

fix f_sub substrate freeze                                                    # Freeze the bottom chain

fix rigid_top slider1 rigid/nve group 1 slider1 langevin 0 0 ${lgv} 6987532   # NVE+langevin
fix rigid_top slider1 rigid/nve group 1 slider1 langevin 0 0 0.5 6987532   
  1 rigid bodies with 1001 atoms

fix add slider1 addforce 0 0 ${Fn} every 1                                    # Add force to top layer
fix add slider1 addforce 0 0 -1000 every 1                                    

timestep ${dt}
timestep 1e-05

# fix  nve_1 slider1 nve

dump 		D1 all custom 100000 Equi_${num}_*.dump id type diameter mass xu yu zu
dump 		D1 all custom 100000 Equi_3_*.dump id type diameter mass xu yu zu
dump_modify D1 format 5 %.18g
dump_modify D1 format 7 %.18g

run 3000000
Generated 0 of 1 mixed pair_coeff terms from geometric mixing rule
Neighbor list info ...
  update every 1 steps, delay 0 steps, check yes
  max neighbors/atom: 2000, page size: 100000
  master list distance cutoff = 3.13
  ghost atom cutoff = 3.13
  binsize = 1.565, bins = 4067 128 128
  1 neighbor lists, perpetual/occasional/extra = 1 0 0
  (1) pair granular, perpetual
      attributes: half, newton on, size, history
      pair build: half/size/bin/newton
      stencil: half/bin/3d
      bin: standard
Per MPI rank memory allocation (min/avg/max) = 81.8 | 81.81 | 81.81 Mbytes
   Step           Lx             Ly             Lz           Press           Pxx            Pyy            Pzz           KinEng         PotEng          Temp          c_1[1]         c_1[2]         c_1[3]    
         0   6363.961       200            200            0              0              0              0              0              0              0              1.1965779e-13  0              6            
    100000   6363.961       200            200            0.0032180916   6.3466542e-36  0              0.0096542747   590564.28      0              5.7032471e+10  1.1965779e-13  0              3.3283205    
    200000   6363.961       200            200            0.0011599113   5.0773216e-35  0              0.0034797339   147542.92      0              1.4248639e+10  1.1965779e-13  0              3.0817323    
    300000   6363.961       200            200            9.1993098e-05 -7.6159045e-35  0              0.00027597929  1897.9015      0              1.8328575e+08  1.1965779e-13  0              3.0594323    
    400000   6363.961       200            200            0.00062337107 -0.00014217906  0              0.0020122923   8496.0707      0              8.204897e+08   1.1965779e-13  0              3.0133526    
    500000   6363.961       200            200            0.0016015914  -0.00052751501  0              0.0053322892   1070.1878      0              1.0335108e+08  1.1965779e-13  0              3.0118548    
    600000   6363.961       200            200            0.0032424347  -0.0027831635   0              0.012510468    206.62761      0              19954616       1.1965779e-13  0              3.0100938    
    700000   6363.961       200            200            0.0034399173  -0.0027613104   0              0.013081062    14.955457      0              1444291        1.1965779e-13  0              3.0099602    
    800000   6363.961       200            200            0.0027987654  -0.0027860568   0              0.011182353    0.0022171735   0              214.11874      1.1965779e-13  0              3.0103472    
    900000   6363.961       200            200            0.0030783162  -0.0027825701   0              0.012017519    0.23295492     0              22497.118      1.1965779e-13  0              3.0101757    
   1000000   6363.961       200            200            0.0030168206  -0.0027818083   0              0.01183227     0.068352062    0              6600.9529      1.1965779e-13  0              3.0102124    
   1100000   6363.961       200            200            0.0030112077  -0.0027815219   0              0.011815145    0.0050097418   0              483.805        1.1965779e-13  0              3.0102163    
   1200000   6363.961       200            200            0.0030221536  -0.0027825909   0              0.011849052    2.2018416e-06  0              0.2126381      1.1965779e-13  0              3.0102093    
   1300000   6363.961       200            200            0.0030172241  -0.0027821111   0              0.011833784    7.6999371e-05  0              7.4360481      1.1965779e-13  0              3.0102124    
   1400000   6363.961       200            200            0.0030183067  -0.0027822133   0              0.011837134    2.2593145e-05  0              2.1818842      1.1965779e-13  0              3.0102118    
   1500000   6363.961       200            200            0.0030184097  -0.0027822245   0              0.011837454    1.6465226e-06  0              0.15900937     1.1965779e-13  0              3.0102117    
   1600000   6363.961       200            200            0.0030182103  -0.0027822049   0              0.011836836    6.2217806e-10  0              6.0085504e-05  1.1965779e-13  0              3.0102118    
   1700000   6363.961       200            200            0.0030182999  -0.0027822136   0              0.011837113    2.5618394e-08  0              0.0024740411   1.1965779e-13  0              3.0102118    
   1800000   6363.961       200            200            0.0030182803  -0.0027822117   0              0.011837053    7.466805e-09   0              0.00072109058  1.1965779e-13  0              3.0102118    
   1900000   6363.961       200            200            0.0030182784  -0.0027822115   0              0.011837047    5.4082846e-10  0              5.2229342e-05  1.1965779e-13  0              3.0102118    
   2000000   6363.961       200            200            0.003018282   -0.0027822119   0              0.011837058    1.7328202e-13  0              1.6734337e-08  1.1965779e-13  0              3.0102118    
   2100000   6363.961       200            200            0.0030182804  -0.0027822117   0              0.011837053    8.5228176e-12  0              8.2307272e-07  1.1965779e-13  0              3.0102118    
   2200000   6363.961       200            200            0.0030182807  -0.0027822117   0              0.011837054    2.4671658e-12  0              2.3826121e-07  1.1965779e-13  0              3.0102118    
   2300000   6363.961       200            200            0.0030182808  -0.0027822117   0              0.011837054    1.7731187e-13  0              1.7123511e-08  1.1965779e-13  0              3.0102118    
   2400000   6363.961       200            200            0.0030182807  -0.0027822117   0              0.011837054    5.2012149e-17  0              5.0229611e-12  1.1965779e-13  0              3.0102118    
   2500000   6363.961       200            200            0.0030182807  -0.0027822117   0              0.011837054    2.7502777e-15  0              2.6560214e-10  1.1965779e-13  0              3.0102118    
   2600000   6363.961       200            200            0.0030182807  -0.0027822117   0              0.011837054    8.1668488e-16  0              7.886958e-11   1.1965779e-13  0              3.0102118    
   2700000   6363.961       200            200            0.0030182807  -0.0027822117   0              0.011837054    5.8837615e-17  0              5.6821157e-12  1.1965779e-13  0              3.0102118    
   2800000   6363.961       200            200            0.0030182807  -0.0027822117   0              0.011837054    7.4165719e-19  0              7.1623943e-14  1.1965779e-13  0              3.0102118    
   2900000   6363.961       200            200            0.0030182807  -0.0027822117   0              0.011837054    1.6278473e-18  0              1.5720584e-13  1.1965779e-13  0              3.0102118    
   3000000   6363.961       200            200            0.0030182807  -0.0027822117   0              0.011837054    1.0002242e-18  0              9.6594492e-14  1.1965779e-13  0              3.0102118    
Loop time of 299.897 on 4 procs for 3000000 steps with 2501 atoms

Performance: 8642961.230 ns/day, 0.000 hours/ns, 10003.427 timesteps/s
100.0% CPU use with 4 MPI tasks x 1 OpenMP threads

MPI task timing breakdown:
Section |  min time  |  avg time  |  max time  |%varavg| %total
---------------------------------------------------------------
Pair    | 11.783     | 41.236     | 74.103     | 456.4 | 13.75
Neigh   | 3.3889     | 3.4153     | 3.441      |   1.0 |  1.14
Comm    | 16.035     | 21.945     | 31.951     | 132.4 |  7.32
Output  | 0.24337    | 0.24373    | 0.24415    |   0.1 |  0.08
Modify  | 174.97     | 176.77     | 178.64     |  10.3 | 58.94
Other   |            | 56.29      |            |       | 18.77

Nlocal:         625.25 ave         877 max         374 min
Histogram: 2 0 0 0 0 0 0 0 0 2
Nghost:           1.75 ave           3 max           1 min
Histogram: 2 0 0 0 0 1 0 0 0 1
Neighs:         325.75 ave         652 max           0 min
Histogram: 2 0 0 0 0 0 0 0 0 2

Total # of neighbors = 1303
Ave neighs/atom = 0.5209916
Neighbor list builds = 167
Dangerous builds = 0

undump D1

############ Add spring between top chain to supp particle and then equilibrium  ###########

#fix sp1 support spring couple slider1 ${K0} ${lenspr} NULL NULL 0                                 # Add spring

#dump 		D2 all custom 100000 add_${num}*.dump id type diameter mass xu yu zu

#fix add1 all print 10 "${p0} ${distance} ${slider_z}" file add_distance_${num}.txt screen no      # out put step, distance(spring length), z-position of top chain

#run 1000000

#undump D2

#unfix add1

########## Pulling the supporting particle with constant velocity #############

#fix m1 support move linear 0.1 0 0 units box                                                      # apply constant velocity to supporting particles along x-direction V=0.1m/s

#fix move1 all print 100 "${p0} ${distance} ${slider_z}" file move_distance_${num}.txt screen no

#dump 		1 all custom 50000 move_${num}_*.dump id type diameter mass xu yu zu

#run 1000000

clear
  using 1 OpenMP thread(s) per MPI task

next num

jump SELF startloop

include granular.in
### Simulation of contact between two chain

##################### Simulation setup ####################

units micro                              # units
dimension	3                            # dimension
boundary	p p p                        # boundary condition p: periodic
atom_style	sphere                       # atom style
#processors * * 1

####################### Parameter ##################################

variable ind equal ${num}
variable ind equal 4

#variable lat0 equal 1                    #
variable lat1 equal 3*(2^(1/2))       # Lattice distance of bottom chain
variable lat2 equal 3                   # Lattice distance of top chain
variable d1 equal 3+(0*0.01)+(v_ind*0.01)                      # Diamter of particle at bottom chain
variable d2 equal 3                      # Diamter of particle at top chain
#variable d3 equal 1                      # Diamter of supporting particle

variable n2e1 equal 500*v_lat2              # Half length of top chain. 1500 is number of particles
variable n1e1 equal 1.5*v_n2e1*(v_lat1/v_lat2)               # Half length of bottom chain, which is 1.5 time larger than top chain
variable n1e2 equal -v_n1e1
variable n2e2 equal -v_n2e1
#variable lenspr equal -(v_n2e1+100)           # length of the spring connecting top chain and supporting particle
#variable lenspr1 equal -v_lenspr-0.1         # Position of supporting particle upper bound
#variable lenspr2 equal -v_lenspr+0.1         # Position of supporting particle lower bound

variable den equal 2.2 #grams/cm^3      # micrometer^3=10^-12 cm^3 Density of materials
#variable den2 equal 1.5

variable V1 equal (1/6)*PI*(v_d1^3)     # Volume of particle 1
variable V2 equal (1/6)*PI*(v_d2^3)     # Volume of particle 2
#variable V3 equal (1/6)*PI*(v_d3^3)     # Volume of particle 3

variable mass1 equal v_den*v_V1  # Mass of particle 1 (picograms)
variable mass2 equal v_den*v_V2  # Mass of particle 2
#variable mass3 equal v_den*v_V3  # Mass of particle 3

# E GPa to picogram/(micrometer-microsecond^2)= 10^3 Pa= 10^-6 GPa
# Force unit(picogram-micrometer/microsecond^2)=10^-9 N= 1nN
# Spring stiffness (force/distance) 10^-3 N/m

variable K0 equal (1500/50)*(10^5)             # Spring stiffness conneting top chain and sup particle
variable E equal 100*(10^6)                    # Young's Modulus using for Hertz/material model
variable PR equal 0.3                          # Poisson's ratio using for Hertz/material model
variable Fn equal -1000 #-(v_ind*100)                       # Force apply to each particles in top chain
variable dt equal 0.00001                      # Time step units microsecond
variable lgv equal 0.5                         #damping for langevin thermostat for slider


################### Creating the model #################################
lattice sc ${lat1}                                                               # Bottom chain type1
lattice sc 4.24264068711929                                                               
Lattice spacing in x,y,z = 4.2426407 4.2426407 4.2426407

region box block ${n1e2} ${n1e1} -100 100 -100 100 units box
region box block -3181.98051533947 ${n1e1} -100 100 -100 100 units box
region box block -3181.98051533947 3181.98051533947 -100 100 -100 100 units box
region substrate block ${n1e2} ${n1e1} -0.5 0.5 0 0.5 units box
region substrate block -3181.98051533947 ${n1e1} -0.5 0.5 0 0.5 units box
region substrate block -3181.98051533947 3181.98051533947 -0.5 0.5 0 0.5 units box

create_box 2 box
Created orthogonal box = (-3181.9805 -100 -100) to (3181.9805 100 100)
  4 by 1 by 1 MPI processor grid
create_atoms 1 region substrate
Created 1500 atoms
  using lattice units in orthogonal box = (-3181.9805 -100 -100) to (3181.9805 100 100)
  create_atoms CPU = 0.001 seconds

lattice sc ${lat2}                                                             # Top chain type2
lattice sc 3                                                             
Lattice spacing in x,y,z = 3 3 3

region slider1 block ${n2e2} ${n2e1} -0.1 0.1 5.9 6.1 units box
region slider1 block -1500 ${n2e1} -0.1 0.1 5.9 6.1 units box
region slider1 block -1500 1500 -0.1 0.1 5.9 6.1 units box

create_atoms 2 region slider1
Created 1001 atoms
  using lattice units in orthogonal box = (-3181.9805 -100 -100) to (3181.9805 100 100)
  create_atoms CPU = 0.001 seconds

#lattice sc ${lat0}                                                             # Supporting particle type3

#region support block ${lenspr1} ${lenspr2} -0.1 0.1 7.9 8.1 units box

#create_atoms 3 region support

set type 1 diameter ${d1}                    # Set mass and diameter for each particles type
set type 1 diameter 3.04                    
Setting atom values ...
  1500 settings made for diameter
set type 1 mass ${mass1}
set type 1 mass 32.3624992932791
Setting atom values ...
  1500 settings made for mass
set type 2 diameter ${d2}
set type 2 diameter 3
Setting atom values ...
  1001 settings made for diameter
set type 2 mass ${mass2}
set type 2 mass 31.101767270539
Setting atom values ...
  1001 settings made for mass
#set type 3 diameter ${d3}
#set type 3 mass ${mass3}

group substrate region substrate           # Define gorup
1500 atoms in group substrate
group slider1 region slider1
1001 atoms in group slider1
#group support region support
group substrate_slider union substrate slider1
2501 atoms in group substrate_slider

########################## Potential ###################################
pair_style granular
pair_coeff 1 1 hertz/material 0.00000001 0.001 ${PR} tangential mindlin NULL 0.1 0.01 damping viscoelastic              ########### set E between each particle in same type is small to neglect their interaction
pair_coeff 1 1 hertz/material 0.00000001 0.001 0.3 tangential mindlin NULL 0.1 0.01 damping viscoelastic              
pair_coeff 2 2 hertz/material 0.00000001 0.001 ${PR} tangential mindlin NULL 0.1 0.01 damping viscoelastic
pair_coeff 2 2 hertz/material 0.00000001 0.001 0.3 tangential mindlin NULL 0.1 0.01 damping viscoelastic
#pair_coeff 3 3 hertz/material ${E} 0.001 ${PR} tangential mindlin NULL 0.1 0.01 damping viscoelastic
pair_coeff 1 2 hertz/material ${E} 0.001 ${PR} tangential mindlin NULL 0.1 0.01 damping viscoelastic
pair_coeff 1 2 hertz/material 100000000 0.001 ${PR} tangential mindlin NULL 0.1 0.01 damping viscoelastic
pair_coeff 1 2 hertz/material 100000000 0.001 0.3 tangential mindlin NULL 0.1 0.01 damping viscoelastic
#pair_coeff 1 3 hertz/material 0.00000001 0.001 ${PR} tangential mindlin NULL 0.1 0.01 damping viscoelastic
#pair_coeff 2 3 hertz/material 0.00000001 0.001 ${PR} tangential mindlin NULL 0.1 0.01 damping viscoelastic
comm_modify     vel yes
neigh_modify    delay 0 every 1 check yes

### Compute properties ###

compute 1 slider1 com                      # Compute the center of mass of top chain
#compute 2 support com                      # Compute the center of mass of supporting particle

variable p0 equal "step"

variable slider_z equal "c_1[3]"          # output the position of top chain in z-direction

#variable distance equal "c_2[1]-c_1[1]"   # Distance between COM of top chain and supporting particle

thermo 100000
thermo_style custom step lx ly lz press pxx pyy pzz ke pe temp c_1[1] c_1[2] c_1[3] #c_2[1] c_2[2] c_2[3] v_distance

############### Fix ##################


############## Equilibrium the system with apply force ########################

fix force_slider1 slider1 setforce NULL 0 NULL                                # Fix top chain not to move in y-direction

fix f_sub substrate freeze                                                    # Freeze the bottom chain

fix rigid_top slider1 rigid/nve group 1 slider1 langevin 0 0 ${lgv} 6987532   # NVE+langevin
fix rigid_top slider1 rigid/nve group 1 slider1 langevin 0 0 0.5 6987532   
  1 rigid bodies with 1001 atoms

fix add slider1 addforce 0 0 ${Fn} every 1                                    # Add force to top layer
fix add slider1 addforce 0 0 -1000 every 1                                    

timestep ${dt}
timestep 1e-05

# fix  nve_1 slider1 nve

dump 		D1 all custom 100000 Equi_${num}_*.dump id type diameter mass xu yu zu
dump 		D1 all custom 100000 Equi_4_*.dump id type diameter mass xu yu zu
dump_modify D1 format 5 %.18g
dump_modify D1 format 7 %.18g

run 3000000
Generated 0 of 1 mixed pair_coeff terms from geometric mixing rule
Neighbor list info ...
  update every 1 steps, delay 0 steps, check yes
  max neighbors/atom: 2000, page size: 100000
  master list distance cutoff = 3.14
  ghost atom cutoff = 3.14
  binsize = 1.57, bins = 4054 128 128
  1 neighbor lists, perpetual/occasional/extra = 1 0 0
  (1) pair granular, perpetual
      attributes: half, newton on, size, history
      pair build: half/size/bin/newton
      stencil: half/bin/3d
      bin: standard
Per MPI rank memory allocation (min/avg/max) = 81.54 | 81.57 | 81.6 Mbytes
[...]
Loop time of 287.617 on 4 procs for 3000000 steps with 2501 atoms

Performance: 9011987.243 ns/day, 0.000 hours/ns, 10430.541 timesteps/s
100.0% CPU use with 4 MPI tasks x 1 OpenMP threads

MPI task timing breakdown:
Section |  min time  |  avg time  |  max time  |%varavg| %total
---------------------------------------------------------------
Pair    | 11.064     | 38.05      | 65.605     | 436.0 | 13.23
Neigh   | 1.3449     | 1.3596     | 1.374      |   0.9 |  0.47
Comm    | 11.754     | 17.672     | 22.829     | 117.3 |  6.14
Output  | 0.24224    | 0.24256    | 0.24291    |   0.1 |  0.08
Modify  | 171.26     | 175.13     | 179.39     |  25.1 | 60.89
Other   |            | 55.16      |            |       | 19.18

Nlocal:         625.25 ave         876 max         374 min
Histogram: 2 0 0 0 0 0 0 0 0 2
Nghost:           1.75 ave           2 max           1 min
Histogram: 1 0 0 0 0 0 0 0 0 3
Neighs:         345.25 ave         691 max           0 min
Histogram: 2 0 0 0 0 0 0 0 0 2

Total # of neighbors = 1381
Ave neighs/atom = 0.55217913
Neighbor list builds = 144
Dangerous builds = 0

undump D1

############ Add spring between top chain to supp particle and then equilibrium  ###########

#fix sp1 support spring couple slider1 ${K0} ${lenspr} NULL NULL 0                                 # Add spring

#dump 		D2 all custom 100000 add_${num}*.dump id type diameter mass xu yu zu

#fix add1 all print 10 "${p0} ${distance} ${slider_z}" file add_distance_${num}.txt screen no      # out put step, distance(spring length), z-position of top chain

#run 1000000

#undump D2

#unfix add1

########## Pulling the supporting particle with constant velocity #############

#fix m1 support move linear 0.1 0 0 units box                                                      # apply constant velocity to supporting particles along x-direction V=0.1m/s

#fix move1 all print 100 "${p0} ${distance} ${slider_z}" file move_distance_${num}.txt screen no

#dump 		1 all custom 50000 move_${num}_*.dump id type diameter mass xu yu zu

#run 1000000

clear
  using 1 OpenMP thread(s) per MPI task

next num

jump SELF startloop

include granular.in
### Simulation of contact between two chain

##################### Simulation setup ####################

units micro                              # units
dimension	3                            # dimension
boundary	p p p                        # boundary condition p: periodic
atom_style	sphere                       # atom style
#processors * * 1

####################### Parameter ##################################

variable ind equal ${num}
variable ind equal 99

#variable lat0 equal 1                    #
variable lat1 equal 3*(2^(1/2))       # Lattice distance of bottom chain
variable lat2 equal 3                   # Lattice distance of top chain
variable d1 equal 3+(0*0.01)+(v_ind*0.01)                      # Diamter of particle at bottom chain
variable d2 equal 3                      # Diamter of particle at top chain
#variable d3 equal 1                      # Diamter of supporting particle

variable n2e1 equal 500*v_lat2              # Half length of top chain. 1500 is number of particles
variable n1e1 equal 1.5*v_n2e1*(v_lat1/v_lat2)               # Half length of bottom chain, which is 1.5 time larger than top chain
variable n1e2 equal -v_n1e1
variable n2e2 equal -v_n2e1
#variable lenspr equal -(v_n2e1+100)           # length of the spring connecting top chain and supporting particle
#variable lenspr1 equal -v_lenspr-0.1         # Position of supporting particle upper bound
#variable lenspr2 equal -v_lenspr+0.1         # Position of supporting particle lower bound

variable den equal 2.2 #grams/cm^3      # micrometer^3=10^-12 cm^3 Density of materials
#variable den2 equal 1.5

variable V1 equal (1/6)*PI*(v_d1^3)     # Volume of particle 1
variable V2 equal (1/6)*PI*(v_d2^3)     # Volume of particle 2
#variable V3 equal (1/6)*PI*(v_d3^3)     # Volume of particle 3

variable mass1 equal v_den*v_V1  # Mass of particle 1 (picograms)
variable mass2 equal v_den*v_V2  # Mass of particle 2
#variable mass3 equal v_den*v_V3  # Mass of particle 3

# E GPa to picogram/(micrometer-microsecond^2)= 10^3 Pa= 10^-6 GPa
# Force unit(picogram-micrometer/microsecond^2)=10^-9 N= 1nN
# Spring stiffness (force/distance) 10^-3 N/m

variable K0 equal (1500/50)*(10^5)             # Spring stiffness conneting top chain and sup particle
variable E equal 100*(10^6)                    # Young's Modulus using for Hertz/material model
variable PR equal 0.3                          # Poisson's ratio using for Hertz/material model
variable Fn equal -1000 #-(v_ind*100)                       # Force apply to each particles in top chain
variable dt equal 0.00001                      # Time step units microsecond
variable lgv equal 0.5                         #damping for langevin thermostat for slider


################### Creating the model #################################
lattice sc ${lat1}                                                               # Bottom chain type1
lattice sc 4.24264068711929                                                               
Lattice spacing in x,y,z = 4.2426407 4.2426407 4.2426407

region box block ${n1e2} ${n1e1} -100 100 -100 100 units box
region box block -3181.98051533947 ${n1e1} -100 100 -100 100 units box
region box block -3181.98051533947 3181.98051533947 -100 100 -100 100 units box
region substrate block ${n1e2} ${n1e1} -0.5 0.5 0 0.5 units box
region substrate block -3181.98051533947 ${n1e1} -0.5 0.5 0 0.5 units box
region substrate block -3181.98051533947 3181.98051533947 -0.5 0.5 0 0.5 units box

create_box 2 box
Created orthogonal box = (-3181.9805 -100 -100) to (3181.9805 100 100)
  4 by 1 by 1 MPI processor grid
create_atoms 1 region substrate
Created 1500 atoms
  using lattice units in orthogonal box = (-3181.9805 -100 -100) to (3181.9805 100 100)
  create_atoms CPU = 0.000 seconds

lattice sc ${lat2}                                                             # Top chain type2
lattice sc 3                                                             
Lattice spacing in x,y,z = 3 3 3

region slider1 block ${n2e2} ${n2e1} -0.1 0.1 5.9 6.1 units box
region slider1 block -1500 ${n2e1} -0.1 0.1 5.9 6.1 units box
region slider1 block -1500 1500 -0.1 0.1 5.9 6.1 units box

create_atoms 2 region slider1
Created 1001 atoms
  using lattice units in orthogonal box = (-3181.9805 -100 -100) to (3181.9805 100 100)
  create_atoms CPU = 0.001 seconds

#lattice sc ${lat0}                                                             # Supporting particle type3

#region support block ${lenspr1} ${lenspr2} -0.1 0.1 7.9 8.1 units box

#create_atoms 3 region support

set type 1 diameter ${d1}                    # Set mass and diameter for each particles type
set type 1 diameter 3.99                    
Setting atom values ...
  1500 settings made for diameter
set type 1 mass ${mass1}
set type 1 mass 73.171168446059
Setting atom values ...
  1500 settings made for mass
set type 2 diameter ${d2}
set type 2 diameter 3
Setting atom values ...
  1001 settings made for diameter
set type 2 mass ${mass2}
set type 2 mass 31.101767270539
Setting atom values ...
  1001 settings made for mass
#set type 3 diameter ${d3}
#set type 3 mass ${mass3}

group substrate region substrate           # Define gorup
1500 atoms in group substrate
group slider1 region slider1
1001 atoms in group slider1
#group support region support
group substrate_slider union substrate slider1
2501 atoms in group substrate_slider

########################## Potential ###################################
pair_style granular
pair_coeff 1 1 hertz/material 0.00000001 0.001 ${PR} tangential mindlin NULL 0.1 0.01 damping viscoelastic              ########### set E between each particle in same type is small to neglect their interaction
pair_coeff 1 1 hertz/material 0.00000001 0.001 0.3 tangential mindlin NULL 0.1 0.01 damping viscoelastic              
pair_coeff 2 2 hertz/material 0.00000001 0.001 ${PR} tangential mindlin NULL 0.1 0.01 damping viscoelastic
pair_coeff 2 2 hertz/material 0.00000001 0.001 0.3 tangential mindlin NULL 0.1 0.01 damping viscoelastic
#pair_coeff 3 3 hertz/material ${E} 0.001 ${PR} tangential mindlin NULL 0.1 0.01 damping viscoelastic
pair_coeff 1 2 hertz/material ${E} 0.001 ${PR} tangential mindlin NULL 0.1 0.01 damping viscoelastic
pair_coeff 1 2 hertz/material 100000000 0.001 ${PR} tangential mindlin NULL 0.1 0.01 damping viscoelastic
pair_coeff 1 2 hertz/material 100000000 0.001 0.3 tangential mindlin NULL 0.1 0.01 damping viscoelastic
#pair_coeff 1 3 hertz/material 0.00000001 0.001 ${PR} tangential mindlin NULL 0.1 0.01 damping viscoelastic
#pair_coeff 2 3 hertz/material 0.00000001 0.001 ${PR} tangential mindlin NULL 0.1 0.01 damping viscoelastic
comm_modify     vel yes
neigh_modify    delay 0 every 1 check yes

### Compute properties ###

compute 1 slider1 com                      # Compute the center of mass of top chain
#compute 2 support com                      # Compute the center of mass of supporting particle

variable p0 equal "step"

variable slider_z equal "c_1[3]"          # output the position of top chain in z-direction

#variable distance equal "c_2[1]-c_1[1]"   # Distance between COM of top chain and supporting particle

thermo 100000
thermo_style custom step lx ly lz press pxx pyy pzz ke pe temp c_1[1] c_1[2] c_1[3] #c_2[1] c_2[2] c_2[3] v_distance

############### Fix ##################


############## Equilibrium the system with apply force ########################

fix force_slider1 slider1 setforce NULL 0 NULL                                # Fix top chain not to move in y-direction

fix f_sub substrate freeze                                                    # Freeze the bottom chain

fix rigid_top slider1 rigid/nve group 1 slider1 langevin 0 0 ${lgv} 6987532   # NVE+langevin
fix rigid_top slider1 rigid/nve group 1 slider1 langevin 0 0 0.5 6987532   
  1 rigid bodies with 1001 atoms

fix add slider1 addforce 0 0 ${Fn} every 1                                    # Add force to top layer
fix add slider1 addforce 0 0 -1000 every 1                                    

timestep ${dt}
timestep 1e-05

# fix  nve_1 slider1 nve

dump 		D1 all custom 100000 Equi_${num}_*.dump id type diameter mass xu yu zu
dump 		D1 all custom 100000 Equi_99_*.dump id type diameter mass xu yu zu
dump_modify D1 format 5 %.18g
dump_modify D1 format 7 %.18g

run 3000000
Generated 0 of 1 mixed pair_coeff terms from geometric mixing rule
Neighbor list info ...
  update every 1 steps, delay 0 steps, check yes
  max neighbors/atom: 2000, page size: 100000
  master list distance cutoff = 4.09
  ghost atom cutoff = 4.09
  binsize = 2.045, bins = 3112 98 98
  1 neighbor lists, perpetual/occasional/extra = 1 0 0
  (1) pair granular, perpetual
      attributes: half, newton on, size, history
      pair build: half/size/bin/newton
      stencil: half/bin/3d
      bin: standard
Per MPI rank memory allocation (min/avg/max) = 44.47 | 44.48 | 44.48 Mbytes
   Step           Lx             Ly             Lz           Press           Pxx            Pyy            Pzz           KinEng         PotEng          Temp          c_1[1]         c_1[2]         c_1[3]    
         0   6363.961       200            200            0              0              0              0              0              0              0              1.1965779e-13  0              6            
    100000   6363.961       200            200           -0.00028381701 -1.7770506e-34  0             -0.00085145104  562259.98      0              5.4299045e+10  1.1965779e-13  0              3.5839574    
    200000   6363.961       200            200           -0.00024752027 -3.8079729e-35  0             -0.00074256081  14337.299      0              1.3845938e+09  1.1965779e-13  0              3.6417996    
    300000   6363.961       200            200            7.6093303e-05  1.0154852e-34  0              0.00022827991  1015.0837      0              98029521       1.1965779e-13  0              3.5313763    
    400000   6363.961       200            200            0.00010692632 -1.1423917e-34  0              0.00032077895  1983.7972      0              1.9158093e+08  1.1965779e-13  0              3.4981704    
    500000   6363.961       200            200            0.00058908717 -0.00064857355  0              0.002415835    10.125959      0              977892.62      1.1965779e-13  0              3.493117     
    600000   6363.961       200            200            0.0035920052  -0.0026472137   0              0.013423229    164.28848      0              15865805       1.1965779e-13  0              3.4905636    
    700000   6363.961       200            200            0.0038826948  -0.0024038168   0              0.014051901    21.40025       0              2066683        1.1965779e-13  0              3.4904696    
    800000   6363.961       200            200            0.0037975468  -0.0024577067   0              0.013850347    2.8700397      0              277167.89      1.1965779e-13  0              3.4905057    
    900000   6363.961       200            200            0.0037732948  -0.0024509673   0              0.013770852    0.38693262     0              37367.183      1.1965779e-13  0              3.4905199    
   1000000   6363.961       200            200            0.0037643504  -0.0024500103   0              0.013743061    0.051997655    0              5021.5613      1.1965779e-13  0              3.4905249    
   1100000   6363.961       200            200            0.0037609096  -0.0024496477   0              0.013732376    0.0069893915   0              674.98541      1.1965779e-13  0              3.4905268    
   1200000   6363.961       200            200            0.0037595749  -0.002449502    0              0.013728227    0.00094166692  0              90.939451      1.1965779e-13  0              3.4905276    
   1300000   6363.961       200            200            0.0037590819  -0.0024494453   0              0.013726691    0.00012692432  0              12.257442      1.1965779e-13  0              3.4905279    
   1400000   6363.961       200            200            0.0037588999  -0.0024494275   0              0.013726127    1.7109969e-05  0              1.6523584      1.1965779e-13  0              3.490528     
   1500000   6363.961       200            200            0.0037588332  -0.002449421    0              0.013725921    2.3065392e-06  0              0.22274904     1.1965779e-13  0              3.490528     
   1600000   6363.961       200            200            0.0037588088  -0.0024494186   0              0.013725845    3.109386e-07   0              0.030028224    1.1965779e-13  0              3.490528     
   1700000   6363.961       200            200            0.0037587998  -0.0024494177   0              0.013725817    4.1916873e-08  0              0.0040480315   1.1965779e-13  0              3.490528     
   1800000   6363.961       200            200            0.0037587965  -0.0024494174   0              0.013725807    5.6506321e-09  0              0.0005456976   1.1965779e-13  0              3.490528     
   1900000   6363.961       200            200            0.0037587953  -0.0024494173   0              0.013725803    7.6176623e-10  0              7.356593e-05   1.1965779e-13  0              3.490528     
   2000000   6363.961       200            200            0.0037587949  -0.0024494172   0              0.013725802    1.0269678e-10  0              9.9177195e-06  1.1965779e-13  0              3.490528     
   2100000   6363.961       200            200            0.0037587947  -0.0024494172   0              0.013725801    1.3846221e-11  0              1.3371689e-06  1.1965779e-13  0              3.490528     
   2200000   6363.961       200            200            0.0037587947  -0.0024494172   0              0.013725801    1.8664374e-12  0              1.8024717e-07  1.1965779e-13  0              3.490528     
   2300000   6363.961       200            200            0.0037587947  -0.0024494172   0              0.013725801    2.516509e-13   0              2.4302643e-08  1.1965779e-13  0              3.490528     
   2400000   6363.961       200            200            0.0037587947  -0.0024494172   0              0.013725801    3.4014986e-14  0              3.2849239e-09  1.1965779e-13  0              3.490528     
   2500000   6363.961       200            200            0.0037587947  -0.0024494172   0              0.013725801    4.5725678e-15  0              4.4158587e-10  1.1965779e-13  0              3.490528     
   2600000   6363.961       200            200            0.0037587946  -0.0024494172   0              0.013725801    6.2586911e-16  0              6.0441959e-11  1.1965779e-13  0              3.490528     
   2700000   6363.961       200            200            0.0037587946  -0.0024494172   0              0.013725801    7.8319971e-17  0              7.5635823e-12  1.1965779e-13  0              3.490528     
   2800000   6363.961       200            200            0.0037587946  -0.0024494172   0              0.013725801    2.3312693e-19  0              2.251373e-14   1.1965779e-13  0              3.490528     
   2900000   6363.961       200            200            0.0037587946  -0.0024494172   0              0.013725801    5.2669091e-19  0              5.0864038e-14  1.1965779e-13  0              3.490528     
   3000000   6363.961       200            200            0.0037587947  -0.0024494172   0              0.013725801    7.9815195e-23  0              7.7079803e-18  1.1965779e-13  0              3.490528     
Loop time of 283.471 on 4 procs for 3000000 steps with 2501 atoms

Performance: 9143787.000 ns/day, 0.000 hours/ns, 10583.087 timesteps/s
100.0% CPU use with 4 MPI tasks x 1 OpenMP threads

MPI task timing breakdown:
Section |  min time  |  avg time  |  max time  |%varavg| %total
---------------------------------------------------------------
Pair    | 10.959     | 38.233     | 65.874     | 437.6 | 13.49
Neigh   | 1.3551     | 1.3696     | 1.3842     |   0.9 |  0.48
Comm    | 11.917     | 16.954     | 21.27      |  93.5 |  5.98
Output  | 0.23718    | 0.23751    | 0.23787    |   0.1 |  0.08
Modify  | 166.93     | 171.54     | 176.94     |  31.1 | 60.52
Other   |            | 55.13      |            |       | 19.45

Nlocal:         625.25 ave         877 max         374 min
Histogram: 2 0 0 0 0 0 0 0 0 2
Nghost:           1.75 ave           3 max           1 min
Histogram: 2 0 0 0 0 1 0 0 0 1
Neighs:         347.75 ave         696 max           0 min
Histogram: 2 0 0 0 0 0 0 0 0 2

Total # of neighbors = 1391
Ave neighs/atom = 0.55617753
Neighbor list builds = 146
Dangerous builds = 0

undump D1

############ Add spring between top chain to supp particle and then equilibrium  ###########

#fix sp1 support spring couple slider1 ${K0} ${lenspr} NULL NULL 0                                 # Add spring

#dump 		D2 all custom 100000 add_${num}*.dump id type diameter mass xu yu zu

#fix add1 all print 10 "${p0} ${distance} ${slider_z}" file add_distance_${num}.txt screen no      # out put step, distance(spring length), z-position of top chain

#run 1000000

#undump D2

#unfix add1

########## Pulling the supporting particle with constant velocity #############

#fix m1 support move linear 0.1 0 0 units box                                                      # apply constant velocity to supporting particles along x-direction V=0.1m/s

#fix move1 all print 100 "${p0} ${distance} ${slider_z}" file move_distance_${num}.txt screen no

#dump 		1 all custom 50000 move_${num}_*.dump id type diameter mass xu yu zu

#run 1000000

clear
  using 1 OpenMP thread(s) per MPI task

next num

jump SELF startloop
Total wall time: 7:57:49
