LAMMPS (23 Jun 2022 - Update 1)
  using 1 OpenMP thread(s) per MPI task
Lattice spacing in x,y,z = 4.2426407 4.2426407 4.2426407
Created orthogonal box = (-6363.961 -100 -100) to (6363.961 100 100)
  4 by 1 by 1 MPI processor grid
Created 3000 atoms
  using lattice units in orthogonal box = (-6363.961 -100 -100) to (6363.961 100 100)
  create_atoms CPU = 0.001 seconds
Lattice spacing in x,y,z = 3 3 3
Created 2001 atoms
  using lattice units in orthogonal box = (-6363.961 -100 -100) to (6363.961 100 100)
  create_atoms CPU = 0.003 seconds
Setting atom values ...
  3000 settings made for diameter
Setting atom values ...
  3000 settings made for mass
Setting atom values ...
  2001 settings made for diameter
Setting atom values ...
  2001 settings made for mass
3000 atoms in group substrate
2001 atoms in group slider1
5001 atoms in group substrate_slider
  1 rigid bodies with 2001 atoms
Generated 0 of 1 mixed pair_coeff terms from geometric mixing rule
Neighbor list info ...
  update every 1 steps, delay 0 steps, check yes
  max neighbors/atom: 2000, page size: 100000
  master list distance cutoff = 4.1
  ghost atom cutoff = 4.1
  binsize = 2.05, bins = 6209 98 98
  1 neighbor lists, perpetual/occasional/extra = 1 0 0
  (1) pair granular, perpetual
      attributes: half, newton on, size, history
      pair build: half/size/bin/newton
      stencil: half/bin/3d
      bin: standard
Setting up Verlet run ...
  Unit style    : micro
  Current step  : 0
  Time step     : 1e-05
Per MPI rank memory allocation (min/avg/max) = 75.89 | 75.9 | 75.91 Mbytes
   Step           Lx             Ly             Lz           Press           Pxx            Pyy            Pzz           KinEng         PotEng          Temp          c_1[1]         c_1[2]         c_1[3]    
         0   12727.922      200            200            0              0              0              0              0              0              0              1.1971759e-13  0              6            
    100000   12727.922      200            200           -0.00029768503 -3.8079733e-35  0             -0.0008930551   1107025.7      0              5.3454311e+10  1.1971759e-13  0              3.5944689    
    200000   12727.922      200            200           -0.00023602845 -2.5386368e-35  0             -0.00070808536  25548.038      0              1.2336233e+09  1.1971759e-13  0              3.6481044    
    300000   12727.922      200            200            9.8286367e-05  1.9039886e-35  0              0.0002948591   3314.4011      0              1.6004057e+08  1.1971759e-13  0              3.5356887    
    400000   12727.922      200            200            0.00014099218  2.5386561e-35  0              0.00042297655  6690.1519      0              3.2304349e+08  1.1971759e-13  0              3.5017699    
    500000   12727.922      200            200            0.001130866    3.2845641e-06  0              0.0033893135   494.75017      0              23889715       1.1971759e-13  0              3.4978153    
    600000   12727.922      200            200            0.0031159368   0.00029570074  0              0.0090521096   30.627863      0              1478909.9      1.1971759e-13  0              3.4963629    
    700000   12727.922      200            200            0.0040736264   0.00032972655  0              0.011891153    0.97829179     0              47238.21       1.1971759e-13  0              3.4958398    
    800000   12727.922      200            200            0.0045530196   0.00039593374  0              0.013263125    3.0629529      0              147899.04      1.1971759e-13  0              3.4956074    
    900000   12727.922      200            200            0.0047023051   0.00038237281  0              0.013724542    0.77751704     0              37543.515      1.1971759e-13  0              3.495531     
   1000000   12727.922      200            200            0.0047257981   0.0003822455   0              0.013795149    0.067823769    0              3274.9671      1.1971759e-13  0              3.4955191    
   1100000   12727.922      200            200            0.0047182011   0.0003823766   0              0.013772227    0.00074421979  0              35.93571       1.1971759e-13  0              3.4955226    
   1200000   12727.922      200            200            0.0047107704   0.0003825074   0              0.013749804    0.00038907668  0              18.78712       1.1971759e-13  0              3.4955262    
   1300000   12727.922      200            200            0.0047076342   0.00038255559  0              0.013740347    0.00021564883  0              10.41291       1.1971759e-13  0              3.4955278    
   1400000   12727.922      200            200            0.0047068794   0.00038256742  0              0.013738071    3.0904543e-05  0              1.4922698      1.1971759e-13  0              3.4955281    
   1500000   12727.922      200            200            0.0047068785   0.00038256756  0              0.013738068    1.2895819e-06  0              0.062269297    1.1971759e-13  0              3.4955281    
   1600000   12727.922      200            200            0.0047069793   0.00038256605  0              0.013738372    1.2453823e-08  0              0.00060135053  1.1971759e-13  0              3.4955281    
   1700000   12727.922      200            200            0.0047070358   0.00038256518  0              0.013738542    4.6139394e-08  0              0.0022279062   1.1971759e-13  0              3.4955281    
   1800000   12727.922      200            200            0.0047070538   0.0003825649   0              0.013738597    1.1037952e-08  0              0.00053298317  1.1971759e-13  0              3.4955281    
   1900000   12727.922      200            200            0.0047070563   0.00038256486  0              0.013738604    8.9279579e-10  0              4.3109913e-05  1.1971759e-13  0              3.4955281    
   2000000   12727.922      200            200            0.0047070553   0.00038256488  0              0.013738601    6.7336806e-12  0              3.2514534e-07  1.1971759e-13  0              3.4955281    
   2100000   12727.922      200            200            0.0047070544   0.00038256489  0              0.013738598    6.557726e-12   0              3.1664912e-07  1.1971759e-13  0              3.4955281    
   2200000   12727.922      200            200            0.004707054    0.0003825649   0              0.013738597    3.1655361e-12  0              1.5285241e-07  1.1971759e-13  0              3.4955281    
   2300000   12727.922      200            200            0.0047070539   0.0003825649   0              0.013738597    4.232685e-13   0              2.0438121e-08  1.1971759e-13  0              3.4955281    
   2400000   12727.922      200            200            0.0047070539   0.0003825649   0              0.013738597    1.6016606e-14  0              7.7338458e-10  1.1971759e-13  0              3.4955281    
   2500000   12727.922      200            200            0.0047070539   0.0003825649   0              0.013738597    2.4886502e-16  0              1.2016801e-11  1.1971759e-13  0              3.4955281    
   2600000   12727.922      200            200            0.0047070539   0.0003825649   0              0.013738597    6.8421115e-16  0              3.3038108e-11  1.1971759e-13  0              3.4955281    
   2700000   12727.922      200            200            0.0047070539   0.0003825649   0              0.013738597    1.0085521e-16  0              4.8699372e-12  1.1971759e-13  0              3.4955281    
   2800000   12727.922      200            200            0.0047070539   0.0003825649   0              0.013738597    1.062315e-17   0              5.1295391e-13  1.1971759e-13  0              3.4955281    
   2900000   12727.922      200            200            0.0047070539   0.0003825649   0              0.013738597    6.5440875e-19  0              3.1599057e-14  1.1971759e-13  0              3.4955281    
   3000000   12727.922      200            200            0.0047070539   0.0003825649   0              0.013738597    1.0149977e-17  0              4.9010608e-13  1.1971759e-13  0              3.4955281    
Loop time of 558.389 on 4 procs for 3000000 steps with 5001 atoms

Performance: 4641924.836 ns/day, 0.000 hours/ns, 5372.598 timesteps/s
100.0% CPU use with 4 MPI tasks x 1 OpenMP threads

MPI task timing breakdown:
Section |  min time  |  avg time  |  max time  |%varavg| %total
---------------------------------------------------------------
Pair    | 23.572     | 82.547     | 141.71     | 642.7 | 14.78
Neigh   | 2.7442     | 2.782      | 2.8153     |   1.5 |  0.50
Comm    | 15.138     | 20.73      | 24.911     |  83.4 |  3.71
Output  | 0.38972    | 0.39043    | 0.39118    |   0.1 |  0.07
Modify  | 334.6      | 345.07     | 355.75     |  52.5 | 61.80
Other   |            | 106.9      |            |       | 19.14

Nlocal:        1250.25 ave        1752 max         749 min
Histogram: 2 0 0 0 0 0 0 0 0 2
Nghost:           1.75 ave           3 max           1 min
Histogram: 2 0 0 0 0 1 0 0 0 1
Neighs:         700.25 ave        1401 max           0 min
Histogram: 2 0 0 0 0 0 0 0 0 2

Total # of neighbors = 2801
Ave neighs/atom = 0.56008798
Neighbor list builds = 146
Dangerous builds = 0
  using 1 OpenMP thread(s) per MPI task
Lattice spacing in x,y,z = 4.2426407 4.2426407 4.2426407
Created orthogonal box = (-6363.961 -100 -100) to (6363.961 100 100)
  4 by 1 by 1 MPI processor grid
Created 3000 atoms
  using lattice units in orthogonal box = (-6363.961 -100 -100) to (6363.961 100 100)
  create_atoms CPU = 0.001 seconds
Lattice spacing in x,y,z = 3 3 3
Created 2001 atoms
  using lattice units in orthogonal box = (-6363.961 -100 -100) to (6363.961 100 100)
  create_atoms CPU = 0.001 seconds
Setting atom values ...
  3000 settings made for diameter
Setting atom values ...
  3000 settings made for mass
Setting atom values ...
  2001 settings made for diameter
Setting atom values ...
  2001 settings made for mass
3000 atoms in group substrate
2001 atoms in group slider1
5001 atoms in group substrate_slider
  1 rigid bodies with 2001 atoms
Generated 0 of 1 mixed pair_coeff terms from geometric mixing rule
Neighbor list info ...
  update every 1 steps, delay 0 steps, check yes
  max neighbors/atom: 2000, page size: 100000
  master list distance cutoff = 4.11
  ghost atom cutoff = 4.11
  binsize = 2.055, bins = 6194 98 98
  1 neighbor lists, perpetual/occasional/extra = 1 0 0
  (1) pair granular, perpetual
      attributes: half, newton on, size, history
      pair build: half/size/bin/newton
      stencil: half/bin/3d
      bin: standard
Setting up Verlet run ...
  Unit style    : micro
  Current step  : 0
  Time step     : 1e-05
Per MPI rank memory allocation (min/avg/max) = 75.71 | 75.72 | 75.73 Mbytes
   Step           Lx             Ly             Lz           Press           Pxx            Pyy            Pzz           KinEng         PotEng          Temp          c_1[1]         c_1[2]         c_1[3]    
         0   12727.922      200            200            0              0              0              0              0              0              0              1.1971759e-13  0              6            
    100000   12727.922      200            200           -0.00031017098 -1.0154451e-34  0             -0.00093051295  1092175.2      0              5.2737234e+10  1.1971759e-13  0              3.6044069    
    200000   12727.922      200            200           -0.00022719884 -3.0463764e-34  0             -0.00068159652  23283.072      0              1.1242562e+09  1.1971759e-13  0              3.6541008    
    300000   12727.922      200            200            0.00011230543 -1.2693223e-35  0              0.00033691628  4265.1311      0              2.0594792e+08  1.1971759e-13  0              3.5401971    
    400000   12727.922      200            200            0.00015656896  1.0154621e-34  0              0.00046970688  8126.891       0              3.9241848e+08  1.1971759e-13  0              3.506032     
    500000   12727.922      200            200            0.001400148   -1.9523196e-05  0              0.0042199672   857.55436      0              41408231       1.1971759e-13  0              3.502568     
    600000   12727.922      200            200            0.0030476936   0.00026449034  0              0.0088785903   2.4506371      0              118332.49      1.1971759e-13  0              3.5014065    
    700000   12727.922      200            200            0.0041294746   0.00033423174  0              0.012054192    7.265733       0              350836.24      1.1971759e-13  0              3.5008185    
    800000   12727.922      200            200            0.0046189181   0.00039443335  0              0.013462321    4.7244372      0              228126.16      1.1971759e-13  0              3.5005808    
    900000   12727.922      200            200            0.0047410345   0.00038943678  0              0.013833667    0.71512783     0              34530.964      1.1971759e-13  0              3.5005193    
   1000000   12727.922      200            200            0.0047417917   0.00038599759  0              0.013839378    0.027816716    0              1343.1696      1.1971759e-13  0              3.5005179    
   1100000   12727.922      200            200            0.0047260965   0.00038628123  0              0.013792008    0.00055863436  0              26.974454      1.1971759e-13  0              3.5005254    
   1200000   12727.922      200            200            0.0047173386   0.0003864323   0              0.013765584    0.0012351012   0              59.638617      1.1971759e-13  0              3.5005296    
   1300000   12727.922      200            200            0.0047147184   0.0003864727   0              0.013757682    0.00024925535  0              12.035649      1.1971759e-13  0              3.5005309    
   1400000   12727.922      200            200            0.0047144806   0.00038647666  0              0.013756965    1.4440067e-05  0              0.69725914     1.1971759e-13  0              3.5005311    
   1500000   12727.922      200            200            0.004714704    0.00038647336  0              0.013757639    4.7938783e-09  0              0.00023147923  1.1971759e-13  0              3.500531     
   1600000   12727.922      200            200            0.0047148565   0.00038647104  0              0.013758098    2.9969118e-07  0              0.014471014    1.1971759e-13  0              3.5005309    
   1700000   12727.922      200            200            0.0047149087   0.00038647024  0              0.013758256    8.1813974e-08  0              0.003950504    1.1971759e-13  0              3.5005309    
   1800000   12727.922      200            200            0.0047149165   0.00038647011  0              0.013758279    6.5319834e-09  0              0.0003154061   1.1971759e-13  0              3.5005309    
   1900000   12727.922      200            200            0.0047149136   0.00038647015  0              0.013758271    2.7090796e-11  0              1.3081176e-06  1.1971759e-13  0              3.5005309    
   2000000   12727.922      200            200            0.0047149111   0.00038647019  0              0.013758263    6.4653524e-11  0              3.1218873e-06  1.1971759e-13  0              3.5005309    
   2100000   12727.922      200            200            0.00471491     0.00038647021  0              0.01375826     2.5364555e-11  0              1.2247636e-06  1.1971759e-13  0              3.5005309    
   2200000   12727.922      200            200            0.0047149099   0.00038647021  0              0.013758259    2.6826826e-12  0              1.2953714e-07  1.1971759e-13  0              3.5005309    
   2300000   12727.922      200            200            0.0047149099   0.00038647021  0              0.013758259    4.3411934e-14  0              2.0962069e-09  1.1971759e-13  0              3.5005309    
   2400000   12727.922      200            200            0.0047149099   0.00038647021  0              0.01375826     1.1856211e-14  0              5.7249401e-10  1.1971759e-13  0              3.5005309    
   2500000   12727.922      200            200            0.0047149099   0.00038647021  0              0.01375826     7.3347258e-15  0              3.5416766e-10  1.1971759e-13  0              3.5005309    
   2600000   12727.922      200            200            0.0047149099   0.00038647021  0              0.01375826     1.0597919e-15  0              5.1173559e-11  1.1971759e-13  0              3.5005309    
   2700000   12727.922      200            200            0.0047149099   0.00038647021  0              0.01375826     1.1246823e-18  0              5.4306885e-14  1.1971759e-13  0              3.5005309    
   2800000   12727.922      200            200            0.0047149099   0.00038647021  0              0.01375826     1.5707898e-17  0              7.5847817e-13  1.1971759e-13  0              3.5005309    
   2900000   12727.922      200            200            0.0047149099   0.00038647021  0              0.01375826     7.8541787e-19  0              3.7925018e-14  1.1971759e-13  0              3.5005309    
   3000000   12727.922      200            200            0.0047149099   0.00038647021  0              0.01375826     2.7790823e-18  0              1.3419194e-13  1.1971759e-13  0              3.5005309    
Loop time of 548.864 on 4 procs for 3000000 steps with 5001 atoms

Performance: 4722478.657 ns/day, 0.000 hours/ns, 5465.832 timesteps/s
100.0% CPU use with 4 MPI tasks x 1 OpenMP threads

MPI task timing breakdown:
Section |  min time  |  avg time  |  max time  |%varavg| %total
---------------------------------------------------------------
Pair    | 23.298     | 81.574     | 140.58     | 644.9 | 14.86
Neigh   | 2.7562     | 2.795      | 2.8332     |   1.6 |  0.51
Comm    | 15.014     | 20.21      | 26.237     |  93.2 |  3.68
Output  | 0.39223    | 0.39294    | 0.39371    |   0.1 |  0.07
Modify  | 329.34     | 338.33     | 346.77     |  44.8 | 61.64
Other   |            | 105.6      |            |       | 19.23

Nlocal:        1250.25 ave        1752 max         749 min
Histogram: 2 0 0 0 0 0 0 0 0 2
Nghost:           1.75 ave           3 max           1 min
Histogram: 2 0 0 0 0 1 0 0 0 1
Neighs:         704.75 ave        1410 max           0 min
Histogram: 2 0 0 0 0 0 0 0 0 2

Total # of neighbors = 2819
Ave neighs/atom = 0.56368726
Neighbor list builds = 148
Dangerous builds = 0
  using 1 OpenMP thread(s) per MPI task
Lattice spacing in x,y,z = 4.2426407 4.2426407 4.2426407
Created orthogonal box = (-6363.961 -100 -100) to (6363.961 100 100)
  4 by 1 by 1 MPI processor grid
Created 3000 atoms
  using lattice units in orthogonal box = (-6363.961 -100 -100) to (6363.961 100 100)
  create_atoms CPU = 0.001 seconds
Lattice spacing in x,y,z = 3 3 3
Created 2001 atoms
  using lattice units in orthogonal box = (-6363.961 -100 -100) to (6363.961 100 100)
  create_atoms CPU = 0.001 seconds
Setting atom values ...
  3000 settings made for diameter
Setting atom values ...
  3000 settings made for mass
Setting atom values ...
  2001 settings made for diameter
Setting atom values ...
  2001 settings made for mass
3000 atoms in group substrate
2001 atoms in group slider1
5001 atoms in group substrate_slider
  1 rigid bodies with 2001 atoms
Generated 0 of 1 mixed pair_coeff terms from geometric mixing rule
Neighbor list info ...
  update every 1 steps, delay 0 steps, check yes
  max neighbors/atom: 2000, page size: 100000
  master list distance cutoff = 4.12
  ghost atom cutoff = 4.12
  binsize = 2.06, bins = 6179 98 98
  1 neighbor lists, perpetual/occasional/extra = 1 0 0
  (1) pair granular, perpetual
      attributes: half, newton on, size, history
      pair build: half/size/bin/newton
      stencil: half/bin/3d
      bin: standard
Setting up Verlet run ...
  Unit style    : micro
  Current step  : 0
  Time step     : 1e-05
Per MPI rank memory allocation (min/avg/max) = 75.57 | 75.58 | 75.59 Mbytes
   Step           Lx             Ly             Lz           Press           Pxx            Pyy            Pzz           KinEng         PotEng          Temp          c_1[1]         c_1[2]         c_1[3]    
         0   12727.922      200            200            0              0              0              0              0              0              0              1.1971759e-13  0              6            
    100000   12727.922      200            200           -0.00032244125 -1.0154467e-34  0             -0.00096732376  1077433.9      0              5.2025428e+10  1.1971759e-13  0              3.614314     
    200000   12727.922      200            200           -0.00021819698  1.0154638e-34  0             -0.00065459094  21125.176      0              1.0200592e+09  1.1971759e-13  0              3.6600486    
    300000   12727.922      200            200            0.00012649472  2.0309294e-34  0              0.00037948417  5334.2552      0              2.5757209e+08  1.1971759e-13  0              3.5446434    
    400000   12727.922      200            200            0.00017233508  2.5386589e-35  0              0.00051700525  9700.8527      0              4.6841946e+08  1.1971759e-13  0              3.5102209    
    500000   12727.922      200            200            0.0018037608   3.0751704e-05  0              0.0053805308   1270.3831      0              61342253       1.1971759e-13  0              3.5072552    
    600000   12727.922      200            200            0.0030667367   0.00026771621  0              0.008932494    6.095772       0              294343.01      1.1971759e-13  0              3.5064044    
    700000   12727.922      200            200            0.0042258247   0.00033594838  0              0.012341526    17.680685      0              853737.01      1.1971759e-13  0              3.5057759    
    800000   12727.922      200            200            0.0046927994   0.00038659324  0              0.013691805    5.6871456      0              274611.91      1.1971759e-13  0              3.5055495    
    900000   12727.922      200            200            0.0047750429   0.00039129423  0              0.013933834    0.49793049     0              24043.282      1.1971759e-13  0              3.5055091    
   1000000   12727.922      200            200            0.0047527598   0.0003870245   0              0.013871255    0.0023170617   0              111.88262      1.1971759e-13  0              3.5055186    
   1100000   12727.922      200            200            0.0047310047   0.00038742754  0              0.013805586    0.0048865854   0              235.95572      1.1971759e-13  0              3.5055291    
   1200000   12727.922      200            200            0.0047224533   0.0003875771   0              0.013779783    0.0018317326   0              88.447814      1.1971759e-13  0              3.5055333    
   1300000   12727.922      200            200            0.0047209263   0.00038760176  0              0.013775177    0.00016541231  0              7.9871684      1.1971759e-13  0              3.5055341    
   1400000   12727.922      200            200            0.0047212808   0.00038759656  0              0.013776246    8.8165039e-07  0              0.042571742    1.1971759e-13  0              3.5055339    
   1500000   12727.922      200            200            0.00472167     0.00038759055  0              0.01377742     1.5338316e-06  0              0.074063241    1.1971759e-13  0              3.5055337    
   1600000   12727.922      200            200            0.0047218247   0.00038758812  0              0.013777886    5.9233854e-07  0              0.028601908    1.1971759e-13  0              3.5055337    
   1700000   12727.922      200            200            0.0047218529   0.00038758767  0              0.013777971    5.4619053e-08  0              0.0026373586   1.1971759e-13  0              3.5055336    
   1800000   12727.922      200            200            0.0047218467   0.00038758776  0              0.013777952    3.2906149e-10  0              1.5889202e-05  1.1971759e-13  0              3.5055336    
   1900000   12727.922      200            200            0.0047218398   0.00038758786  0              0.013777931    4.815298e-10   0              2.3251351e-05  1.1971759e-13  0              3.5055337    
   2000000   12727.922      200            200            0.004721837    0.00038758791  0              0.013777923    1.914895e-10   0              9.2463425e-06  1.1971759e-13  0              3.5055337    
   2100000   12727.922      200            200            0.0047218364   0.00038758792  0              0.013777921    1.8022337e-11  0              8.7023417e-07  1.1971759e-13  0              3.5055337    
   2200000   12727.922      200            200            0.0047218366   0.00038758791  0              0.013777922    1.21247e-13    0              5.8545835e-09  1.1971759e-13  0              3.5055337    
   2300000   12727.922      200            200            0.0047218367   0.00038758791  0              0.013777922    1.5118442e-13  0              7.3001546e-09  1.1971759e-13  0              3.5055337    
   2400000   12727.922      200            200            0.0047218367   0.00038758791  0              0.013777922    6.2052237e-14  0              2.9962804e-09  1.1971759e-13  0              3.5055337    
   2500000   12727.922      200            200            0.0047218367   0.00038758791  0              0.013777922    5.7326468e-15  0              2.76809e-10    1.1971759e-13  0              3.5055337    
   2600000   12727.922      200            200            0.0047218367   0.00038758791  0              0.013777922    4.1955086e-17  0              2.025861e-12   1.1971759e-13  0              3.5055337    
   2700000   12727.922      200            200            0.0047218367   0.00038758791  0              0.013777922    1.273742e-16   0              6.1504443e-12  1.1971759e-13  0              3.5055337    
   2800000   12727.922      200            200            0.0047218367   0.00038758791  0              0.013777922    3.5228846e-21  0              1.7010749e-16  1.1971759e-13  0              3.5055337    
   2900000   12727.922      200            200            0.0047218367   0.00038758791  0              0.013777922    1.2322755e-18  0              5.9502173e-14  1.1971759e-13  0              3.5055337    
   3000000   12727.922      200            200            0.0047218367   0.00038758791  0              0.013777922    4.7433723e-18  0              2.2904047e-13  1.1971759e-13  0              3.5055337    
Loop time of 554.284 on 4 procs for 3000000 steps with 5001 atoms

Performance: 4676299.941 ns/day, 0.000 hours/ns, 5412.384 timesteps/s
100.0% CPU use with 4 MPI tasks x 1 OpenMP threads

MPI task timing breakdown:
Section |  min time  |  avg time  |  max time  |%varavg| %total
---------------------------------------------------------------
Pair    | 22.841     | 80.86      | 140.83     | 643.8 | 14.59
Neigh   | 2.8419     | 2.8834     | 2.9227     |   1.7 |  0.52
Comm    | 15.062     | 21.912     | 28.423     | 123.0 |  3.95
Output  | 0.39122    | 0.39188    | 0.39258    |   0.1 |  0.07
Modify  | 334.34     | 342.66     | 350.33     |  39.4 | 61.82
Other   |            | 105.6      |            |       | 19.05

Nlocal:        1250.25 ave        1751 max         749 min
Histogram: 2 0 0 0 0 0 0 0 0 2
Nghost:           1.75 ave           2 max           1 min
Histogram: 1 0 0 0 0 0 0 0 0 3
Neighs:         710.25 ave        1421 max           0 min
Histogram: 2 0 0 0 0 0 0 0 0 2

Total # of neighbors = 2841
Ave neighs/atom = 0.56808638
Neighbor list builds = 152
Dangerous builds = 0
  using 1 OpenMP thread(s) per MPI task
Lattice spacing in x,y,z = 4.2426407 4.2426407 4.2426407
Created orthogonal box = (-6363.961 -100 -100) to (6363.961 100 100)
  4 by 1 by 1 MPI processor grid
Created 3000 atoms
  using lattice units in orthogonal box = (-6363.961 -100 -100) to (6363.961 100 100)
  create_atoms CPU = 0.001 seconds
Lattice spacing in x,y,z = 3 3 3
Created 2001 atoms
  using lattice units in orthogonal box = (-6363.961 -100 -100) to (6363.961 100 100)
  create_atoms CPU = 0.001 seconds
Setting atom values ...
  3000 settings made for diameter
Setting atom values ...
  3000 settings made for mass
Setting atom values ...
  2001 settings made for diameter
Setting atom values ...
  2001 settings made for mass
3000 atoms in group substrate
2001 atoms in group slider1
5001 atoms in group substrate_slider
  1 rigid bodies with 2001 atoms
Generated 0 of 1 mixed pair_coeff terms from geometric mixing rule
Neighbor list info ...
  update every 1 steps, delay 0 steps, check yes
  max neighbors/atom: 2000, page size: 100000
  master list distance cutoff = 4.13
  ghost atom cutoff = 4.13
  binsize = 2.065, bins = 6164 97 97
  1 neighbor lists, perpetual/occasional/extra = 1 0 0
  (1) pair granular, perpetual
      attributes: half, newton on, size, history
      pair build: half/size/bin/newton
      stencil: half/bin/3d
      bin: standard
Setting up Verlet run ...
  Unit style    : micro
  Current step  : 0
  Time step     : 1e-05
Per MPI rank memory allocation (min/avg/max) = 74.19 | 74.21 | 74.22 Mbytes
   Step           Lx             Ly             Lz           Press           Pxx            Pyy            Pzz           KinEng         PotEng          Temp          c_1[1]         c_1[2]         c_1[3]    
         0   12727.922      200            200            0              0              0              0              0              0              0              1.1971759e-13  0              6            
    100000   12727.922      200            200           -0.00033449639  1.2693278e-35  0             -0.0010034892   1062801.6      0              5.1318888e+10  1.1971759e-13  0              3.62419      
    200000   12727.922      200            200           -0.00020902385  2.0309276e-34  0             -0.00062707156  19074.071      0              9.2101864e+08  1.1971759e-13  0              3.6659478    
    300000   12727.922      200            200            0.00014085287 -9.1391388e-34  0              0.0004225586   6521.3415      0              3.1489224e+08  1.1971759e-13  0              3.5490276    
    400000   12727.922      200            200            0.0002852674  -9.676341e-06   0              0.00086547855  11401.657      0              5.5054521e+08  1.1971759e-13  0              3.5143366    
    500000   12727.922      200            200            0.0022883408  -5.8643303e-05  0              0.0069236658   1686.4945      0              81434782       1.1971759e-13  0              3.5118845    
    600000   12727.922      200            200            0.0031595819   0.00026461631  0              0.0092141295   40.717037      0              1966080        1.1971759e-13  0              3.5113569    
    700000   12727.922      200            200            0.004363441    0.00035280548  0              0.012737517    29.22261       0              1411055.3      1.1971759e-13  0              3.5107154    
    800000   12727.922      200            200            0.0047678997   0.00037198735  0              0.013931712    5.5781831      0              269350.5       1.1971759e-13  0              3.5105167    
    900000   12727.922      200            200            0.0048011631   0.00038851397  0              0.014014975    0.22943111     0              11078.407      1.1971759e-13  0              3.5105019    
   1000000   12727.922      200            200            0.0047586422   0.00038698517  0              0.013888942    0.0059777543   0              288.64436      1.1971759e-13  0              3.5105217    
   1100000   12727.922      200            200            0.00473386     0.00038745164  0              0.013814128    0.010642998    0              513.9123       1.1971759e-13  0              3.5105337    
   1200000   12727.922      200            200            0.004727058    0.00038757524  0              0.013793599    0.0016949975   0              81.845363      1.1971759e-13  0              3.5105371    
   1300000   12727.922      200            200            0.0047269835   0.00038757743  0              0.013793373    4.5131868e-05  0              2.1792564      1.1971759e-13  0              3.5105371    
   1400000   12727.922      200            200            0.00472786     0.00038756368  0              0.013796016    4.7141146e-06  0              0.22762772     1.1971759e-13  0              3.5105367    
   1500000   12727.922      200            200            0.0047283078   0.00038755653  0              0.013797367    3.9449228e-06  0              0.19048621     1.1971759e-13  0              3.5105365    
   1600000   12727.922      200            200            0.0047284138   0.00038755481  0              0.013797687    4.9071419e-07  0              0.023694832    1.1971759e-13  0              3.5105364    
   1700000   12727.922      200            200            0.0047284066   0.0003875549   0              0.013797665    6.9300621e-09  0              0.0003346279   1.1971759e-13  0              3.5105364    
   1800000   12727.922      200            200            0.0047283888   0.00038755518  0              0.013797611    2.7512774e-09  0              0.00013284934  1.1971759e-13  0              3.5105364    
   1900000   12727.922      200            200            0.0047283809   0.00038755531  0              0.013797587    1.3965813e-09  0              6.7435914e-05  1.1971759e-13  0              3.5105364    
   2000000   12727.922      200            200            0.0047283793   0.00038755534  0              0.013797583    1.3512157e-10  0              6.5245372e-06  1.1971759e-13  0              3.5105364    
   2100000   12727.922      200            200            0.0047283796   0.00038755533  0              0.013797583    6.2249338e-13  0              3.0057977e-08  1.1971759e-13  0              3.5105364    
   2200000   12727.922      200            200            0.0047283799   0.00038755533  0              0.013797584    1.359559e-12   0              6.5648238e-08  1.1971759e-13  0              3.5105364    
   2300000   12727.922      200            200            0.0047283801   0.00038755532  0              0.013797585    4.7394339e-13  0              2.288503e-08   1.1971759e-13  0              3.5105364    
   2400000   12727.922      200            200            0.0047283801   0.00038755532  0              0.013797585    3.5401023e-14  0              1.7093887e-09  1.1971759e-13  0              3.5105364    
   2500000   12727.922      200            200            0.0047283801   0.00038755532  0              0.013797585    7.091168e-19   0              3.4240712e-14  1.1971759e-13  0              3.5105364    
   2600000   12727.922      200            200            0.0047283801   0.00038755532  0              0.013797585    5.817358e-16   0              2.808994e-11   1.1971759e-13  0              3.5105364    
   2700000   12727.922      200            200            0.0047283801   0.00038755532  0              0.013797585    9.0967231e-17  0              4.392482e-12   1.1971759e-13  0              3.5105364    
   2800000   12727.922      200            200            0.0047283801   0.00038755532  0              0.013797585    1.6771752e-17  0              8.0984786e-13  1.1971759e-13  0              3.5105364    
   2900000   12727.922      200            200            0.0047283801   0.00038755532  0              0.013797585    1.0237875e-17  0              4.9435036e-13  1.1971759e-13  0              3.5105364    
   3000000   12727.922      200            200            0.0047283801   0.00038755532  0              0.013797585    4.9159736e-18  0              2.3737477e-13  1.1971759e-13  0              3.5105364    
Loop time of 542.021 on 4 procs for 3000000 steps with 5001 atoms

Performance: 4782099.414 ns/day, 0.000 hours/ns, 5534.837 timesteps/s
100.0% CPU use with 4 MPI tasks x 1 OpenMP threads

MPI task timing breakdown:
Section |  min time  |  avg time  |  max time  |%varavg| %total
---------------------------------------------------------------
Pair    | 22.844     | 78.206     | 133.62     | 624.5 | 14.43
Neigh   | 2.7307     | 2.7669     | 2.8007     |   1.5 |  0.51
Comm    | 14.943     | 20.644     | 26.219     |  97.3 |  3.81
Output  | 0.39189    | 0.39257    | 0.39333    |   0.1 |  0.07
Modify  | 323.52     | 334.78     | 346.04     |  57.5 | 61.77
Other   |            | 105.2      |            |       | 19.41

Nlocal:        1250.25 ave        1752 max         749 min
Histogram: 2 0 0 0 0 0 0 0 0 2
Nghost:           1.75 ave           3 max           1 min
Histogram: 2 0 0 0 0 1 0 0 0 1
Neighs:         663.25 ave        1327 max           0 min
Histogram: 2 0 0 0 0 0 0 0 0 2

Total # of neighbors = 2653
Ave neighs/atom = 0.5304939
Neighbor list builds = 149
Dangerous builds = 0
  using 1 OpenMP thread(s) per MPI task
Lattice spacing in x,y,z = 4.2426407 4.2426407 4.2426407
Created orthogonal box = (-6363.961 -100 -100) to (6363.961 100 100)
  4 by 1 by 1 MPI processor grid
Created 3000 atoms
  using lattice units in orthogonal box = (-6363.961 -100 -100) to (6363.961 100 100)
  create_atoms CPU = 0.001 seconds
Lattice spacing in x,y,z = 3 3 3
Created 2001 atoms
  using lattice units in orthogonal box = (-6363.961 -100 -100) to (6363.961 100 100)
  create_atoms CPU = 0.001 seconds
Setting atom values ...
  3000 settings made for diameter
Setting atom values ...
  3000 settings made for mass
Setting atom values ...
  2001 settings made for diameter
Setting atom values ...
  2001 settings made for mass
3000 atoms in group substrate
2001 atoms in group slider1
5001 atoms in group substrate_slider
  1 rigid bodies with 2001 atoms
Generated 0 of 1 mixed pair_coeff terms from geometric mixing rule
Neighbor list info ...
  update every 1 steps, delay 0 steps, check yes
  max neighbors/atom: 2000, page size: 100000
  master list distance cutoff = 4.14
  ghost atom cutoff = 4.14
  binsize = 2.07, bins = 6149 97 97
  1 neighbor lists, perpetual/occasional/extra = 1 0 0
  (1) pair granular, perpetual
      attributes: half, newton on, size, history
      pair build: half/size/bin/newton
      stencil: half/bin/3d
      bin: standard
Setting up Verlet run ...
  Unit style    : micro
  Current step  : 0
  Time step     : 1e-05
Per MPI rank memory allocation (min/avg/max) = 74.08 | 74.09 | 74.1 Mbytes
   Step           Lx             Ly             Lz           Press           Pxx            Pyy            Pzz           KinEng         PotEng          Temp          c_1[1]         c_1[2]         c_1[3]    
         0   12727.922      200            200            0              0              0              0              0              0              0              1.1971759e-13  0              6            
    100000   12727.922      200            200           -0.000346337   -1.0154575e-34  0             -0.001039011    1048278.2      0              5.0617601e+10  1.1971759e-13  0              3.6340349    
    200000   12727.922      200            200           -0.00019968032 -1.0154581e-34  0             -0.00059904095  17129.451      0              8.2711988e+08  1.1971759e-13  0              3.6717984    
    300000   12727.922      200            200            0.00015537868  1.015474e-34   0              0.00046613604  7825.9741      0              3.7788828e+08  1.1971759e-13  0              3.5533494    
    400000   12727.922      200            200            0.00080737067 -7.9454901e-06  0              0.0024300575   13111.963      0              6.3312979e+08  1.1971759e-13  0              3.5183809    
    500000   12727.922      200            200            0.0029703135   1.7421763e-05  0              0.0088935187   2049.5022      0              98963127       1.1971759e-13  0              3.5164661    
    600000   12727.922      200            200            0.0033236841   0.00024998756  0              0.0097210647   99.672181      0              4812812.9      1.1971759e-13  0              3.5162664    
    700000   12727.922      200            200            0.0045264794   0.00036012551  0              0.013219313    38.509461      0              1859484.1      1.1971759e-13  0              3.5156416    
    800000   12727.922      200            200            0.0048410978   0.00036310678  0              0.014160187    4.4330624      0              214056.72      1.1971759e-13  0              3.515486     
    900000   12727.922      200            200            0.0048184399   0.00038599544  0              0.014069324    0.037545053    0              1812.9162      1.1971759e-13  0              3.515499     
   1000000   12727.922      200            200            0.0047595281   0.00038579297  0              0.013892791    0.036306789    0              1753.1249      1.1971759e-13  0              3.5155269    
   1100000   12727.922      200            200            0.0047353213   0.00038626955  0              0.013819694    0.013818042    0              667.22382      1.1971759e-13  0              3.5155387    
   1200000   12727.922      200            200            0.0047315436   0.00038634398  0              0.013808287    0.00094501525  0              45.631404      1.1971759e-13  0              3.5155406    
   1300000   12727.922      200            200            0.0047329828   0.00038632116  0              0.013812627    1.1204525e-06  0              0.054102642    1.1971759e-13  0              3.51554      
   1400000   12727.922      200            200            0.0047341799   0.00038630155  0              0.013816238    2.1470171e-05  0              1.0367177      1.1971759e-13  0              3.5155394    
   1500000   12727.922      200            200            0.0047345599   0.00038629522  0              0.013817384    4.3111844e-06  0              0.20817166     1.1971759e-13  0              3.5155392    
   1600000   12727.922      200            200            0.0047345811   0.00038629482  0              0.013817449    1.3846155e-07  0              0.0066858126   1.1971759e-13  0              3.5155392    
   1700000   12727.922      200            200            0.0047345403   0.00038629548  0              0.013817325    1.0111695e-08  0              0.00048825757  1.1971759e-13  0              3.5155392    
   1800000   12727.922      200            200            0.0047345179   0.00038629585  0              0.013817258    9.6216437e-09  0              0.00046459474  1.1971759e-13  0              3.5155392    
   1900000   12727.922      200            200            0.0047345126   0.00038629594  0              0.013817242    1.1199606e-09  0              5.407889e-05   1.1971759e-13  0              3.5155392    
   2000000   12727.922      200            200            0.0047345131   0.00038629593  0              0.013817243    8.1557945e-12  0              3.9381413e-07  1.1971759e-13  0              3.5155392    
   2100000   12727.922      200            200            0.0047345141   0.00038629591  0              0.013817246    9.7683269e-12  0              4.7167755e-07  1.1971759e-13  0              3.5155392    
   2200000   12727.922      200            200            0.0047345145   0.00038629591  0              0.013817247    3.5338833e-12  0              1.7063858e-07  1.1971759e-13  0              3.5155392    
   2300000   12727.922      200            200            0.0047345145   0.00038629591  0              0.013817248    2.3063648e-13  0              1.113661e-08   1.1971759e-13  0              3.5155392    
   2400000   12727.922      200            200            0.0047345145   0.00038629591  0              0.013817248    4.1853745e-16  0              2.0209676e-11  1.1971759e-13  0              3.5155392    
   2500000   12727.922      200            200            0.0047345145   0.00038629591  0              0.013817248    5.4817544e-15  0              2.646943e-10   1.1971759e-13  0              3.5155392    
   2600000   12727.922      200            200            0.0047345145   0.00038629591  0              0.013817248    1.1100872e-15  0              5.3602139e-11  1.1971759e-13  0              3.5155392    
   2700000   12727.922      200            200            0.0047345145   0.00038629591  0              0.013817248    2.7679407e-18  0              1.3365395e-13  1.1971759e-13  0              3.5155392    
   2800000   12727.922      200            200            0.0047345145   0.00038629591  0              0.013817248    1.4951284e-17  0              7.2194399e-13  1.1971759e-13  0              3.5155392    
   2900000   12727.922      200            200            0.0047345145   0.00038629591  0              0.013817248    1.4152064e-20  0              6.8335255e-16  1.1971759e-13  0              3.5155392    
   3000000   12727.922      200            200            0.0047345145   0.00038629591  0              0.013817248    1.175305e-17   0              5.6751272e-13  1.1971759e-13  0              3.5155392    
Loop time of 546.631 on 4 procs for 3000000 steps with 5001 atoms

Performance: 4741771.595 ns/day, 0.000 hours/ns, 5488.162 timesteps/s
100.0% CPU use with 4 MPI tasks x 1 OpenMP threads

MPI task timing breakdown:
Section |  min time  |  avg time  |  max time  |%varavg| %total
---------------------------------------------------------------
Pair    | 23.687     | 80.421     | 139.59     | 632.8 | 14.71
Neigh   | 2.6223     | 2.656      | 2.6876     |   1.5 |  0.49
Comm    | 14.618     | 20.791     | 26.084     | 102.0 |  3.80
Output  | 0.3952     | 0.39588    | 0.3966     |   0.1 |  0.07
Modify  | 326.9      | 336.86     | 347.14     |  49.7 | 61.62
Other   |            | 105.5      |            |       | 19.30

Nlocal:        1250.25 ave        1752 max         749 min
Histogram: 2 0 0 0 0 0 0 0 0 2
Nghost:           1.75 ave           3 max           1 min
Histogram: 2 0 0 0 0 1 0 0 0 1
Neighs:         669.25 ave        1339 max           0 min
Histogram: 2 0 0 0 0 0 0 0 0 2

Total # of neighbors = 2677
Ave neighs/atom = 0.53529294
Neighbor list builds = 143
Dangerous builds = 0
  using 1 OpenMP thread(s) per MPI task
Lattice spacing in x,y,z = 4.2426407 4.2426407 4.2426407
Created orthogonal box = (-6363.961 -100 -100) to (6363.961 100 100)
  4 by 1 by 1 MPI processor grid
Created 3000 atoms
  using lattice units in orthogonal box = (-6363.961 -100 -100) to (6363.961 100 100)
  create_atoms CPU = 0.001 seconds
Lattice spacing in x,y,z = 3 3 3
Created 2001 atoms
  using lattice units in orthogonal box = (-6363.961 -100 -100) to (6363.961 100 100)
  create_atoms CPU = 0.001 seconds
Setting atom values ...
  3000 settings made for diameter
Setting atom values ...
  3000 settings made for mass
Setting atom values ...
  2001 settings made for diameter
Setting atom values ...
  2001 settings made for mass
3000 atoms in group substrate
2001 atoms in group slider1
5001 atoms in group substrate_slider
  1 rigid bodies with 2001 atoms
Generated 0 of 1 mixed pair_coeff terms from geometric mixing rule
Neighbor list info ...
  update every 1 steps, delay 0 steps, check yes
  max neighbors/atom: 2000, page size: 100000
  master list distance cutoff = 4.15
  ghost atom cutoff = 4.15
  binsize = 2.075, bins = 6134 97 97
  1 neighbor lists, perpetual/occasional/extra = 1 0 0
  (1) pair granular, perpetual
      attributes: half, newton on, size, history
      pair build: half/size/bin/newton
      stencil: half/bin/3d
      bin: standard
Setting up Verlet run ...
  Unit style    : micro
  Current step  : 0
  Time step     : 1e-05
Per MPI rank memory allocation (min/avg/max) = 73.9 | 73.91 | 73.92 Mbytes
   Step           Lx             Ly             Lz           Press           Pxx            Pyy            Pzz           KinEng         PotEng          Temp          c_1[1]         c_1[2]         c_1[3]    
         0   12727.922      200            200            0              0              0              0              0              0              0              1.1971759e-13  0              6            
    100000   12727.922      200            200           -0.00035796366  6.3466302e-36  0             -0.001073891    1033863.4      0              4.9921562e+10  1.1971759e-13  0              3.6438487    
    200000   12727.922      200            200           -0.00019016733 -1.015452e-34   0             -0.000570502    15291.03       0              7.3834912e+08  1.1971759e-13  0              3.6776002    
    300000   12727.922      200            200            0.00017007082 -1.0154579e-34  0              0.00051021247  9247.7251      0              4.4653955e+08  1.1971759e-13  0              3.5576088    
    400000   12727.922      200            200            0.001834945    1.2808688e-05  0              0.0054920263   14596.88       0              7.0483109e+08  1.1971759e-13  0              3.5223622    
    500000   12727.922      200            200            0.0037617223  -2.0276268e-05  0              0.011305443    2298.7933      0              1.110005e+08   1.1971759e-13  0              3.5210134    
    600000   12727.922      200            200            0.003553023    0.00021285824  0              0.010446211    171.44392      0              8278413.2      1.1971759e-13  0              3.5211373    
    700000   12727.922      200            200            0.0047140472   0.00038649035  0              0.013755651    42.735579      0              2063548.2      1.1971759e-13  0              3.5205603    
    800000   12727.922      200            200            0.004904118    0.00035646401  0              0.01435589     2.689795       0              129880.57      1.1971759e-13  0              3.5204606    
    900000   12727.922      200            200            0.0048258572   0.00038510897  0              0.014092463    0.013141878    0              634.57426      1.1971759e-13  0              3.520501     
   1000000   12727.922      200            200            0.004756731    0.00038493111  0              0.013885262    0.07539207     0              3640.4133      1.1971759e-13  0              3.520534     
   1100000   12727.922      200            200            0.0047367347   0.00038535486  0              0.013824849    0.012248944    0              591.45766      1.1971759e-13  0              3.5205438    
   1200000   12727.922      200            200            0.004736753    0.00038536374  0              0.013824895    0.00019152468  0              9.2480412      1.1971759e-13  0              3.5205439    
   1300000   12727.922      200            200            0.0047394488   0.00038531865  0              0.013833028    7.2635944e-05  0              3.5073298      1.1971759e-13  0              3.5205426    
   1400000   12727.922      200            200            0.0047406812   0.00038529773  0              0.013836746    3.3164208e-05  0              1.6013809      1.1971759e-13  0              3.520542     
   1500000   12727.922      200            200            0.0047408834   0.00038529419  0              0.013837356    2.2252428e-06  0              0.10744901     1.1971759e-13  0              3.5205419    
   1600000   12727.922      200            200            0.0047408105   0.00038529537  0              0.013837136    8.1474075e-09  0              0.00039340915  1.1971759e-13  0              3.520542     
   1700000   12727.922      200            200            0.00474075     0.00038529639  0              0.013836954    5.8343141e-08  0              0.0028171815   1.1971759e-13  0              3.520542     
   1800000   12727.922      200            200            0.0047407321   0.00038529669  0              0.0138369      9.6897009e-09  0              0.00046788098  1.1971759e-13  0              3.520542     
   1900000   12727.922      200            200            0.0047407321   0.0003852967   0              0.013836899    1.5952463e-10  0              7.7028734e-06  1.1971759e-13  0              3.520542     
   2000000   12727.922      200            200            0.0047407344   0.00038529666  0              0.013836907    5.5237724e-11  0              2.667232e-06   1.1971759e-13  0              3.520542     
   2100000   12727.922      200            200            0.0047407355   0.00038529664  0              0.01383691     2.5977327e-11  0              1.2543521e-06  1.1971759e-13  0              3.520542     
   2200000   12727.922      200            200            0.0047407357   0.00038529664  0              0.01383691     1.7826759e-12  0              8.6079042e-08  1.1971759e-13  0              3.520542     
   2300000   12727.922      200            200            0.0047407356   0.00038529664  0              0.01383691     5.4272221e-15  0              2.6206113e-10  1.1971759e-13  0              3.520542     
   2400000   12727.922      200            200            0.0047407356   0.00038529664  0              0.01383691     4.5350515e-14  0              2.189814e-09   1.1971759e-13  0              3.520542     
   2500000   12727.922      200            200            0.0047407356   0.00038529664  0              0.01383691     7.6991145e-15  0              3.7176269e-10  1.1971759e-13  0              3.520542     
   2600000   12727.922      200            200            0.0047407356   0.00038529664  0              0.01383691     1.6195618e-16  0              7.8202841e-12  1.1971759e-13  0              3.520542     
   2700000   12727.922      200            200            0.0047407356   0.00038529664  0              0.01383691     1.2224766e-16  0              5.9029021e-12  1.1971759e-13  0              3.520542     
   2800000   12727.922      200            200            0.0047407356   0.00038529664  0              0.01383691     3.6429271e-20  0              1.7590391e-15  1.1971759e-13  0              3.520542     
   2900000   12727.922      200            200            0.0047407356   0.00038529664  0              0.01383691     9.0207095e-19  0              4.3557778e-14  1.1971759e-13  0              3.520542     
   3000000   12727.922      200            200            0.0047407356   0.00038529664  0              0.01383691     2.2889209e-18  0              1.105238e-13   1.1971759e-13  0              3.520542     
Loop time of 545.799 on 4 procs for 3000000 steps with 5001 atoms

Performance: 4749003.253 ns/day, 0.000 hours/ns, 5496.532 timesteps/s
100.0% CPU use with 4 MPI tasks x 1 OpenMP threads

MPI task timing breakdown:
Section |  min time  |  avg time  |  max time  |%varavg| %total
---------------------------------------------------------------
Pair    | 23.191     | 79.647     | 136.32     | 629.6 | 14.59
Neigh   | 2.5853     | 2.6147     | 2.641      |   1.3 |  0.48
Comm    | 14.798     | 20.391     | 25.166     |  88.2 |  3.74
Output  | 0.39022    | 0.39093    | 0.39166    |   0.1 |  0.07
Modify  | 324.59     | 336.16     | 348.25     |  60.2 | 61.59
Other   |            | 106.6      |            |       | 19.53

Nlocal:        1250.25 ave        1752 max         749 min
Histogram: 2 0 0 0 0 0 0 0 0 2
Nghost:           1.75 ave           3 max           1 min
Histogram: 2 0 0 0 0 1 0 0 0 1
Neighs:         675.25 ave        1351 max           0 min
Histogram: 2 0 0 0 0 0 0 0 0 2

Total # of neighbors = 2701
Ave neighs/atom = 0.54009198
Neighbor list builds = 141
Dangerous builds = 0
  using 1 OpenMP thread(s) per MPI task
Lattice spacing in x,y,z = 4.2426407 4.2426407 4.2426407
Created orthogonal box = (-6363.961 -100 -100) to (6363.961 100 100)
  4 by 1 by 1 MPI processor grid
Created 3000 atoms
  using lattice units in orthogonal box = (-6363.961 -100 -100) to (6363.961 100 100)
  create_atoms CPU = 0.001 seconds
Lattice spacing in x,y,z = 3 3 3
Created 2001 atoms
  using lattice units in orthogonal box = (-6363.961 -100 -100) to (6363.961 100 100)
  create_atoms CPU = 0.001 seconds
Setting atom values ...
  3000 settings made for diameter
Setting atom values ...
  3000 settings made for mass
Setting atom values ...
  2001 settings made for diameter
Setting atom values ...
  2001 settings made for mass
3000 atoms in group substrate
2001 atoms in group slider1
5001 atoms in group substrate_slider
  1 rigid bodies with 2001 atoms
Generated 0 of 1 mixed pair_coeff terms from geometric mixing rule
Neighbor list info ...
  update every 1 steps, delay 0 steps, check yes
  max neighbors/atom: 2000, page size: 100000
  master list distance cutoff = 4.16
  ghost atom cutoff = 4.16
  binsize = 2.08, bins = 6120 97 97
  1 neighbor lists, perpetual/occasional/extra = 1 0 0
  (1) pair granular, perpetual
      attributes: half, newton on, size, history
      pair build: half/size/bin/newton
      stencil: half/bin/3d
      bin: standard
Setting up Verlet run ...
  Unit style    : micro
  Current step  : 0
  Time step     : 1e-05
Per MPI rank memory allocation (min/avg/max) = 73.76 | 73.77 | 73.78 Mbytes
   Step           Lx             Ly             Lz           Press           Pxx            Pyy            Pzz           KinEng         PotEng          Temp          c_1[1]         c_1[2]         c_1[3]    
         0   12727.922      200            200            0              0              0              0              0              0              0              1.1971759e-13  0              6            
    100000   12727.922      200            200           -0.00036937697 -1.0154531e-34  0             -0.0011081309   1019556.9      0              4.9230756e+10  1.1971759e-13  0              3.6536314    
    200000   12727.922      200            200           -0.00018048577 -9.5199376e-36  0             -0.00054145732  13558.508      0              6.5469182e+08  1.1971759e-13  0              3.6833532    
    300000   12727.922      200            200            0.00018492809  2.0309292e-34  0              0.00055478426  10786.179      0              5.2082601e+08  1.1971759e-13  0              3.5618056    
    400000   12727.922      200            200            0.0034397779   8.0173232e-05  0              0.01023916     15551.438      0              7.5092327e+08  1.1971759e-13  0              3.5262969    
    500000   12727.922      200            200            0.0047090165   6.7741104e-06  0              0.014120275    2380.2258      0              1.1493259e+08  1.1971759e-13  0              3.5255425    
    600000   12727.922      200            200            0.0038692109   0.00023250326  0              0.011375129    241.39524      0              11656112       1.1971759e-13  0              3.5259762    
    700000   12727.922      200            200            0.0048956357   0.00037803951  0              0.014308868    40.53736       0              1957404        1.1971759e-13  0              3.5254777    
    800000   12727.922      200            200            0.0049556799   0.00036664498  0              0.014500395    1.0228618      0              49390.335      1.1971759e-13  0              3.5254434    
    900000   12727.922      200            200            0.0048227518   0.00038432917  0              0.014083926    0.1664487      0              8037.2121      1.1971759e-13  0              3.5255081    
   1000000   12727.922      200            200            0.0047516825   0.00038453839  0              0.013870509    0.10050466     0              4853.0101      1.1971759e-13  0              3.5255423    
   1100000   12727.922      200            200            0.0047390111   0.00038483446  0              0.013832199    0.0070537727   0              340.60144      1.1971759e-13  0              3.5255486    
   1200000   12727.922      200            200            0.0047429424   0.00038477427  0              0.013844053    3.4707668e-05  0              1.6759091      1.1971759e-13  0              3.5255468    
   1300000   12727.922      200            200            0.0047463667   0.00038471852  0              0.013854382    0.00019174185  0              9.2585275      1.1971759e-13  0              3.5255451    
   1400000   12727.922      200            200            0.0047473334   0.00038470253  0              0.013857298    2.755991e-05   0              1.3307694      1.1971759e-13  0              3.5255446    
   1500000   12727.922      200            200            0.0047472953   0.00038470301  0              0.013857183    1.8603816e-07  0              0.0089831171   1.1971759e-13  0              3.5255446    
   1600000   12727.922      200            200            0.004747149    0.00038470536  0              0.013856742    2.6678239e-07  0              0.012881967    1.1971759e-13  0              3.5255447    
   1700000   12727.922      200            200            0.0047470902   0.00038470632  0              0.013856564    8.0206108e-08  0              0.0038728659   1.1971759e-13  0              3.5255447    
   1800000   12727.922      200            200            0.0047470843   0.00038470643  0              0.013856546    2.9388819e-09  0              0.00014190809  1.1971759e-13  0              3.5255448    
   1900000   12727.922      200            200            0.0047470895   0.00038470634  0              0.013856562    2.0636684e-10  0              9.9647163e-06  1.1971759e-13  0              3.5255447    
   2000000   12727.922      200            200            0.0047470926   0.00038470629  0              0.013856572    1.8341364e-10  0              8.8563885e-06  1.1971759e-13  0              3.5255447    
   2100000   12727.922      200            200            0.0047470933   0.00038470628  0              0.013856574    1.5836641e-11  0              7.6469473e-07  1.1971759e-13  0              3.5255447    
   2200000   12727.922      200            200            0.0047470931   0.00038470628  0              0.013856573    6.8115351e-15  0              3.2890465e-10  1.1971759e-13  0              3.5255447    
   2300000   12727.922      200            200            0.004747093    0.00038470629  0              0.013856573    3.2540028e-13  0              1.5712415e-08  1.1971759e-13  0              3.5255447    
   2400000   12727.922      200            200            0.004747093    0.00038470629  0              0.013856573    5.6066051e-14  0              2.7072289e-09  1.1971759e-13  0              3.5255447    
   2500000   12727.922      200            200            0.004747093    0.00038470629  0              0.013856573    6.267496e-16   0              3.0263495e-11  1.1971759e-13  0              3.5255447    
   2600000   12727.922      200            200            0.004747093    0.00038470629  0              0.013856573    4.0624152e-16  0              1.9615949e-11  1.1971759e-13  0              3.5255447    
   2700000   12727.922      200            200            0.004747093    0.00038470629  0              0.013856573    1.0255151e-16  0              4.9518456e-12  1.1971759e-13  0              3.5255447    
   2800000   12727.922      200            200            0.004747093    0.00038470629  0              0.013856573    1.6415132e-17  0              7.9262797e-13  1.1971759e-13  0              3.5255447    
   2900000   12727.922      200            200            0.004747093    0.00038470629  0              0.013856573    6.7879521e-18  0              3.2776591e-13  1.1971759e-13  0              3.5255447    
   3000000   12727.922      200            200            0.004747093    0.00038470629  0              0.013856573    3.7950091e-20  0              1.8324741e-15  1.1971759e-13  0              3.5255447    
Loop time of 540.295 on 4 procs for 3000000 steps with 5001 atoms

Performance: 4797376.673 ns/day, 0.000 hours/ns, 5552.519 timesteps/s
100.0% CPU use with 4 MPI tasks x 1 OpenMP threads

MPI task timing breakdown:
Section |  min time  |  avg time  |  max time  |%varavg| %total
---------------------------------------------------------------
Pair    | 22.829     | 77.927     | 134.64     | 623.3 | 14.42
Neigh   | 2.6124     | 2.6487     | 2.6833     |   1.6 |  0.49
Comm    | 14.827     | 20.668     | 25.075     |  97.5 |  3.83
Output  | 0.38904    | 0.38972    | 0.39043    |   0.1 |  0.07
Modify  | 322.81     | 333.56     | 343.96     |  55.2 | 61.74
Other   |            | 105.1      |            |       | 19.45

Nlocal:        1250.25 ave        1752 max         749 min
Histogram: 2 0 0 0 0 0 0 0 0 2
Nghost:           1.75 ave           3 max           1 min
Histogram: 2 0 0 0 0 1 0 0 0 1
Neighs:         680.25 ave        1361 max           0 min
Histogram: 2 0 0 0 0 0 0 0 0 2

Total # of neighbors = 2721
Ave neighs/atom = 0.54409118
Neighbor list builds = 141
Dangerous builds = 0
  using 1 OpenMP thread(s) per MPI task
Lattice spacing in x,y,z = 4.2426407 4.2426407 4.2426407
Created orthogonal box = (-6363.961 -100 -100) to (6363.961 100 100)
  4 by 1 by 1 MPI processor grid
Created 3000 atoms
  using lattice units in orthogonal box = (-6363.961 -100 -100) to (6363.961 100 100)
  create_atoms CPU = 0.001 seconds
Lattice spacing in x,y,z = 3 3 3
Created 2001 atoms
  using lattice units in orthogonal box = (-6363.961 -100 -100) to (6363.961 100 100)
  create_atoms CPU = 0.001 seconds
Setting atom values ...
  3000 settings made for diameter
Setting atom values ...
  3000 settings made for mass
Setting atom values ...
  2001 settings made for diameter
Setting atom values ...
  2001 settings made for mass
3000 atoms in group substrate
2001 atoms in group slider1
5001 atoms in group substrate_slider
  1 rigid bodies with 2001 atoms
Generated 0 of 1 mixed pair_coeff terms from geometric mixing rule
Neighbor list info ...
  update every 1 steps, delay 0 steps, check yes
  max neighbors/atom: 2000, page size: 100000
  master list distance cutoff = 4.17
  ghost atom cutoff = 4.17
  binsize = 2.085, bins = 6105 96 96
  1 neighbor lists, perpetual/occasional/extra = 1 0 0
  (1) pair granular, perpetual
      attributes: half, newton on, size, history
      pair build: half/size/bin/newton
      stencil: half/bin/3d
      bin: standard
Setting up Verlet run ...
  Unit style    : micro
  Current step  : 0
  Time step     : 1e-05
Per MPI rank memory allocation (min/avg/max) = 72.45 | 72.46 | 72.47 Mbytes
   Step           Lx             Ly             Lz           Press           Pxx            Pyy            Pzz           KinEng         PotEng          Temp          c_1[1]         c_1[2]         c_1[3]    
         0   12727.922      200            200            0              0              0              0              0              0              0              1.1971759e-13  0              6            
    100000   12727.922      200            200           -0.00038057749 -1.5231875e-34  0             -0.0011417325   1005358.8      0              4.8545179e+10  1.1971759e-13  0              3.6633829    
    200000   12727.922      200            200           -0.0001706366   1.9039883e-35  0             -0.00051190981  11931.6        0              5.7613427e+08  1.1971759e-13  0              3.6890571    
    300000   12727.922      200            200            0.00019994915  6.3466265e-36  0              0.00059984745  12440.911      0              6.0072707e+08  1.1971759e-13  0              3.5659397    
    400000   12727.922      200            200            0.0056434292   0.00019216133  0              0.016738126    15643.757      0              7.5538103e+08  1.1971759e-13  0              3.5302104    
    500000   12727.922      200            200            0.0057716021   7.3382318e-05  0              0.017241424    2260.2049      0              1.0913721e+08  1.1971759e-13  0              3.5300728    
    600000   12727.922      200            200            0.004227372    0.00020272121  0              0.012479395    294.33717      0              14212488       1.1971759e-13  0              3.5307916    
    700000   12727.922      200            200            0.0050619697   0.00034935862  0              0.01483655     32.477919      0              1568242.5      1.1971759e-13  0              3.5304006    
    800000   12727.922      200            200            0.0049822144   0.00036624526  0              0.014580398    0.079693276    0              3848.1031      1.1971759e-13  0              3.5304363    
    900000   12727.922      200            200            0.004810056    0.00038289558  0              0.014047272    0.42255259     0              20403.552      1.1971759e-13  0              3.5305197    
   1000000   12727.922      200            200            0.0047455392   0.00038288502  0              0.013853732    0.097259337    0              4696.3053      1.1971759e-13  0              3.5305509    
   1100000   12727.922      200            200            0.0047423022   0.00038297948  0              0.013843927    0.0018006369   0              86.94631       1.1971759e-13  0              3.5305526    
   1200000   12727.922      200            200            0.0047495683   0.00038285886  0              0.013865846    0.00058943082  0              28.461505      1.1971759e-13  0              3.5305492    
   1300000   12727.922      200            200            0.0047530228   0.00038280092  0              0.013876267    0.00024839462  0              11.994087      1.1971759e-13  0              3.5305475    
   1400000   12727.922      200            200            0.0047534787   0.00038279296  0              0.013877643    1.0705139e-05  0              0.51691284     1.1971759e-13  0              3.5305473    
   1500000   12727.922      200            200            0.0047532039   0.0003827974   0              0.013876814    5.7714658e-07  0              0.027868343    1.1971759e-13  0              3.5305474    
   1600000   12727.922      200            200            0.0047530288   0.00038280032  0              0.013876286    5.6848078e-07  0              0.027449902    1.1971759e-13  0              3.5305475    
   1700000   12727.922      200            200            0.0047529931   0.00038280093  0              0.013876178    4.4296081e-08  0              0.0021388992   1.1971759e-13  0              3.5305475    
   1800000   12727.922      200            200            0.0047530019   0.00038280079  0              0.013876205    1.9569031e-10  0              9.4491847e-06  1.1971759e-13  0              3.5305475    
   1900000   12727.922      200            200            0.0047530103   0.00038280065  0              0.01387623     1.1592541e-09  0              5.597623e-05   1.1971759e-13  0              3.5305475    
   2000000   12727.922      200            200            0.0047530126   0.00038280061  0              0.013876237    1.4960596e-10  0              7.2239363e-06  1.1971759e-13  0              3.5305475    
   2100000   12727.922      200            200            0.0047530124   0.00038280061  0              0.013876237    2.4793698e-13  0              1.197199e-08   1.1971759e-13  0              3.5305475    
   2200000   12727.922      200            200            0.004753012    0.00038280062  0              0.013876235    2.058449e-12   0              9.9395137e-08  1.1971759e-13  0              3.5305475    
   2300000   12727.922      200            200            0.0047530119   0.00038280062  0              0.013876235    4.3751223e-13  0              2.11259e-08    1.1971759e-13  0              3.5305475    
   2400000   12727.922      200            200            0.0047530119   0.00038280062  0              0.013876235    6.6218233e-15  0              3.1974415e-10  1.1971759e-13  0              3.5305475    
   2500000   12727.922      200            200            0.0047530119   0.00038280062  0              0.013876235    3.134882e-15   0              1.5137223e-10  1.1971759e-13  0              3.5305475    
   2600000   12727.922      200            200            0.0047530119   0.00038280062  0              0.013876235    1.1410806e-15  0              5.5098701e-11  1.1971759e-13  0              3.5305475    
   2700000   12727.922      200            200            0.0047530119   0.00038280062  0              0.013876235    9.5301288e-19  0              4.6017581e-14  1.1971759e-13  0              3.5305475    
   2800000   12727.922      200            200            0.0047530119   0.00038280062  0              0.013876235    1.0776885e-17  0              5.2037719e-13  1.1971759e-13  0              3.5305475    
   2900000   12727.922      200            200            0.0047530119   0.00038280062  0              0.013876235    2.1371075e-18  0              1.0319327e-13  1.1971759e-13  0              3.5305475    
   3000000   12727.922      200            200            0.0047530119   0.00038280062  0              0.013876235    9.4387624e-18  0              4.5576406e-13  1.1971759e-13  0              3.5305475    
Loop time of 535.084 on 4 procs for 3000000 steps with 5001 atoms

Performance: 4844099.553 ns/day, 0.000 hours/ns, 5606.597 timesteps/s
100.0% CPU use with 4 MPI tasks x 1 OpenMP threads

MPI task timing breakdown:
Section |  min time  |  avg time  |  max time  |%varavg| %total
---------------------------------------------------------------
Pair    | 22.293     | 76.628     | 131.52     | 616.5 | 14.32
Neigh   | 2.5209     | 2.5551     | 2.5886     |   1.5 |  0.48
Comm    | 14.522     | 20.302     | 24.953     |  92.5 |  3.79
Output  | 0.39012    | 0.39074    | 0.39138    |   0.1 |  0.07
Modify  | 318.82     | 330.75     | 342.4      |  60.9 | 61.81
Other   |            | 104.5      |            |       | 19.52

Nlocal:        1250.25 ave        1752 max         749 min
Histogram: 2 0 0 0 0 0 0 0 0 2
Nghost:           1.75 ave           3 max           1 min
Histogram: 2 0 0 0 0 1 0 0 0 1
Neighs:         685.75 ave        1372 max           0 min
Histogram: 2 0 0 0 0 0 0 0 0 2

Total # of neighbors = 2743
Ave neighs/atom = 0.5484903
Neighbor list builds = 141
Dangerous builds = 0
  using 1 OpenMP thread(s) per MPI task
Lattice spacing in x,y,z = 4.2426407 4.2426407 4.2426407
Created orthogonal box = (-6363.961 -100 -100) to (6363.961 100 100)
  4 by 1 by 1 MPI processor grid
Created 3000 atoms
  using lattice units in orthogonal box = (-6363.961 -100 -100) to (6363.961 100 100)
  create_atoms CPU = 0.001 seconds
Lattice spacing in x,y,z = 3 3 3
Created 2001 atoms
  using lattice units in orthogonal box = (-6363.961 -100 -100) to (6363.961 100 100)
  create_atoms CPU = 0.001 seconds
Setting atom values ...
  3000 settings made for diameter
Setting atom values ...
  3000 settings made for mass
Setting atom values ...
  2001 settings made for diameter
Setting atom values ...
  2001 settings made for mass
3000 atoms in group substrate
2001 atoms in group slider1
5001 atoms in group substrate_slider
  1 rigid bodies with 2001 atoms
Generated 0 of 1 mixed pair_coeff terms from geometric mixing rule
Neighbor list info ...
  update every 1 steps, delay 0 steps, check yes
  max neighbors/atom: 2000, page size: 100000
  master list distance cutoff = 4.18
  ghost atom cutoff = 4.18
  binsize = 2.09, bins = 6090 96 96
  1 neighbor lists, perpetual/occasional/extra = 1 0 0
  (1) pair granular, perpetual
      attributes: half, newton on, size, history
      pair build: half/size/bin/newton
      stencil: half/bin/3d
      bin: standard
Setting up Verlet run ...
  Unit style    : micro
  Current step  : 0
  Time step     : 1e-05
Per MPI rank memory allocation (min/avg/max) = 72.28 | 72.29 | 72.3 Mbytes
   Step           Lx             Ly             Lz           Press           Pxx            Pyy            Pzz           KinEng         PotEng          Temp          c_1[1]         c_1[2]         c_1[3]    
         0   12727.922      200            200            0              0              0              0              0              0              0              1.1971759e-13  0              6            
    100000   12727.922      200            200           -0.00039156583  2.5386528e-35  0             -0.0011746975   991268.68      0              4.7864817e+10  1.1971759e-13  0              3.6731031    
    200000   12727.922      200            200           -0.00016062066  2.0309229e-34  0             -0.00048186199  10410.004      0              5.0266183e+08  1.1971759e-13  0              3.694712     
    300000   12727.922      200            200            0.00021513282 -2.5386483e-35  0              0.00064539845  14211.509      0              6.8622292e+08  1.1971759e-13  0              3.570011     
    400000   12727.922      200            200            0.0081683182  -0.00027350806  0              0.024778463    14609.666      0              7.0544849e+08  1.1971759e-13  0              3.5341381    
    500000   12727.922      200            200            0.006844771    2.9734318e-05  0              0.020504579    1939.8494      0              93668386       1.1971759e-13  0              3.5346256    
    600000   12727.922      200            200            0.0046296495   0.0001738644   0              0.013715084    317.71794      0              15341462       1.1971759e-13  0              3.5355936    
    700000   12727.922      200            200            0.0052101265   0.00033411393  0              0.015296266    20.959802      0              1012073.8      1.1971759e-13  0              3.5353353    
    800000   12727.922      200            200            0.0049843629   0.00036388872  0              0.0145892      0.22425322     0              10828.385      1.1971759e-13  0              3.5354404    
    900000   12727.922      200            200            0.0047905183   0.00038196214  0              0.013989593    0.65800455     0              31772.685      1.1971759e-13  0              3.5355347    
   1000000   12727.922      200            200            0.0047405375   0.00038123381  0              0.013840379    0.067718413    0              3269.8798      1.1971759e-13  0              3.5355589    
   1100000   12727.922      200            200            0.0047475051   0.0003810961   0              0.013861419    4.1853577e-05  0              2.0209595      1.1971759e-13  0              3.5355558    
   1200000   12727.922      200            200            0.0047569149   0.00038093321  0              0.013889811    0.0014058351   0              67.882745      1.1971759e-13  0              3.5355512    
   1300000   12727.922      200            200            0.0047596752   0.00038088496  0              0.01389814     0.00019152904  0              9.2482521      1.1971759e-13  0              3.5355499    
   1400000   12727.922      200            200            0.0047594939   0.00038088765  0              0.013897594    1.5585649e-07  0              0.0075257522   1.1971759e-13  0              3.53555      
   1500000   12727.922      200            200            0.0047590524   0.00038089517  0              0.013896262    2.8993279e-06  0              0.13999817     1.1971759e-13  0              3.5355502    
   1600000   12727.922      200            200            0.0047589035   0.00038089776  0              0.013895813    5.195933e-07   0              0.025089301    1.1971759e-13  0              3.5355503    
   1700000   12727.922      200            200            0.0047589044   0.00038089777  0              0.013895815    2.9341375e-09  0              0.000141679    1.1971759e-13  0              3.5355503    
   1800000   12727.922      200            200            0.0047589247   0.00038089742  0              0.013895877    5.7015788e-09  0              0.00027530883  1.1971759e-13  0              3.5355502    
[...]
   3000000   12727.922      200            200            0.0053284238   0.0003395292   0              0.015645742    8.4189408e-18  0              4.0652052e-13  1.1971759e-13  0              3.9807654    
Loop time of 697.626 on 4 procs for 3000000 steps with 5001 atoms

Performance: 3715460.022 ns/day, 0.000 hours/ns, 4300.301 timesteps/s
100.0% CPU use with 4 MPI tasks x 1 OpenMP threads

MPI task timing breakdown:
Section |  min time  |  avg time  |  max time  |%varavg| %total
---------------------------------------------------------------
Pair    | 181.01     | 236.95     | 292.83     | 357.2 | 33.97
Neigh   | 1.2052     | 1.2308     | 1.2551     |   1.7 |  0.18
Comm    | 25.243     | 80.171     | 136.95     | 611.9 | 11.49
Output  | 0.41176    | 0.41243    | 0.41312    |   0.1 |  0.06
Modify  | 201.86     | 272.76     | 342.67     | 420.4 | 39.10
Other   |            | 106.1      |            |       | 15.21

Nlocal:        1250.25 ave        1752 max         749 min
Histogram: 2 0 0 0 0 0 0 0 0 2
Nghost:           3.75 ave           5 max           3 min
Histogram: 2 0 0 0 0 1 0 0 0 1
Neighs:        1447.25 ave        2146 max         749 min
Histogram: 2 0 0 0 0 0 0 0 0 2

Total # of neighbors = 5789
Ave neighs/atom = 1.1575685
Neighbor list builds = 120
Dangerous builds = 0
  using 1 OpenMP thread(s) per MPI task
Lattice spacing in x,y,z = 4.2426407 4.2426407 4.2426407
Created orthogonal box = (-6363.961 -100 -100) to (6363.961 100 100)
  4 by 1 by 1 MPI processor grid
Created 3000 atoms
  using lattice units in orthogonal box = (-6363.961 -100 -100) to (6363.961 100 100)
  create_atoms CPU = 0.001 seconds
Lattice spacing in x,y,z = 3 3 3
Created 2001 atoms
  using lattice units in orthogonal box = (-6363.961 -100 -100) to (6363.961 100 100)
  create_atoms CPU = 0.001 seconds
Setting atom values ...
  3000 settings made for diameter
Setting atom values ...
  3000 settings made for mass
Setting atom values ...
  2001 settings made for diameter
Setting atom values ...
  2001 settings made for mass
3000 atoms in group substrate
2001 atoms in group slider1
5001 atoms in group substrate_slider
  1 rigid bodies with 2001 atoms
Generated 0 of 1 mixed pair_coeff terms from geometric mixing rule
Neighbor list info ...
  update every 1 steps, delay 0 steps, check yes
  max neighbors/atom: 2000, page size: 100000
  master list distance cutoff = 5.08
  ghost atom cutoff = 5.08
  binsize = 2.54, bins = 5011 79 79
  1 neighbor lists, perpetual/occasional/extra = 1 0 0
  (1) pair granular, perpetual
      attributes: half, newton on, size, history
      pair build: half/size/bin/newton
      stencil: half/bin/3d
      bin: standard
Setting up Verlet run ...
  Unit style    : micro
  Current step  : 0
  Time step     : 1e-05
Per MPI rank memory allocation (min/avg/max) = 46.67 | 46.68 | 46.7 Mbytes
   Step           Lx             Ly             Lz           Press           Pxx            Pyy            Pzz           KinEng         PotEng          Temp          c_1[1]         c_1[2]         c_1[3]    
         0   12727.922      200            200            4.3131001e-14  1.29393e-13    0              0              0              0              0              1.1971759e-13  0              6            
    100000   12727.922      200            200           -0.00058326867  1.29393e-13    0             -0.001749806    142626.13      0              6.8869053e+09  1.1971759e-13  0              4.412795     
    200000   12727.922      200            200            0.0026190694  -2.4619062e-05  0              0.0078818272   269154         0              1.2996483e+10  1.1971759e-13  0              3.987874     
    300000   12727.922      200            200            0.00051480959  1.29393e-13    0              0.0015444288   57035.695      0              2.7540496e+09  1.1971759e-13  0              3.99         
    400000   12727.922      200            200            0.0096394307  -0.00024326284  0              0.029161555    10684.408      0              5.1591184e+08  1.1971759e-13  0              3.9841728    
    500000   12727.922      200            200            0.010450036   -0.00055556352  0              0.031905672    3.6715202      0              177284.57      1.1971759e-13  0              3.9839592    
    600000   12727.922      200            200            0.0037595361   0.00036311229  0              0.010915496    21.072956      0              1017537.6      1.1971759e-13  0              3.9864615    
    700000   12727.922      200            200            0.0059351668   0.00034143217  0              0.017464068    4.7417643      0              228962.83      1.1971759e-13  0              3.9855299    
    800000   12727.922      200            200            0.0052590232   0.00033119282  0              0.015445877    3.8241466      0              184654.35      1.1971759e-13  0              3.9857987    
    900000   12727.922      200            200            0.0052865649   0.0003357013   0              0.015523993    0.40318002     0              19468.12       1.1971759e-13  0              3.9857861    
   1000000   12727.922      200            200            0.0053643551   0.00033357414  0              0.015759491    0.00070823719  0              34.198239      1.1971759e-13  0              3.9857549    
   1100000   12727.922      200            200            0.0053251198   0.00033361696  0              0.015641742    0.0053820226   0              259.87861      1.1971759e-13  0              3.9857707    
   1200000   12727.922      200            200            0.0053323523   0.00033356251  0              0.015663494    0.0013524663   0              65.305759      1.1971759e-13  0              3.9857677    
   1300000   12727.922      200            200            0.0053343289   0.00033354744  0              0.015669439    4.6166773e-05  0              2.2292283      1.1971759e-13  0              3.985767     
   1400000   12727.922      200            200            0.0053324646   0.00033356229  0              0.015663832    3.4605068e-06  0              0.16709549     1.1971759e-13  0              3.9857677    
   1500000   12727.922      200            200            0.005333043    0.00033355765  0              0.015665571    3.0739661e-06  0              0.14843082     1.1971759e-13  0              3.9857675    
   1600000   12727.922      200            200            0.0053330314   0.00033355778  0              0.015665537    2.9557437e-07  0              0.014272229    1.1971759e-13  0              3.9857675    
   1700000   12727.922      200            200            0.0053329591   0.00033355835  0              0.015665319    1.1541611e-10  0              5.5730311e-06  1.1971759e-13  0              3.9857675    
   1800000   12727.922      200            200            0.0053329934   0.00033355807  0              0.015665422    4.635338e-09   0              0.00022382388  1.1971759e-13  0              3.9857675    
   1900000   12727.922      200            200            0.0053329876   0.00033355812  0              0.015665405    1.0397857e-09  0              5.0207531e-05  1.1971759e-13  0              3.9857675    
   2000000   12727.922      200            200            0.0053329856   0.00033355814  0              0.015665399    2.9743159e-11  0              1.4361907e-06  1.1971759e-13  0              3.9857675    
   2100000   12727.922      200            200            0.0053329873   0.00033355812  0              0.015665404    3.4558503e-12  0              1.6687064e-07  1.1971759e-13  0              3.9857675    
   2200000   12727.922      200            200            0.0053329868   0.00033355813  0              0.015665402    2.4729579e-12  0              1.1941029e-07  1.1971759e-13  0              3.9857675    
   2300000   12727.922      200            200            0.0053329868   0.00033355813  0              0.015665402    2.1337722e-13  0              1.0303222e-08  1.1971759e-13  0              3.9857675    
   2400000   12727.922      200            200            0.0053329868   0.00033355813  0              0.015665402    2.6840755e-18  0              1.296044e-13   1.1971759e-13  0              3.9857675    
   2500000   12727.922      200            200            0.0053329868   0.00033355813  0              0.015665402    3.9368978e-15  0              1.9009871e-10  1.1971759e-13  0              3.9857675    
   2600000   12727.922      200            200            0.0053329868   0.00033355813  0              0.015665402    7.6906697e-16  0              3.7135492e-11  1.1971759e-13  0              3.9857675    
   2700000   12727.922      200            200            0.0053329868   0.00033355813  0              0.015665402    6.2089041e-17  0              2.9980576e-12  1.1971759e-13  0              3.9857675    
   2800000   12727.922      200            200            0.0053329868   0.00033355813  0              0.015665402    1.8075852e-17  0              8.7281818e-13  1.1971759e-13  0              3.9857675    
   2900000   12727.922      200            200            0.0053329868   0.00033355813  0              0.015665402    2.4260481e-19  0              1.1714518e-14  1.1971759e-13  0              3.9857675    
   3000000   12727.922      200            200            0.0053329868   0.00033355812  0              0.015665402    6.6780359e-18  0              3.2245845e-13  1.1971759e-13  0              3.9857675    
Loop time of 695.7 on 4 procs for 3000000 steps with 5001 atoms

Performance: 3725744.196 ns/day, 0.000 hours/ns, 4312.204 timesteps/s
100.0% CPU use with 4 MPI tasks x 1 OpenMP threads

MPI task timing breakdown:
Section |  min time  |  avg time  |  max time  |%varavg| %total
---------------------------------------------------------------
Pair    | 178.62     | 235.56     | 292.27     | 366.8 | 33.86
Neigh   | 1.2178     | 1.2439     | 1.269      |   1.8 |  0.18
Comm    | 24.254     | 81.025     | 137.35     | 625.3 | 11.65
Output  | 0.4226     | 0.42325    | 0.4239     |   0.1 |  0.06
Modify  | 201.68     | 271.82     | 341.9      | 419.0 | 39.07
Other   |            | 105.6      |            |       | 15.18

Nlocal:        1250.25 ave        1752 max         749 min
Histogram: 2 0 0 0 0 0 0 0 0 2
Nghost:           3.75 ave           5 max           3 min
Histogram: 2 0 0 0 0 1 0 0 0 1
Neighs:        1452.75 ave        2157 max         749 min
Histogram: 2 0 0 0 0 0 0 0 0 2

Total # of neighbors = 5811
Ave neighs/atom = 1.1619676
Neighbor list builds = 122
Dangerous builds = 0
  using 1 OpenMP thread(s) per MPI task
Lattice spacing in x,y,z = 4.2426407 4.2426407 4.2426407
Created orthogonal box = (-6363.961 -100 -100) to (6363.961 100 100)
  4 by 1 by 1 MPI processor grid
Created 3000 atoms
  using lattice units in orthogonal box = (-6363.961 -100 -100) to (6363.961 100 100)
  create_atoms CPU = 0.001 seconds
Lattice spacing in x,y,z = 3 3 3
Created 2001 atoms
  using lattice units in orthogonal box = (-6363.961 -100 -100) to (6363.961 100 100)
  create_atoms CPU = 0.001 seconds
Setting atom values ...
  3000 settings made for diameter
Setting atom values ...
  3000 settings made for mass
Setting atom values ...
  2001 settings made for diameter
Setting atom values ...
  2001 settings made for mass
3000 atoms in group substrate
2001 atoms in group slider1
5001 atoms in group substrate_slider
  1 rigid bodies with 2001 atoms
Generated 0 of 1 mixed pair_coeff terms from geometric mixing rule
Neighbor list info ...
  update every 1 steps, delay 0 steps, check yes
  max neighbors/atom: 2000, page size: 100000
  master list distance cutoff = 5.09
  ghost atom cutoff = 5.09
  binsize = 2.545, bins = 5002 79 79
  1 neighbor lists, perpetual/occasional/extra = 1 0 0
  (1) pair granular, perpetual
      attributes: half, newton on, size, history
      pair build: half/size/bin/newton
      stencil: half/bin/3d
      bin: standard
Setting up Verlet run ...
  Unit style    : micro
  Current step  : 0
  Time step     : 1e-05
Per MPI rank memory allocation (min/avg/max) = 46.61 | 46.62 | 46.62 Mbytes
   Step           Lx             Ly             Lz           Press           Pxx            Pyy            Pzz           KinEng         PotEng          Temp          c_1[1]         c_1[2]         c_1[3]    
         0   12727.922      200            200            4.4055543e-14  1.3216663e-13  0              0              0              0              0              1.1971759e-13  0              6            
    100000   12727.922      200            200           -0.00057732255  1.3216663e-13  0             -0.0017319676   137616.98      0              6.6450315e+09  1.1971759e-13  0              4.4194193    
    200000   12727.922      200            200            0.013158934   -0.00067926722  0              0.040156071    266460.75      0              1.2866436e+10  1.1971759e-13  0              3.98857      
    300000   12727.922      200            200            0.0021297451   1.5450623e-05  0              0.0063737846   60815.317      0              2.936554e+09   1.1971759e-13  0              3.9926671    
    400000   12727.922      200            200            0.0064701087   0.00050338136  0              0.018906945    11840.478      0              5.7173429e+08  1.1971759e-13  0              3.9902874    
    500000   12727.922      200            200            0.010135091   -0.00055083202  0              0.030956104    182.62074      0              8818102.1      1.1971759e-13  0              3.9890504    
    600000   12727.922      200            200            0.0037058938   0.00037633545  0              0.010741346    0.37339625     0              18029.969      1.1971759e-13  0              3.9914972    
    700000   12727.922      200            200            0.0058343659   0.00035040266  0              0.017152695    13.48559       0              651170.88      1.1971759e-13  0              3.9905738    
    800000   12727.922      200            200            0.0053427668   0.00032858251  0              0.015699718    4.2462594      0              205036.67      1.1971759e-13  0              3.9907692    
    900000   12727.922      200            200            0.0052683742   0.00032928995  0              0.015475833    0.1964219      0              9484.5105      1.1971759e-13  0              3.9907975    
   1000000   12727.922      200            200            0.005368237    0.00032979921  0              0.015774912    0.0068621583   0              331.34907      1.1971759e-13  0              3.9907575    
   1100000   12727.922      200            200            0.0053346242   0.0003298089   0              0.015674064    0.0091624817   0              442.42345      1.1971759e-13  0              3.9907712    
   1200000   12727.922      200            200            0.0053358644   0.00032979757  0              0.015677796    0.00093256402  0              45.030179      1.1971759e-13  0              3.9907706    
   1300000   12727.922      200            200            0.0053398214   0.00032976697  0              0.015689697    1.9223356e-07  0              0.0092822708   1.1971759e-13  0              3.990769     
   1400000   12727.922      200            200            0.0053379346   0.00032978215  0              0.015684022    1.5263662e-05  0              0.73702759     1.1971759e-13  0              3.9907698    
   1500000   12727.922      200            200            0.0053382243   0.00032977977  0              0.015684893    3.0906181e-06  0              0.14923489     1.1971759e-13  0              3.9907697    
   1600000   12727.922      200            200            0.0053383514   0.00032977879  0              0.015685276    5.7796196e-08  0              0.0027907714   1.1971759e-13  0              3.9907696    
   1700000   12727.922      200            200            0.0053382573   0.00032977954  0              0.015684992    1.7243611e-08  0              0.00083263228  1.1971759e-13  0              3.9907696    
   1800000   12727.922      200            200            0.0053382812   0.00032977934  0              0.015685064    7.9863396e-09  0              0.00038563176  1.1971759e-13  0              3.9907696    
   1900000   12727.922      200            200            0.0053382834   0.00032977933  0              0.015685071    4.5153209e-10  0              2.1802868e-05  1.1971759e-13  0              3.9907696    
   2000000   12727.922      200            200            0.0053382792   0.00032977936  0              0.015685058    7.5561657e-12  0              3.648602e-07   1.1971759e-13  0              3.9907696    
   2100000   12727.922      200            200            0.0053382808   0.00032977935  0              0.015685063    1.6379512e-11  0              7.9090802e-07  1.1971759e-13  0              3.9907696    
   2200000   12727.922      200            200            0.0053382807   0.00032977935  0              0.015685063    1.9336974e-12  0              9.3371328e-08  1.1971759e-13  0              3.9907696    
   2300000   12727.922      200            200            0.0053382805   0.00032977935  0              0.015685062    3.8426917e-15  0              1.8554983e-10  1.1971759e-13  0              3.9907696    
   2400000   12727.922      200            200            0.0053382806   0.00032977935  0              0.015685062    2.516338e-14   0              1.2150496e-09  1.1971759e-13  0              3.9907696    
   2500000   12727.922      200            200            0.0053382806   0.00032977935  0              0.015685062    6.1115273e-15  0              2.9510378e-10  1.1971759e-13  0              3.9907696    
   2600000   12727.922      200            200            0.0053382806   0.00032977935  0              0.015685062    1.445145e-16   0              6.978088e-12   1.1971759e-13  0              3.9907696    
   2700000   12727.922      200            200            0.0053382806   0.00032977935  0              0.015685062    2.41003e-19    0              1.1637172e-14  1.1971759e-13  0              3.9907696    
   2800000   12727.922      200            200            0.0053382806   0.00032977935  0              0.015685062    2.611195e-18   0              1.2608526e-13  1.1971759e-13  0              3.9907696    
   2900000   12727.922      200            200            0.0053382806   0.00032977935  0              0.015685062    3.2522428e-18  0              1.5703916e-13  1.1971759e-13  0              3.9907696    
   3000000   12727.922      200            200            0.0053382806   0.00032977935  0              0.015685062    6.6442648e-19  0              3.2082777e-14  1.1971759e-13  0              3.9907696    
Loop time of 700.252 on 4 procs for 3000000 steps with 5001 atoms

Performance: 3701526.767 ns/day, 0.000 hours/ns, 4284.174 timesteps/s
100.0% CPU use with 4 MPI tasks x 1 OpenMP threads

MPI task timing breakdown:
Section |  min time  |  avg time  |  max time  |%varavg| %total
---------------------------------------------------------------
Pair    | 179.09     | 236.55     | 294.88     | 365.3 | 33.78
Neigh   | 1.2475     | 1.2724     | 1.2974     |   1.7 |  0.18
Comm    | 25.574     | 82.031     | 141.51     | 614.4 | 11.71
Output  | 0.41378    | 0.41444    | 0.41511    |   0.1 |  0.06
Modify  | 200.87     | 273.21     | 343.18     | 420.6 | 39.02
Other   |            | 106.8      |            |       | 15.25

Nlocal:        1250.25 ave        1752 max         749 min
Histogram: 2 0 0 0 0 0 0 0 0 2
Nghost:           3.75 ave           5 max           3 min
Histogram: 2 0 0 0 0 1 0 0 0 1
Neighs:        1458.25 ave        2168 max         749 min
Histogram: 2 0 0 0 0 0 0 0 0 2

Total # of neighbors = 5833
Ave neighs/atom = 1.1663667
Neighbor list builds = 126
Dangerous builds = 0
  using 1 OpenMP thread(s) per MPI task
Total wall time: 18:23:19
