ITEM: TIMESTEP
1300000
ITEM: NUMBER OF ATOMS
5001
ITEM: BOX BOUNDS pp pp pp
-9.2250000000000000e+03 9.2250000000000000e+03
-1.0000000000000000e+02 1.0000000000000000e+02
-1.0000000000000000e+02 1.0000000000000000e+02
ITEM: ATOMS id type diameter mass xu yu zu fx fy fz
1 1 3 31.1018 -9225 0 0 0 0 0
2 1 3 31.1018 -9218.85000000000036 0 0 0 0 0
3 1 3 31.1018 -9212.70000000000073 0 0 0 0 0
4 1 3 31.1018 -9206.55000000000109 0 0 0 0 0
5 1 3 31.1018 -9200.39999999999964 0 0 0 0 0
6 1 3 31.1018 -9194.25 0 0 0 0 0
7 1 3 31.1018 -9188.10000000000036 0 0 0 0 0
8 1 3 31.1018 -9181.95000000000073 0 0 0 0 0
9 1 3 31.1018 -9175.80000000000109 0 0 0 0 0
10 1 3 31.1018 -9169.64999999999964 0 0 0 0 0
11 1 3 31.1018 -9163.5 0 0 0 0 0
12 1 3 31.1018 -9157.35000000000036 0 0 0 0 0
13 1 3 31.1018 -9151.20000000000073 0 0 0 0 0
14 1 3 31.1018 -9145.05000000000109 0 0 0 0 0
15 1 3 31.1018 -9138.89999999999964 0 0 0 0 0
16 1 3 31.1018 -9132.75 0 0 0 0 0
17 1 3 31.1018 -9126.60000000000036 0 0 0 0 0
18 1 3 31.1018 -9120.45000000000073 0 0 0 0 0
19 1 3 31.1018 -9114.30000000000109 0 0 0 0 0
20 1 3 31.1018 -9108.14999999999964 0 0 0 0 0
21 1 3 31.1018 -9102 0 0 0 0 0
22 1 3 31.1018 -9095.85000000000036 0 0 0 0 0
23 1 3 31.1018 -9089.70000000000073 0 0 0 0 0
24 1 3 31.1018 -9083.55000000000109 0 0 0 0 0
25 1 3 31.1018 -9077.39999999999964 0 0 0 0 0
26 1 3 31.1018 -9071.25 0 0 0 0 0
27 1 3 31.1018 -9065.10000000000036 0 0 0 0 0
28 1 3 31.1018 -9058.95000000000073 0 0 0 0 0
29 1 3 31.1018 -9052.80000000000109 0 0 0 0 0
30 1 3 31.1018 -9046.64999999999964 0 0 0 0 0
31 1 3 31.1018 -9040.5 0 0 0 0 0
32 1 3 31.1018 -9034.35000000000036 0 0 0 0 0
33 1 3 31.1018 -9028.20000000000073 0 0 0 0 0
34 1 3 31.1018 -9022.05000000000109 0 0 0 0 0
35 1 3 31.1018 -9015.89999999999964 0 0 0 0 0
36 1 3 31.1018 -9009.75 0 0 0 0 0
37 1 3 31.1018 -9003.60000000000036 0 0 0 0 0
38 1 3 31.1018 -8997.45000000000073 0 0 0 0 0
39 1 3 31.1018 -8991.30000000000109 0 0 0 0 0
40 1 3 31.1018 -8985.14999999999964 0 0 0 0 0
41 1 3 31.1018 -8979 0 0 0 0 0
42 1 3 31.1018 -8972.85000000000036 0 0 0 0 0
43 1 3 31.1018 -8966.70000000000073 0 0 0 0 0
44 1 3 31.1018 -8960.55000000000109 0 0 0 0 0
45 1 3 31.1018 -8954.39999999999964 0 0 0 0 0
46 1 3 31.1018 -8948.25 0 0 0 0 0
47 1 3 31.1018 -8942.10000000000036 0 0 0 0 0
48 1 3 31.1018 -8935.95000000000073 0 0 0 0 0
49 1 3 31.1018 -8929.80000000000109 0 0 0 0 0
50 1 3 31.1018 -8923.64999999999964 0 0 0 0 0
51 1 3 31.1018 -8917.5 0 0 0 0 0
52 1 3 31.1018 -8911.35000000000036 0 0 0 0 0
53 1 3 31.1018 -8905.20000000000073 0 0 0 0 0
54 1 3 31.1018 -8899.05000000000109 0 0 0 0 0
55 1 3 31.1018 -8892.89999999999964 0 0 0 0 0
56 1 3 31.1018 -8886.75 0 0 0 0 0
57 1 3 31.1018 -8880.60000000000036 0 0 0 0 0
58 1 3 31.1018 -8874.45000000000073 0 0 0 0 0
59 1 3 31.1018 -8868.30000000000109 0 0 0 0 0
60 1 3 31.1018 -8862.14999999999964 0 0 0 0 0
61 1 3 31.1018 -8856 0 0 0 0 0
62 1 3 31.1018 -8849.85000000000036 0 0 0 0 0
63 1 3 31.1018 -8843.70000000000073 0 0 0 0 0
64 1 3 31.1018 -8837.55000000000109 0 0 0 0 0
65 1 3 31.1018 -8831.39999999999964 0 0 0 0 0
66 1 3 31.1018 -8825.25 0 0 0 0 0
67 1 3 31.1018 -8819.10000000000036 0 0 0 0 0
68 1 3 31.1018 -8812.95000000000073 0 0 0 0 0
69 1 3 31.1018 -8806.80000000000109 0 0 0 0 0
70 1 3 31.1018 -8800.64999999999964 0 0 0 0 0
71 1 3 31.1018 -8794.5 0 0 0 0 0
72 1 3 31.1018 -8788.35000000000036 0 0 0 0 0
73 1 3 31.1018 -8782.20000000000073 0 0 0 0 0
74 1 3 31.1018 -8776.05000000000109 0 0 0 0 0
75 1 3 31.1018 -8769.89999999999964 0 0 0 0 0
76 1 3 31.1018 -8763.75 0 0 0 0 0
77 1 3 31.1018 -8757.60000000000036 0 0 0 0 0
78 1 3 31.1018 -8751.45000000000073 0 0 0 0 0
79 1 3 31.1018 -8745.30000000000109 0 0 0 0 0
80 1 3 31.1018 -8739.14999999999964 0 0 0 0 0
81 1 3 31.1018 -8733 0 0 0 0 0
82 1 3 31.1018 -8726.85000000000036 0 0 0 0 0
83 1 3 31.1018 -8720.70000000000073 0 0 0 0 0
84 1 3 31.1018 -8714.55000000000109 0 0 0 0 0
85 1 3 31.1018 -8708.39999999999964 0 0 0 0 0
86 1 3 31.1018 -8702.25 0 0 0 0 0
87 1 3 31.1018 -8696.10000000000036 0 0 0 0 0
88 1 3 31.1018 -8689.95000000000073 0 0 0 0 0
89 1 3 31.1018 -8683.80000000000109 0 0 0 0 0
90 1 3 31.1018 -8677.64999999999964 0 0 0 0 0
91 1 3 31.1018 -8671.5 0 0 0 0 0
92 1 3 31.1018 -8665.35000000000036 0 0 0 0 0
93 1 3 31.1018 -8659.20000000000073 0 0 0 0 0
94 1 3 31.1018 -8653.05000000000109 0 0 0 0 0
95 1 3 31.1018 -8646.89999999999964 0 0 0 0 0
96 1 3 31.1018 -8640.75 0 0 0 0 0
97 1 3 31.1018 -8634.60000000000036 0 0 0 0 0
98 1 3 31.1018 -8628.45000000000073 0 0 0 0 0
99 1 3 31.1018 -8622.30000000000109 0 0 0 0 0
100 1 3 31.1018 -8616.14999999999964 0 0 0 0 0
101 1 3 31.1018 -8610 0 0 0 0 0
102 1 3 31.1018 -8603.85000000000036 0 0 0 0 0
103 1 3 31.1018 -8597.70000000000073 0 0 0 0 0
104 1 3 31.1018 -8591.55000000000109 0 0 0 0 0
105 1 3 31.1018 -8585.39999999999964 0 0 0 0 0
106 1 3 31.1018 -8579.25 0 0 0 0 0
107 1 3 31.1018 -8573.10000000000036 0 0 0 0 0
108 1 3 31.1018 -8566.95000000000073 0 0 0 0 0
109 1 3 31.1018 -8560.80000000000109 0 0 0 0 0
110 1 3 31.1018 -8554.64999999999964 0 0 0 0 0
111 1 3 31.1018 -8548.5 0 0 0 0 0
112 1 3 31.1018 -8542.35000000000036 0 0 0 0 0
113 1 3 31.1018 -8536.20000000000073 0 0 0 0 0
114 1 3 31.1018 -8530.05000000000109 0 0 0 0 0
115 1 3 31.1018 -8523.89999999999964 0 0 0 0 0
116 1 3 31.1018 -8517.75 0 0 0 0 0
117 1 3 31.1018 -8511.60000000000036 0 0 0 0 0
118 1 3 31.1018 -8505.45000000000073 0 0 0 0 0
119 1 3 31.1018 -8499.30000000000109 0 0 0 0 0
120 1 3 31.1018 -8493.14999999999964 0 0 0 0 0
121 1 3 31.1018 -8487 0 0 0 0 0
122 1 3 31.1018 -8480.85000000000036 0 0 0 0 0
123 1 3 31.1018 -8474.70000000000073 0 0 0 0 0
124 1 3 31.1018 -8468.55000000000109 0 0 0 0 0
125 1 3 31.1018 -8462.39999999999964 0 0 0 0 0
126 1 3 31.1018 -8456.25 0 0 0 0 0
127 1 3 31.1018 -8450.10000000000036 0 0 0 0 0
128 1 3 31.1018 -8443.95000000000073 0 0 0 0 0
129 1 3 31.1018 -8437.80000000000109 0 0 0 0 0
130 1 3 31.1018 -8431.64999999999964 0 0 0 0 0
131 1 3 31.1018 -8425.5 0 0 0 0 0
132 1 3 31.1018 -8419.35000000000036 0 0 0 0 0
133 1 3 31.1018 -8413.20000000000073 0 0 0 0 0
134 1 3 31.1018 -8407.05000000000109 0 0 0 0 0
135 1 3 31.1018 -8400.89999999999964 0 0 0 0 0
136 1 3 31.1018 -8394.75 0 0 0 0 0
137 1 3 31.1018 -8388.60000000000036 0 0 0 0 0
138 1 3 31.1018 -8382.45000000000073 0 0 0 0 0
139 1 3 31.1018 -8376.30000000000109 0 0 0 0 0
140 1 3 31.1018 -8370.14999999999964 0 0 0 0 0
141 1 3 31.1018 -8364 0 0 0 0 0
142 1 3 31.1018 -8357.85000000000036 0 0 0 0 0
143 1 3 31.1018 -8351.70000000000073 0 0 0 0 0
144 1 3 31.1018 -8345.55000000000109 0 0 0 0 0
145 1 3 31.1018 -8339.39999999999964 0 0 0 0 0
146 1 3 31.1018 -8333.25 0 0 0 0 0
147 1 3 31.1018 -8327.10000000000036 0 0 0 0 0
148 1 3 31.1018 -8320.95000000000073 0 0 0 0 0
149 1 3 31.1018 -8314.80000000000109 0 0 0 0 0
150 1 3 31.1018 -8308.64999999999964 0 0 0 0 0
151 1 3 31.1018 -8302.5 0 0 0 0 0
152 1 3 31.1018 -8296.35000000000036 0 0 0 0 0
153 1 3 31.1018 -8290.20000000000073 0 0 0 0 0
154 1 3 31.1018 -8284.05000000000109 0 0 0 0 0
155 1 3 31.1018 -8277.89999999999964 0 0 0 0 0
156 1 3 31.1018 -8271.75 0 0 0 0 0
157 1 3 31.1018 -8265.60000000000036 0 0 0 0 0
158 1 3 31.1018 -8259.45000000000073 0 0 0 0 0
159 1 3 31.1018 -8253.30000000000109 0 0 0 0 0
160 1 3 31.1018 -8247.14999999999964 0 0 0 0 0
161 1 3 31.1018 -8241 0 0 0 0 0
162 1 3 31.1018 -8234.85000000000036 0 0 0 0 0
163 1 3 31.1018 -8228.70000000000073 0 0 0 0 0
164 1 3 31.1018 -8222.55000000000109 0 0 0 0 0
165 1 3 31.1018 -8216.39999999999964 0 0 0 0 0
166 1 3 31.1018 -8210.25 0 0 0 0 0
167 1 3 31.1018 -8204.10000000000036 0 0 0 0 0
168 1 3 31.1018 -8197.95000000000073 0 0 0 0 0
169 1 3 31.1018 -8191.80000000000018 0 0 0 0 0
170 1 3 31.1018 -8185.65000000000055 0 0 0 0 0
171 1 3 31.1018 -8179.50000000000091 0 0 0 0 0
172 1 3 31.1018 -8173.35000000000036 0 0 0 0 0
173 1 3 31.1018 -8167.20000000000073 0 0 0 0 0
174 1 3 31.1018 -8161.05000000000018 0 0 0 0 0
175 1 3 31.1018 -8154.90000000000055 0 0 0 0 0
176 1 3 31.1018 -8148.75000000000091 0 0 0 0 0
177 1 3 31.1018 -8142.60000000000036 0 0 0 0 0
178 1 3 31.1018 -8136.45000000000073 0 0 0 0 0
179 1 3 31.1018 -8130.30000000000018 0 0 0 0 0
180 1 3 31.1018 -8124.15000000000055 0 0 0 0 0
181 1 3 31.1018 -8118.00000000000091 0 0 0 0 0
182 1 3 31.1018 -8111.85000000000036 0 0 0 0 0
183 1 3 31.1018 -8105.70000000000073 0 0 0 0 0
184 1 3 31.1018 -8099.55000000000018 0 0 0 0 0
185 1 3 31.1018 -8093.40000000000055 0 0 0 0 0
186 1 3 31.1018 -8087.25000000000091 0 0 0 0 0
187 1 3 31.1018 -8081.10000000000036 0 0 0 0 0
188 1 3 31.1018 -8074.95000000000073 0 0 0 0 0
189 1 3 31.1018 -8068.80000000000018 0 0 0 0 0
190 1 3 31.1018 -8062.65000000000055 0 0 0 0 0
191 1 3 31.1018 -8056.50000000000091 0 0 0 0 0
192 1 3 31.1018 -8050.35000000000036 0 0 0 0 0
193 1 3 31.1018 -8044.20000000000073 0 0 0 0 0
194 1 3 31.1018 -8038.05000000000018 0 0 0 0 0
195 1 3 31.1018 -8031.90000000000055 0 0 0 0 0
196 1 3 31.1018 -8025.75000000000091 0 0 0 0 0
197 1 3 31.1018 -8019.60000000000036 0 0 0 0 0
198 1 3 31.1018 -8013.45000000000073 0 0 0 0 0
199 1 3 31.1018 -8007.30000000000018 0 0 0 0 0
200 1 3 31.1018 -8001.15000000000055 0 0 0 0 0
201 1 3 31.1018 -7995.00000000000091 0 0 0 0 0
202 1 3 31.1018 -7988.85000000000036 0 0 0 0 0
203 1 3 31.1018 -7982.70000000000073 0 0 0 0 0
204 1 3 31.1018 -7976.55000000000018 0 0 0 0 0
205 1 3 31.1018 -7970.40000000000055 0 0 0 0 0
206 1 3 31.1018 -7964.25000000000091 0 0 0 0 0
207 1 3 31.1018 -7958.10000000000036 0 0 0 0 0
208 1 3 31.1018 -7951.95000000000073 0 0 0 0 0
209 1 3 31.1018 -7945.80000000000018 0 0 0 0 0
210 1 3 31.1018 -7939.65000000000055 0 0 0 0 0
211 1 3 31.1018 -7933.50000000000091 0 0 0 0 0
212 1 3 31.1018 -7927.35000000000036 0 0 0 0 0
213 1 3 31.1018 -7921.20000000000073 0 0 0 0 0
214 1 3 31.1018 -7915.05000000000018 0 0 0 0 0
215 1 3 31.1018 -7908.90000000000055 0 0 0 0 0
216 1 3 31.1018 -7902.75000000000091 0 0 0 0 0
217 1 3 31.1018 -7896.60000000000036 0 0 0 0 0
218 1 3 31.1018 -7890.45000000000073 0 0 0 0 0
219 1 3 31.1018 -7884.30000000000018 0 0 0 0 0
220 1 3 31.1018 -7878.15000000000055 0 0 0 0 0
221 1 3 31.1018 -7872 0 0 0 0 0
222 1 3 31.1018 -7865.85000000000036 0 0 0 0 0
223 1 3 31.1018 -7859.70000000000073 0 0 0 0 0
224 1 3 31.1018 -7853.55000000000018 0 0 0 0 0
225 1 3 31.1018 -7847.40000000000055 0 0 0 0 0
226 1 3 31.1018 -7841.25 0 0 0 0 0
227 1 3 31.1018 -7835.10000000000036 0 0 0 0 0
228 1 3 31.1018 -7828.95000000000073 0 0 0 0 0
229 1 3 31.1018 -7822.80000000000018 0 0 0 0 0
230 1 3 31.1018 -7816.65000000000055 0 0 0 0 0
231 1 3 31.1018 -7810.5 0 0 0 0 0
232 1 3 31.1018 -7804.35000000000036 0 0 0 0 0
233 1 3 31.1018 -7798.20000000000073 0 0 0 0 0
234 1 3 31.1018 -7792.05000000000018 0 0 0 0 0
235 1 3 31.1018 -7785.90000000000055 0 0 0 0 0
236 1 3 31.1018 -7779.75 0 0 0 0 0
237 1 3 31.1018 -7773.60000000000036 0 0 0 0 0
238 1 3 31.1018 -7767.45000000000073 0 0 0 0 0
239 1 3 31.1018 -7761.30000000000018 0 0 0 0 0
240 1 3 31.1018 -7755.15000000000055 0 0 0 0 0
241 1 3 31.1018 -7749 0 0 0 0 0
242 1 3 31.1018 -7742.85000000000036 0 0 0 0 0
243 1 3 31.1018 -7736.70000000000073 0 0 0 0 0
244 1 3 31.1018 -7730.55000000000018 0 0 0 0 0
245 1 3 31.1018 -7724.40000000000055 0 0 0 0 0
246 1 3 31.1018 -7718.25 0 0 0 0 0
247 1 3 31.1018 -7712.10000000000036 0 0 0 0 0
248 1 3 31.1018 -7705.95000000000073 0 0 0 0 0
249 1 3 31.1018 -7699.80000000000018 0 0 0 0 0
250 1 3 31.1018 -7693.65000000000055 0 0 0 0 0
251 1 3 31.1018 -7687.5 0 0 0 0 0
252 1 3 31.1018 -7681.35000000000036 0 0 0 0 0
253 1 3 31.1018 -7675.20000000000073 0 0 0 0 0
254 1 3 31.1018 -7669.05000000000018 0 0 0 0 0
255 1 3 31.1018 -7662.90000000000055 0 0 0 0 0
256 1 3 31.1018 -7656.75 0 0 0 0 0
257 1 3 31.1018 -7650.60000000000036 0 0 0 0 0
258 1 3 31.1018 -7644.45000000000073 0 0 0 0 0
259 1 3 31.1018 -7638.30000000000018 0 0 0 0 0
260 1 3 31.1018 -7632.15000000000055 0 0 0 0 0
261 1 3 31.1018 -7626 0 0 0 0 0
262 1 3 31.1018 -7619.85000000000036 0 0 0 0 0
263 1 3 31.1018 -7613.70000000000073 0 0 0 0 0
264 1 3 31.1018 -7607.55000000000018 0 0 0 0 0
265 1 3 31.1018 -7601.40000000000055 0 0 0 0 0
266 1 3 31.1018 -7595.25 0 0 0 0 0
267 1 3 31.1018 -7589.10000000000036 0 0 0 0 0
268 1 3 31.1018 -7582.95000000000073 0 0 0 0 0
269 1 3 31.1018 -7576.80000000000018 0 0 0 0 0
270 1 3 31.1018 -7570.65000000000055 0 0 0 0 0
271 1 3 31.1018 -7564.5 0 0 0 0 0
272 1 3 31.1018 -7558.35000000000036 0 0 0 0 0
273 1 3 31.1018 -7552.20000000000073 0 0 0 0 0
274 1 3 31.1018 -7546.05000000000018 0 0 0 0 0
275 1 3 31.1018 -7539.90000000000055 0 0 0 0 0
276 1 3 31.1018 -7533.75 0 0 0 0 0
277 1 3 31.1018 -7527.60000000000036 0 0 0 0 0
278 1 3 31.1018 -7521.45000000000073 0 0 0 0 0
279 1 3 31.1018 -7515.30000000000018 0 0 0 0 0
280 1 3 31.1018 -7509.15000000000055 0 0 0 0 0
281 1 3 31.1018 -7503 0 0 0 0 0
282 1 3 31.1018 -7496.85000000000036 0 0 0 0 0
283 1 3 31.1018 -7490.70000000000073 0 0 0 0 0
284 1 3 31.1018 -7484.55000000000018 0 0 0 0 0
285 1 3 31.1018 -7478.40000000000055 0 0 0 0 0
286 1 3 31.1018 -7472.25 0 0 0 0 0
287 1 3 31.1018 -7466.10000000000036 0 0 0 0 0
288 1 3 31.1018 -7459.95000000000073 0 0 0 0 0
289 1 3 31.1018 -7453.80000000000018 0 0 0 0 0
290 1 3 31.1018 -7447.65000000000055 0 0 0 0 0
291 1 3 31.1018 -7441.5 0 0 0 0 0
292 1 3 31.1018 -7435.35000000000036 0 0 0 0 0
293 1 3 31.1018 -7429.20000000000073 0 0 0 0 0
294 1 3 31.1018 -7423.05000000000018 0 0 0 0 0
295 1 3 31.1018 -7416.90000000000055 0 0 0 0 0
296 1 3 31.1018 -7410.75 0 0 0 0 0
297 1 3 31.1018 -7404.60000000000036 0 0 0 0 0
298 1 3 31.1018 -7398.45000000000073 0 0 0 0 0
299 1 3 31.1018 -7392.30000000000018 0 0 0 0 0
300 1 3 31.1018 -7386.15000000000055 0 0 0 0 0
301 1 3 31.1018 -7380 0 0 0 0 0
302 1 3 31.1018 -7373.85000000000036 0 0 0 0 0
303 1 3 31.1018 -7367.70000000000073 0 0 0 0 0
304 1 3 31.1018 -7361.55000000000018 0 0 0 0 0
305 1 3 31.1018 -7355.40000000000055 0 0 0 0 0
306 1 3 31.1018 -7349.25 0 0 0 0 0
307 1 3 31.1018 -7343.10000000000036 0 0 0 0 0
308 1 3 31.1018 -7336.95000000000073 0 0 0 0 0
309 1 3 31.1018 -7330.80000000000018 0 0 0 0 0
310 1 3 31.1018 -7324.65000000000055 0 0 0 0 0
311 1 3 31.1018 -7318.5 0 0 0 0 0
312 1 3 31.1018 -7312.35000000000036 0 0 0 0 0
313 1 3 31.1018 -7306.20000000000073 0 0 0 0 0
314 1 3 31.1018 -7300.05000000000018 0 0 0 0 0
315 1 3 31.1018 -7293.90000000000055 0 0 0 0 0
316 1 3 31.1018 -7287.75 0 0 0 0 0
317 1 3 31.1018 -7281.60000000000036 0 0 0 0 0
318 1 3 31.1018 -7275.45000000000073 0 0 0 0 0
319 1 3 31.1018 -7269.30000000000018 0 0 0 0 0
320 1 3 31.1018 -7263.15000000000055 0 0 0 0 0
321 1 3 31.1018 -7257 0 0 0 0 0
322 1 3 31.1018 -7250.85000000000036 0 0 0 0 0
323 1 3 31.1018 -7244.70000000000073 0 0 0 0 0
324 1 3 31.1018 -7238.55000000000018 0 0 0 0 0
325 1 3 31.1018 -7232.40000000000055 0 0 0 0 0
326 1 3 31.1018 -7226.25 0 0 0 0 0
327 1 3 31.1018 -7220.10000000000036 0 0 0 0 0
328 1 3 31.1018 -7213.95000000000073 0 0 0 0 0
329 1 3 31.1018 -7207.80000000000018 0 0 0 0 0
330 1 3 31.1018 -7201.65000000000055 0 0 0 0 0
331 1 3 31.1018 -7195.5 0 0 0 0 0
332 1 3 31.1018 -7189.35000000000036 0 0 0 0 0
333 1 3 31.1018 -7183.20000000000073 0 0 0 0 0
334 1 3 31.1018 -7177.05000000000018 0 0 0 0 0
335 1 3 31.1018 -7170.90000000000055 0 0 0 0 0
336 1 3 31.1018 -7164.75 0 0 0 0 0
337 1 3 31.1018 -7158.60000000000036 0 0 0 0 0
338 1 3 31.1018 -7152.45000000000073 0 0 0 0 0
339 1 3 31.1018 -7146.30000000000018 0 0 0 0 0
340 1 3 31.1018 -7140.15000000000055 0 0 0 0 0
341 1 3 31.1018 -7134 0 0 0 0 0
342 1 3 31.1018 -7127.85000000000036 0 0 0 0 0
343 1 3 31.1018 -7121.70000000000073 0 0 0 0 0
344 1 3 31.1018 -7115.55000000000018 0 0 0 0 0
345 1 3 31.1018 -7109.40000000000055 0 0 0 0 0
346 1 3 31.1018 -7103.25 0 0 0 0 0
347 1 3 31.1018 -7097.10000000000036 0 0 0 0 0
348 1 3 31.1018 -7090.95000000000073 0 0 0 0 0
349 1 3 31.1018 -7084.80000000000018 0 0 0 0 0
350 1 3 31.1018 -7078.65000000000055 0 0 0 0 0
351 1 3 31.1018 -7072.5 0 0 0 0 0
352 1 3 31.1018 -7066.35000000000036 0 0 0 0 0
353 1 3 31.1018 -7060.20000000000073 0 0 0 0 0
354 1 3 31.1018 -7054.05000000000018 0 0 0 0 0
355 1 3 31.1018 -7047.90000000000055 0 0 0 0 0
356 1 3 31.1018 -7041.75 0 0 0 0 0
357 1 3 31.1018 -7035.60000000000036 0 0 0 0 0
358 1 3 31.1018 -7029.45000000000073 0 0 0 0 0
359 1 3 31.1018 -7023.30000000000018 0 0 0 0 0
360 1 3 31.1018 -7017.15000000000055 0 0 0 0 0
361 1 3 31.1018 -7011 0 0 0 0 0
362 1 3 31.1018 -7004.85000000000036 0 0 0 0 0
363 1 3 31.1018 -6998.70000000000073 0 0 0 0 0
364 1 3 31.1018 -6992.55000000000018 0 0 0 0 0
365 1 3 31.1018 -6986.40000000000055 0 0 0 0 0
366 1 3 31.1018 -6980.25 0 0 0 0 0
367 1 3 31.1018 -6974.10000000000036 0 0 0 0 0
368 1 3 31.1018 -6967.95000000000073 0 0 0 0 0
369 1 3 31.1018 -6961.80000000000018 0 0 0 0 0
370 1 3 31.1018 -6955.65000000000055 0 0 0 0 0
371 1 3 31.1018 -6949.5 0 0 0 0 0
372 1 3 31.1018 -6943.35000000000036 0 0 0 0 0
373 1 3 31.1018 -6937.20000000000073 0 0 0 0 0
374 1 3 31.1018 -6931.05000000000018 0 0 0 0 0
375 1 3 31.1018 -6924.90000000000055 0 0 0 0 0
376 1 3 31.1018 -6918.75 0 0 0 0 0
377 1 3 31.1018 -6912.60000000000036 0 0 0 0 0
378 1 3 31.1018 -6906.45000000000073 0 0 0 0 0
379 1 3 31.1018 -6900.30000000000018 0 0 0 0 0
380 1 3 31.1018 -6894.15000000000055 0 0 0 0 0
381 1 3 31.1018 -6888 0 0 0 0 0
382 1 3 31.1018 -6881.85000000000036 0 0 0 0 0
383 1 3 31.1018 -6875.70000000000073 0 0 0 0 0
384 1 3 31.1018 -6869.55000000000018 0 0 0 0 0
385 1 3 31.1018 -6863.40000000000055 0 0 0 0 0
386 1 3 31.1018 -6857.25 0 0 0 0 0
387 1 3 31.1018 -6851.10000000000036 0 0 0 0 0
388 1 3 31.1018 -6844.95000000000073 0 0 0 0 0
389 1 3 31.1018 -6838.80000000000018 0 0 0 0 0
390 1 3 31.1018 -6832.65000000000055 0 0 0 0 0
391 1 3 31.1018 -6826.5 0 0 0 0 0
392 1 3 31.1018 -6820.35000000000036 0 0 0 0 0
393 1 3 31.1018 -6814.20000000000073 0 0 0 0 0
394 1 3 31.1018 -6808.05000000000018 0 0 0 0 0
395 1 3 31.1018 -6801.90000000000055 0 0 0 0 0
396 1 3 31.1018 -6795.75 0 0 0 0 0
397 1 3 31.1018 -6789.60000000000036 0 0 0 0 0
398 1 3 31.1018 -6783.45000000000073 0 0 0 0 0
399 1 3 31.1018 -6777.30000000000018 0 0 0 0 0
400 1 3 31.1018 -6771.15000000000055 0 0 0 0 0
401 1 3 31.1018 -6765 0 0 0 0 0
402 1 3 31.1018 -6758.85000000000036 0 0 0 0 0
403 1 3 31.1018 -6752.70000000000073 0 0 0 0 0
404 1 3 31.1018 -6746.55000000000018 0 0 0 0 0
405 1 3 31.1018 -6740.40000000000055 0 0 0 0 0
406 1 3 31.1018 -6734.25 0 0 0 0 0
407 1 3 31.1018 -6728.10000000000036 0 0 0 0 0
408 1 3 31.1018 -6721.95000000000073 0 0 0 0 0
409 1 3 31.1018 -6715.80000000000018 0 0 0 0 0
410 1 3 31.1018 -6709.65000000000055 0 0 0 0 0
411 1 3 31.1018 -6703.5 0 0 0 0 0
412 1 3 31.1018 -6697.35000000000036 0 0 0 0 0
413 1 3 31.1018 -6691.20000000000073 0 0 0 0 0
414 1 3 31.1018 -6685.05000000000018 0 0 0 0 0
415 1 3 31.1018 -6678.90000000000055 0 0 0 0 0
416 1 3 31.1018 -6672.75 0 0 0 0 0
417 1 3 31.1018 -6666.60000000000036 0 0 0 0 0
418 1 3 31.1018 -6660.45000000000073 0 0 0 0 0
419 1 3 31.1018 -6654.30000000000018 0 0 0 0 0
420 1 3 31.1018 -6648.15000000000055 0 0 0 0 0
421 1 3 31.1018 -6642 0 0 0 0 0
422 1 3 31.1018 -6635.85000000000036 0 0 0 0 0
423 1 3 31.1018 -6629.70000000000073 0 0 0 0 0
424 1 3 31.1018 -6623.55000000000018 0 0 0 0 0
425 1 3 31.1018 -6617.40000000000055 0 0 0 0 0
426 1 3 31.1018 -6611.25 0 0 0 0 0
427 1 3 31.1018 -6605.10000000000036 0 0 0 0 0
428 1 3 31.1018 -6598.95000000000073 0 0 0 0 0
429 1 3 31.1018 -6592.80000000000018 0 0 0 0 0
430 1 3 31.1018 -6586.65000000000055 0 0 0 0 0
431 1 3 31.1018 -6580.5 0 0 0 0 0
432 1 3 31.1018 -6574.35000000000036 0 0 0 0 0
433 1 3 31.1018 -6568.20000000000073 0 0 0 0 0
434 1 3 31.1018 -6562.05000000000018 0 0 0 0 0
435 1 3 31.1018 -6555.90000000000055 0 0 0 0 0
436 1 3 31.1018 -6549.75 0 0 0 0 0
437 1 3 31.1018 -6543.60000000000036 0 0 0 0 0
438 1 3 31.1018 -6537.45000000000073 0 0 0 0 0
439 1 3 31.1018 -6531.30000000000018 0 0 0 0 0
440 1 3 31.1018 -6525.15000000000055 0 0 0 0 0
441 1 3 31.1018 -6519 0 0 0 0 0
442 1 3 31.1018 -6512.85000000000036 0 0 0 0 0
443 1 3 31.1018 -6506.70000000000073 0 0 0 0 0
444 1 3 31.1018 -6500.55000000000018 0 0 0 0 0
445 1 3 31.1018 -6494.40000000000055 0 0 0 0 0
446 1 3 31.1018 -6488.25 0 0 0 0 0
447 1 3 31.1018 -6482.10000000000036 0 0 0 0 0
448 1 3 31.1018 -6475.95000000000073 0 0 0 0 0
449 1 3 31.1018 -6469.80000000000018 0 0 0 0 0
450 1 3 31.1018 -6463.65000000000055 0 0 0 0 0
451 1 3 31.1018 -6457.5 0 0 0 0 0
452 1 3 31.1018 -6451.35000000000036 0 0 0 0 0
453 1 3 31.1018 -6445.20000000000073 0 0 0 0 0
454 1 3 31.1018 -6439.05000000000018 0 0 0 0 0
455 1 3 31.1018 -6432.90000000000055 0 0 0 0 0
456 1 3 31.1018 -6426.75 0 0 0 0 0
457 1 3 31.1018 -6420.60000000000036 0 0 0 0 0
458 1 3 31.1018 -6414.45000000000073 0 0 0 0 0
459 1 3 31.1018 -6408.30000000000018 0 0 0 0 0
460 1 3 31.1018 -6402.15000000000055 0 0 0 0 0
461 1 3 31.1018 -6396 0 0 0 0 0
462 1 3 31.1018 -6389.85000000000036 0 0 0 0 0
463 1 3 31.1018 -6383.70000000000073 0 0 0 0 0
464 1 3 31.1018 -6377.55000000000018 0 0 0 0 0
465 1 3 31.1018 -6371.40000000000055 0 0 0 0 0
466 1 3 31.1018 -6365.25 0 0 0 0 0
467 1 3 31.1018 -6359.10000000000036 0 0 0 0 0
468 1 3 31.1018 -6352.95000000000073 0 0 0 0 0
469 1 3 31.1018 -6346.80000000000018 0 0 0 0 0
470 1 3 31.1018 -6340.65000000000055 0 0 0 0 0
471 1 3 31.1018 -6334.5 0 0 0 0 0
472 1 3 31.1018 -6328.35000000000036 0 0 0 0 0
473 1 3 31.1018 -6322.20000000000073 0 0 0 0 0
474 1 3 31.1018 -6316.05000000000018 0 0 0 0 0
475 1 3 31.1018 -6309.90000000000055 0 0 0 0 0
476 1 3 31.1018 -6303.75 0 0 0 0 0
477 1 3 31.1018 -6297.60000000000036 0 0 0 0 0
478 1 3 31.1018 -6291.45000000000073 0 0 0 0 0
479 1 3 31.1018 -6285.30000000000018 0 0 0 0 0
480 1 3 31.1018 -6279.15000000000055 0 0 0 0 0
481 1 3 31.1018 -6273 0 0 0 0 0
482 1 3 31.1018 -6266.85000000000036 0 0 0 0 0
483 1 3 31.1018 -6260.70000000000073 0 0 0 0 0
484 1 3 31.1018 -6254.55000000000018 0 0 0 0 0
485 1 3 31.1018 -6248.40000000000055 0 0 0 0 0
486 1 3 31.1018 -6242.25 0 0 0 0 0
487 1 3 31.1018 -6236.10000000000036 0 0 0 0 0
488 1 3 31.1018 -6229.95000000000073 0 0 0 0 0
489 1 3 31.1018 -6223.80000000000018 0 0 0 0 0
490 1 3 31.1018 -6217.65000000000055 0 0 0 0 0
491 1 3 31.1018 -6211.5 0 0 0 0 0
492 1 3 31.1018 -6205.35000000000036 0 0 0 0 0
493 1 3 31.1018 -6199.20000000000073 0 0 0 0 0
494 1 3 31.1018 -6193.05000000000018 0 0 0 0 0
495 1 3 31.1018 -6186.90000000000055 0 0 0 0 0
496 1 3 31.1018 -6180.75 0 0 0 0 0
497 1 3 31.1018 -6174.60000000000036 0 0 0 0 0
498 1 3 31.1018 -6168.45000000000073 0 0 0 0 0
499 1 3 31.1018 -6162.30000000000018 0 0 0 0 0
500 1 3 31.1018 -6156.15000000000055 0 0 0 0 0
501 1 3 31.1018 -6150 0 0 0 0 0
502 1 3 31.1018 -6143.85000000000036 0 0 0 0 0
503 1 3 31.1018 -6137.70000000000073 0 0 0 0 0
504 1 3 31.1018 -6131.55000000000018 0 0 0 0 0
505 1 3 31.1018 -6125.40000000000055 0 0 0 0 0
506 1 3 31.1018 -6119.25 0 0 0 0 0
507 1 3 31.1018 -6113.10000000000036 0 0 0 0 0
508 1 3 31.1018 -6106.95000000000073 0 0 0 0 0
509 1 3 31.1018 -6100.80000000000018 0 0 0 0 0
510 1 3 31.1018 -6094.65000000000055 0 0 0 0 0
511 1 3 31.1018 -6088.5 0 0 0 0 0
512 1 3 31.1018 -6082.35000000000036 0 0 0 0 0
513 1 3 31.1018 -6076.20000000000073 0 0 0 0 0
514 1 3 31.1018 -6070.05000000000018 0 0 0 0 0
515 1 3 31.1018 -6063.90000000000055 0 0 0 0 0
516 1 3 31.1018 -6057.75 0 0 0 0 0
517 1 3 31.1018 -6051.60000000000036 0 0 0 0 0
518 1 3 31.1018 -6045.45000000000073 0 0 0 0 0
519 1 3 31.1018 -6039.30000000000018 0 0 0 0 0
520 1 3 31.1018 -6033.15000000000055 0 0 0 0 0
521 1 3 31.1018 -6027 0 0 0 0 0
522 1 3 31.1018 -6020.85000000000036 0 0 0 0 0
523 1 3 31.1018 -6014.70000000000073 0 0 0 0 0
524 1 3 31.1018 -6008.55000000000018 0 0 0 0 0
525 1 3 31.1018 -6002.40000000000055 0 0 0 0 0
526 1 3 31.1018 -5996.25 0 0 0 0 0
527 1 3 31.1018 -5990.10000000000036 0 0 0 0 0
528 1 3 31.1018 -5983.95000000000073 0 0 0 0 0
529 1 3 31.1018 -5977.80000000000018 0 0 0 0 0
530 1 3 31.1018 -5971.65000000000055 0 0 0 0 0
531 1 3 31.1018 -5965.5 0 0 0 0 0
532 1 3 31.1018 -5959.35000000000036 0 0 0 0 0
533 1 3 31.1018 -5953.20000000000073 0 0 0 0 0
534 1 3 31.1018 -5947.05000000000018 0 0 0 0 0
535 1 3 31.1018 -5940.90000000000055 0 0 0 0 0
536 1 3 31.1018 -5934.75 0 0 0 0 0
537 1 3 31.1018 -5928.60000000000036 0 0 0 0 0
538 1 3 31.1018 -5922.45000000000073 0 0 0 0 0
539 1 3 31.1018 -5916.30000000000018 0 0 0 0 0
540 1 3 31.1018 -5910.15000000000055 0 0 0 0 0
541 1 3 31.1018 -5904 0 0 0 0 0
542 1 3 31.1018 -5897.85000000000036 0 0 0 0 0
543 1 3 31.1018 -5891.70000000000073 0 0 0 0 0
544 1 3 31.1018 -5885.55000000000018 0 0 0 0 0
545 1 3 31.1018 -5879.40000000000055 0 0 0 0 0
546 1 3 31.1018 -5873.25 0 0 0 0 0
547 1 3 31.1018 -5867.10000000000036 0 0 0 0 0
548 1 3 31.1018 -5860.95000000000073 0 0 0 0 0
549 1 3 31.1018 -5854.80000000000018 0 0 0 0 0
550 1 3 31.1018 -5848.65000000000055 0 0 0 0 0
551 1 3 31.1018 -5842.5 0 0 0 0 0
552 1 3 31.1018 -5836.35000000000036 0 0 0 0 0
553 1 3 31.1018 -5830.20000000000073 0 0 0 0 0
554 1 3 31.1018 -5824.05000000000018 0 0 0 0 0
555 1 3 31.1018 -5817.90000000000055 0 0 0 0 0
556 1 3 31.1018 -5811.75 0 0 0 0 0
557 1 3 31.1018 -5805.60000000000036 0 0 0 0 0
558 1 3 31.1018 -5799.45000000000073 0 0 0 0 0
559 1 3 31.1018 -5793.30000000000018 0 0 0 0 0
560 1 3 31.1018 -5787.15000000000055 0 0 0 0 0
561 1 3 31.1018 -5781 0 0 0 0 0
562 1 3 31.1018 -5774.85000000000036 0 0 0 0 0
563 1 3 31.1018 -5768.70000000000073 0 0 0 0 0
564 1 3 31.1018 -5762.55000000000018 0 0 0 0 0
565 1 3 31.1018 -5756.40000000000055 0 0 0 0 0
566 1 3 31.1018 -5750.25 0 0 0 0 0
567 1 3 31.1018 -5744.10000000000036 0 0 0 0 0
568 1 3 31.1018 -5737.95000000000073 0 0 0 0 0
569 1 3 31.1018 -5731.80000000000018 0 0 0 0 0
570 1 3 31.1018 -5725.65000000000055 0 0 0 0 0
571 1 3 31.1018 -5719.5 0 0 0 0 0
572 1 3 31.1018 -5713.35000000000036 0 0 0 0 0
573 1 3 31.1018 -5707.20000000000073 0 0 0 0 0
574 1 3 31.1018 -5701.05000000000018 0 0 0 0 0
575 1 3 31.1018 -5694.90000000000055 0 0 0 0 0
576 1 3 31.1018 -5688.75 0 0 0 0 0
577 1 3 31.1018 -5682.60000000000036 0 0 0 0 0
578 1 3 31.1018 -5676.45000000000073 0 0 0 0 0
579 1 3 31.1018 -5670.30000000000018 0 0 0 0 0
580 1 3 31.1018 -5664.15000000000055 0 0 0 0 0
581 1 3 31.1018 -5658 0 0 0 0 0
582 1 3 31.1018 -5651.85000000000036 0 0 0 0 0
583 1 3 31.1018 -5645.70000000000073 0 0 0 0 0
584 1 3 31.1018 -5639.55000000000018 0 0 0 0 0
585 1 3 31.1018 -5633.40000000000055 0 0 0 0 0
586 1 3 31.1018 -5627.25 0 0 0 0 0
587 1 3 31.1018 -5621.10000000000036 0 0 0 0 0
588 1 3 31.1018 -5614.95000000000073 0 0 0 0 0
589 1 3 31.1018 -5608.80000000000018 0 0 0 0 0
590 1 3 31.1018 -5602.65000000000055 0 0 0 0 0
591 1 3 31.1018 -5596.5 0 0 0 0 0
592 1 3 31.1018 -5590.35000000000036 0 0 0 0 0
593 1 3 31.1018 -5584.20000000000073 0 0 0 0 0
594 1 3 31.1018 -5578.05000000000018 0 0 0 0 0
595 1 3 31.1018 -5571.90000000000055 0 0 0 0 0
596 1 3 31.1018 -5565.75 0 0 0 0 0
597 1 3 31.1018 -5559.60000000000036 0 0 0 0 0
598 1 3 31.1018 -5553.45000000000073 0 0 0 0 0
599 1 3 31.1018 -5547.30000000000018 0 0 0 0 0
600 1 3 31.1018 -5541.15000000000055 0 0 0 0 0
601 1 3 31.1018 -5535 0 0 0 0 0
602 1 3 31.1018 -5528.85000000000036 0 0 0 0 0
603 1 3 31.1018 -5522.70000000000073 0 0 0 0 0
604 1 3 31.1018 -5516.55000000000018 0 0 0 0 0
605 1 3 31.1018 -5510.40000000000055 0 0 0 0 0
606 1 3 31.1018 -5504.25 0 0 0 0 0
607 1 3 31.1018 -5498.10000000000036 0 0 0 0 0
608 1 3 31.1018 -5491.95000000000073 0 0 0 0 0
609 1 3 31.1018 -5485.80000000000018 0 0 0 0 0
610 1 3 31.1018 -5479.65000000000055 0 0 0 0 0
611 1 3 31.1018 -5473.5 0 0 0 0 0
612 1 3 31.1018 -5467.35000000000036 0 0 0 0 0
613 1 3 31.1018 -5461.20000000000073 0 0 0 0 0
614 1 3 31.1018 -5455.05000000000018 0 0 0 0 0
615 1 3 31.1018 -5448.90000000000055 0 0 0 0 0
616 1 3 31.1018 -5442.75 0 0 0 0 0
617 1 3 31.1018 -5436.60000000000036 0 0 0 0 0
618 1 3 31.1018 -5430.45000000000073 0 0 0 0 0
619 1 3 31.1018 -5424.30000000000018 0 0 0 0 0
620 1 3 31.1018 -5418.15000000000055 0 0 0 0 0
621 1 3 31.1018 -5412 0 0 0 0 0
622 1 3 31.1018 -5405.85000000000036 0 0 0 0 0
623 1 3 31.1018 -5399.70000000000073 0 0 0 0 0
624 1 3 31.1018 -5393.55000000000018 0 0 0 0 0
625 1 3 31.1018 -5387.40000000000055 0 0 0 0 0
626 1 3 31.1018 -5381.25 0 0 0 0 0
627 1 3 31.1018 -5375.10000000000036 0 0 0 0 0
628 1 3 31.1018 -5368.95000000000073 0 0 0 0 0
629 1 3 31.1018 -5362.80000000000018 0 0 0 0 0
630 1 3 31.1018 -5356.65000000000055 0 0 0 0 0
631 1 3 31.1018 -5350.5 0 0 0 0 0
632 1 3 31.1018 -5344.35000000000036 0 0 0 0 0
633 1 3 31.1018 -5338.20000000000073 0 0 0 0 0
634 1 3 31.1018 -5332.05000000000018 0 0 0 0 0
635 1 3 31.1018 -5325.90000000000055 0 0 0 0 0
636 1 3 31.1018 -5319.75 0 0 0 0 0
637 1 3 31.1018 -5313.60000000000036 0 0 0 0 0
638 1 3 31.1018 -5307.45000000000073 0 0 0 0 0
639 1 3 31.1018 -5301.30000000000018 0 0 0 0 0
640 1 3 31.1018 -5295.15000000000055 0 0 0 0 0
641 1 3 31.1018 -5289 0 0 0 0 0
642 1 3 31.1018 -5282.85000000000036 0 0 0 0 0
643 1 3 31.1018 -5276.70000000000073 0 0 0 0 0
644 1 3 31.1018 -5270.55000000000018 0 0 0 0 0
645 1 3 31.1018 -5264.40000000000055 0 0 0 0 0
646 1 3 31.1018 -5258.25 0 0 0 0 0
647 1 3 31.1018 -5252.10000000000036 0 0 0 0 0
648 1 3 31.1018 -5245.95000000000073 0 0 0 0 0
649 1 3 31.1018 -5239.80000000000018 0 0 0 0 0
650 1 3 31.1018 -5233.65000000000055 0 0 0 0 0
651 1 3 31.1018 -5227.5 0 0 0 0 0
652 1 3 31.1018 -5221.35000000000036 0 0 0 0 0
653 1 3 31.1018 -5215.20000000000073 0 0 0 0 0
654 1 3 31.1018 -5209.05000000000018 0 0 0 0 0
655 1 3 31.1018 -5202.90000000000055 0 0 0 0 0
656 1 3 31.1018 -5196.75 0 0 0 0 0
657 1 3 31.1018 -5190.60000000000036 0 0 0 0 0
658 1 3 31.1018 -5184.45000000000073 0 0 0 0 0
659 1 3 31.1018 -5178.30000000000018 0 0 0 0 0
660 1 3 31.1018 -5172.15000000000055 0 0 0 0 0
661 1 3 31.1018 -5166 0 0 0 0 0
662 1 3 31.1018 -5159.85000000000036 0 0 0 0 0
663 1 3 31.1018 -5153.70000000000073 0 0 0 0 0
664 1 3 31.1018 -5147.55000000000018 0 0 0 0 0
665 1 3 31.1018 -5141.40000000000055 0 0 0 0 0
666 1 3 31.1018 -5135.25 0 0 0 0 0
667 1 3 31.1018 -5129.10000000000036 0 0 0 0 0
668 1 3 31.1018 -5122.95000000000073 0 0 0 0 0
669 1 3 31.1018 -5116.80000000000018 0 0 0 0 0