LAMMPS (23 Jun 2022 - Update 1)
  using 1 OpenMP thread(s) per MPI task
variable num index 0 1 2 3 4 5 6 7 8 9 10 11 12 13 14 15 16 17 18 19 20 21 22 23 24 25 26 27 28 29 30 31 32 33 34 35 36 37 38 39 40 41 42 43 44 45 46 47 48 49 50 51 52 53 54 55 56 57 58 59 60 61 62 63 64 65 66 67 68 69 70 71 72 73 74 75 76 77 78 79 80 81 82 83 84 85 86 87 88 89 90 91 92 93 94 95 96 97 98 99

label startloop

include granular.in
### Simulation of contact between two chain

##################### Simulation setup ####################

units micro                              # units
dimension	3                            # dimension
boundary	p p p                        # boundary condition p: periodic
atom_style	sphere                       # atom style
#processors * * 1

####################### Parameter ##################################

variable ind equal ${num}
variable ind equal 0

#variable lat0 equal 1                    #
variable lat1 equal 3+((300)*0.01)+(v_ind*0.01)        # Lattice distance of bottom chain
variable lat2 equal 3                    # Lattice distance of top chain
variable d1 equal 3                      # Diamter of particle at bottom chain
variable d2 equal 3                      # Diamter of particle at top chain
#variable d3 equal 1                      # Diamter of supporting particle

variable n2e1 equal 1000*v_lat2             # Half length of top chain. 1500 is number of particles
variable n1e1 equal 1.5*v_n2e1*(v_lat1/v_lat2)             # Half length of bottom chain, which is 1.5 time larger than top chain
variable n1e2 equal -v_n1e1
variable n2e2 equal -v_n2e1
#variable lenspr equal -(v_n2e1+100)           # length of the spring connecting top chain and supporting particle
#variable lenspr1 equal -v_lenspr-0.1         # Position of supporting particle upper bound
#variable lenspr2 equal -v_lenspr+0.1         # Position of supporting particle lower bound

variable den equal 2.2 #grams/cm^3      # micrometer^3=10^-12 cm^3 Density of materials

variable V1 equal (1/6)*PI*(v_d1^3)     # Volume of particle 1
variable V2 equal (1/6)*PI*(v_d2^3)     # Volume of particle 2
#variable V3 equal (1/6)*PI*(v_d3^3)     # Volume of particle 3

variable mass1 equal v_den*v_V1  # Mass of particle 1 (picograms)
variable mass2 equal v_den*v_V2  # Mass of particle 2
#variable mass3 equal v_den*v_V3  # Mass of particle 3

# E GPa to picogram/(micrometer-microsecond^2)= 10^3 Pa= 10^-6 GPa
# Force unit(picogram-micrometer/microsecond^2)=10^-9 N= 1nN
# Spring stiffness (force/distance) 10^-3 N/m

variable K0 equal (1500/50)*(10^5)             # Spring stiffness conneting top chain and sup particle
variable E equal 100*(10^6)                    # Young's Modulus using for Hertz/material model
variable PR equal 0.3                          # Poisson's ratio using for Hertz/material model
variable Fn equal -1000                        # Force apply to each particles in top chain
variable dt equal 0.00001                      # Time step units microsecond
variable lgv equal 0.5                         #damping for langevin thermostat for slider


################### Creating the model #################################
lattice sc ${lat1}                                                               # Bottom chain type1
lattice sc 6                                                               
Lattice spacing in x,y,z = 6 6 6

region box block ${n1e2} ${n1e1} -100 100 -100 100 units box
region box block -9000 ${n1e1} -100 100 -100 100 units box
region box block -9000 9000 -100 100 -100 100 units box
region substrate block ${n1e2} ${n1e1} -0.5 0.5 0 0.5 units box
region substrate block -9000 ${n1e1} -0.5 0.5 0 0.5 units box
region substrate block -9000 9000 -0.5 0.5 0 0.5 units box

create_box 2 box
Created orthogonal box = (-9000 -100 -100) to (9000 100 100)
  2 by 1 by 1 MPI processor grid
create_atoms 1 region substrate
Created 3000 atoms
  using lattice units in orthogonal box = (-9000 -100 -100) to (9000 100 100)
  create_atoms CPU = 0.002 seconds

lattice sc ${lat2}                                                             # Top chain type2
lattice sc 3                                                             
Lattice spacing in x,y,z = 3 3 3

region slider1 block ${n2e2} ${n2e1} -0.1 0.1 5.9 6.1 units box
region slider1 block -3000 ${n2e1} -0.1 0.1 5.9 6.1 units box
region slider1 block -3000 3000 -0.1 0.1 5.9 6.1 units box

create_atoms 2 region slider1
Created 2001 atoms
  using lattice units in orthogonal box = (-9000 -100 -100) to (9000 100 100)
  create_atoms CPU = 0.002 seconds

#lattice sc ${lat0}                                                             # Supporting particle type3

#region support block ${lenspr1} ${lenspr2} -0.1 0.1 7.9 8.1 units box

#create_atoms 3 region support

set type 1 diameter ${d1}                    # Set mass and diameter for each particles type
set type 1 diameter 3                    
Setting atom values ...
  3000 settings made for diameter
set type 1 mass ${mass1}
set type 1 mass 31.101767270539
Setting atom values ...
  3000 settings made for mass
set type 2 diameter ${d2}
set type 2 diameter 3
Setting atom values ...
  2001 settings made for diameter
set type 2 mass ${mass2}
set type 2 mass 31.101767270539
Setting atom values ...
  2001 settings made for mass
#set type 3 diameter ${d3}
#set type 3 mass ${mass3}

group substrate region substrate           # Define gorup
3000 atoms in group substrate
group slider1 region slider1
2001 atoms in group slider1
#group support region support
#group substrate_slider union substrate slider1

########################## Potential ###################################
pair_style granular
pair_coeff 1 1 hertz/material 0.00000001 0.001 ${PR} tangential mindlin NULL 0.1 0.01 damping viscoelastic              ########### set E between each particle in same type is small to neglect their interaction
pair_coeff 1 1 hertz/material 0.00000001 0.001 0.3 tangential mindlin NULL 0.1 0.01 damping viscoelastic              
pair_coeff 2 2 hertz/material 0.00000001 0.001 ${PR} tangential mindlin NULL 0.1 0.01 damping viscoelastic
pair_coeff 2 2 hertz/material 0.00000001 0.001 0.3 tangential mindlin NULL 0.1 0.01 damping viscoelastic
#pair_coeff 3 3 hertz/material ${E} 0.001 ${PR} tangential mindlin NULL 0.1 0.01 damping viscoelastic
pair_coeff 1 2 hertz/material ${E} 0.001 ${PR} tangential mindlin NULL 0.1 0.01 damping viscoelastic
pair_coeff 1 2 hertz/material 100000000 0.001 ${PR} tangential mindlin NULL 0.1 0.01 damping viscoelastic
pair_coeff 1 2 hertz/material 100000000 0.001 0.3 tangential mindlin NULL 0.1 0.01 damping viscoelastic
#pair_coeff 1 3 hertz/material 0.00000001 0.001 ${PR} tangential mindlin NULL 0.1 0.01 damping viscoelastic
#pair_coeff 2 3 hertz/material 0.00000001 0.001 ${PR} tangential mindlin NULL 0.1 0.01 damping viscoelastic
comm_modify     vel yes
neigh_modify    delay 0 every 1 check yes

### Compute properties ###

compute 1 slider1 com                      # Compute the center of mass of top chain
#compute 2 support com                      # Compute the center of mass of supporting particle

variable p0 equal "step"

variable slider_z equal "c_1[3]"          # output the position of top chain in z-direction

#variable distance equal "c_2[1]-c_1[1]"   # Distance between COM of top chain and supporting particle

thermo 100000
thermo_style custom step lx ly lz press pxx pyy pzz ke pe temp c_1[1] c_1[2] c_1[3] #c_2[1] c_2[2] c_2[3] v_distance

############### Fix ##################


############## Equilibrium the system with apply force ########################

fix force_slider1 slider1 setforce NULL 0 NULL                                # Fix top chain not to move in y-direction

fix f_sub substrate freeze                                                    # Freeze the bottom chain

fix rigid_top slider1 rigid/nve group 1 slider1 langevin 0 0 ${lgv} 6987532   # NVE+langevin
fix rigid_top slider1 rigid/nve group 1 slider1 langevin 0 0 0.5 6987532   
  1 rigid bodies with 2001 atoms

fix add slider1 addforce 0 0 ${Fn} every 1                                    # Add force to top layer
fix add slider1 addforce 0 0 -1000 every 1                                    

timestep ${dt}
timestep 1e-05

# fix  nve_1 slider1 nve

dump 		D1 all custom 100000 Equi_${num}_*.dump id type diameter mass xu yu zu fx fy fz
dump 		D1 all custom 100000 Equi_0_*.dump id type diameter mass xu yu zu fx fy fz
dump_modify D1 format 5 %.18g
dump_modify D1 format 7 %.18g

run 3000000
Generated 0 of 1 mixed pair_coeff terms from geometric mixing rule
Neighbor list info ...
  update every 1 steps, delay 0 steps, check yes
  max neighbors/atom: 2000, page size: 100000
  master list distance cutoff = 3.1
  ghost atom cutoff = 3.1
  binsize = 1.55, bins = 11613 130 130
  1 neighbor lists, perpetual/occasional/extra = 1 0 0
  (1) pair granular, perpetual
      attributes: half, newton on, size, history
      pair build: half/size/bin/newton
      stencil: half/bin/3d
      bin: standard
Per MPI rank memory allocation (min/avg/max) = 417.1 | 417.1 | 417.1 Mbytes
   Step           Lx             Ly             Lz           Press           Pxx            Pyy            Pzz           KinEng         PotEng          Temp          c_1[1]         c_1[2]         c_1[3]    
         0   18000          200            200            0              0              0              0              0              0              0              1.1971759e-13  0              6            
    100000   18000          200            200            0.00229385    -1.7950951e-35  0              0.0068815499   1196854.7      0              5.7791832e+10  1.1971759e-13  0              3.3177117    
    200000   18000          200            200            0.00088501655  5.4679519e-41  0              0.0026550497   333342.6       0              1.6095921e+10  1.1971759e-13  0              3.0561683    
    300000   18000          200            200            0.00021344295 -3.5901885e-35  0              0.00064032884  33730.854      0              1.6287422e+09  1.1971759e-13  0              3.0379284    
    400000   18000          200            200            9.2395985e-05  1.7951032e-35  0              0.00027718795  7560.4207      0              3.6506566e+08  1.1971759e-13  0              3.0083579    
    500000   18000          200            200           -3.0271267e-05  5.0759102e-41  0             -9.08138e-05    1009.3443      0              48737623       1.1971759e-13  0              3.0014131    
    600000   18000          200            200            0.0047631131  -1.7950949e-35  0              0.014289339    484.64727      0              23401882       1.1971759e-13  0              2.9985754    
    700000   18000          200            200            0.0017338771   4.4877431e-35  0              0.0052016312   0.083289265    0              4021.7405      1.1971759e-13  0              2.9992716    
    800000   18000          200            200            0.0024002859   1.7950978e-35  0              0.0072008576   1.0244052      0              49464.861      1.1971759e-13  0              2.9990949    
    900000   18000          200            200            0.0026428568  -4.4877337e-36  0              0.0079285705   0.21264486     0              10267.859      1.1971759e-13  0              2.999035     
   1000000   18000          200            200            0.0027297054   1.7950975e-35  0              0.0081891161   0.034553785    0              1668.4786      1.1971759e-13  0              2.999014     
   1100000   18000          200            200            0.0027608771  -1.7950964e-35  0              0.0082826314   0.0053717728   0              259.38368      1.1971759e-13  0              2.9990066    
   1200000   18000          200            200            0.0027720417  -2.24387e-36    0              0.0083161251   0.00081977449  0              39.583976      1.1971759e-13  0              2.9990039    
   1300000   18000          200            200            0.0027760321  -7.8535485e-36  0              0.0083280964   0.00012346965  0              5.9619078      1.1971759e-13  0              2.999003     
   1400000   18000          200            200            0.0027774559   7.0120969e-37  0              0.0083323677   1.8393817e-05  0              0.88817157     1.1971759e-13  0              2.9990026    
   1500000   18000          200            200            0.002777963    8.5145732e-45  0              0.0083338891   2.7142069e-06  0              0.13105934     1.1971759e-13  0              2.9990025    
   1600000   18000          200            200            0.0027781434  -2.8048387e-37  0              0.0083344302   3.9713634e-07  0              0.019176293    1.1971759e-13  0              2.9990025    
   1700000   18000          200            200            0.0027782074   1.0292667e-44  0              0.0083346223   5.7668191e-08  0              0.0027845906   1.1971759e-13  0              2.9990024    
   1800000   18000          200            200            0.0027782301  -3.0853226e-36  0              0.0083346904   8.3167811e-09  0              0.00040158759  1.1971759e-13  0              2.9990024    
   1900000   18000          200            200            0.0027782382  -1.9633871e-36  0              0.0083347145   1.1918357e-09  0              5.754948e-05   1.1971759e-13  0              2.9990024    
   2000000   18000          200            200            0.002778241   -3.6462904e-36  0              0.008334723    1.6982624e-10  0              8.2003014e-06  1.1971759e-13  0              2.9990024    
   2100000   18000          200            200            0.002778242    1.4024194e-36  0              0.008334726    2.4073673e-11  0              1.1624315e-06  1.1971759e-13  0              2.9990024    
   2200000   18000          200            200            0.0027782423   8.4145164e-37  0              0.008334727    3.3945963e-12  0              1.6391291e-07  1.1971759e-13  0              2.9990024    
   2300000   18000          200            200            0.0027782425   2.8048389e-37  0              0.0083347274   4.7590157e-13  0              2.2979584e-08  1.1971759e-13  0              2.9990024    
   2400000   18000          200            200            0.0027782425   2.8048389e-37  0              0.0083347275   6.6501708e-14  0              3.2111295e-09  1.1971759e-13  0              2.9990024    
   2500000   18000          200            200            0.0027782425   2.8048389e-37  0              0.0083347276   9.4018142e-15  0              4.5397996e-10  1.1971759e-13  0              2.9990024    
   2600000   18000          200            200            0.0027782425   1.6829033e-36  0              0.0083347276   1.2164432e-15  0              5.8737688e-11  1.1971759e-13  0              2.9990024    
   2700000   18000          200            200            0.0027782425  -1.1219355e-36  0              0.0083347276   2.3974505e-16  0              1.1576431e-11  1.1971759e-13  0              2.9990024    
   2800000   18000          200            200            0.0027782425   1.0303807e-44  0              0.0083347276   9.0660267e-18  0              4.3776598e-13  1.1971759e-13  0              2.9990024    
   2900000   18000          200            200            0.0027782425  -2.8048387e-37  0              0.0083347276   1.047127e-17   0              5.0562014e-13  1.1971759e-13  0              2.9990024    
   3000000   18000          200            200            0.0027782425  -8.4145162e-37  0              0.0083347276   7.7245363e-18  0              3.7299021e-13  1.1971759e-13  0              2.9990024    
Loop time of 876.462 on 2 procs for 3000000 steps with 5001 atoms

Performance: 2957343.985 ns/day, 0.000 hours/ns, 3422.852 timesteps/s
99.9% CPU use with 2 MPI tasks x 1 OpenMP threads

MPI task timing breakdown:
Section |  min time  |  avg time  |  max time  |%varavg| %total
---------------------------------------------------------------
Pair    | 296.76     | 300.05     | 303.35     |  19.0 | 34.23
Neigh   | 23.111     | 23.113     | 23.115     |   0.1 |  2.64
Comm    | 54.871     | 58.329     | 61.786     |  45.3 |  6.66
Output  | 0.61614    | 0.61618    | 0.61623    |   0.0 |  0.07
Modify  | 435.76     | 435.86     | 435.97     |   0.5 | 49.73
Other   |            | 58.48      |            |       |  6.67

Nlocal:         2500.5 ave        2501 max        2500 min
Histogram: 1 0 0 0 0 0 0 0 0 1
Nghost:            2.5 ave           3 max           2 min
Histogram: 1 0 0 0 0 0 0 0 0 1
Neighs:         1500.5 ave        1501 max        1500 min
Histogram: 1 0 0 0 0 0 0 0 0 1

Total # of neighbors = 3001
Ave neighs/atom = 0.60007998
Neighbor list builds = 172
Dangerous builds = 0

undump D1

############ Add spring between top chain to supp particle and then equilibrium  ###########

#fix sp1 support spring couple slider1 ${K0} ${lenspr} NULL NULL 0                                 # Add spring

#dump 		D2 all custom 100000 add_${num}*.dump id type diameter mass xu yu zu

#fix add1 all print 10 "${p0} ${distance} ${slider_z}" file add_distance_${num}.txt screen no      # out put step, distance(spring length), z-position of top chain

#run 1000000

#undump D2

#unfix add1

########## Pulling the supporting particle with constant velocity #############

#fix m1 support move linear 0.1 0 0 units box                                                      # apply constant velocity to supporting particles along x-direction V=0.1m/s

#fix move1 all print 100 "${p0} ${distance} ${slider_z}" file move_distance_${num}.txt screen no

#dump 		1 all custom 50000 move_${num}_*.dump id type diameter mass xu yu zu

#run 1000000

clear
  using 1 OpenMP thread(s) per MPI task

next num

jump SELF startloop

include granular.in
### Simulation of contact between two chain

##################### Simulation setup ####################

units micro                              # units
dimension	3                            # dimension
boundary	p p p                        # boundary condition p: periodic
atom_style	sphere                       # atom style
#processors * * 1

####################### Parameter ##################################

variable ind equal ${num}
variable ind equal 1

#variable lat0 equal 1                    #
variable lat1 equal 3+((300)*0.01)+(v_ind*0.01)        # Lattice distance of bottom chain
variable lat2 equal 3                    # Lattice distance of top chain
variable d1 equal 3                      # Diamter of particle at bottom chain
variable d2 equal 3                      # Diamter of particle at top chain
#variable d3 equal 1                      # Diamter of supporting particle

variable n2e1 equal 1000*v_lat2             # Half length of top chain. 1500 is number of particles
variable n1e1 equal 1.5*v_n2e1*(v_lat1/v_lat2)             # Half length of bottom chain, which is 1.5 time larger than top chain
variable n1e2 equal -v_n1e1
variable n2e2 equal -v_n2e1
#variable lenspr equal -(v_n2e1+100)           # length of the spring connecting top chain and supporting particle
#variable lenspr1 equal -v_lenspr-0.1         # Position of supporting particle upper bound
#variable lenspr2 equal -v_lenspr+0.1         # Position of supporting particle lower bound

variable den equal 2.2 #grams/cm^3      # micrometer^3=10^-12 cm^3 Density of materials

variable V1 equal (1/6)*PI*(v_d1^3)     # Volume of particle 1
variable V2 equal (1/6)*PI*(v_d2^3)     # Volume of particle 2
#variable V3 equal (1/6)*PI*(v_d3^3)     # Volume of particle 3

variable mass1 equal v_den*v_V1  # Mass of particle 1 (picograms)
variable mass2 equal v_den*v_V2  # Mass of particle 2
#variable mass3 equal v_den*v_V3  # Mass of particle 3

# E GPa to picogram/(micrometer-microsecond^2)= 10^3 Pa= 10^-6 GPa
# Force unit(picogram-micrometer/microsecond^2)=10^-9 N= 1nN
# Spring stiffness (force/distance) 10^-3 N/m

variable K0 equal (1500/50)*(10^5)             # Spring stiffness conneting top chain and sup particle
variable E equal 100*(10^6)                    # Young's Modulus using for Hertz/material model
variable PR equal 0.3                          # Poisson's ratio using for Hertz/material model
variable Fn equal -1000                        # Force apply to each particles in top chain
variable dt equal 0.00001                      # Time step units microsecond
variable lgv equal 0.5                         #damping for langevin thermostat for slider


################### Creating the model #################################
lattice sc ${lat1}                                                               # Bottom chain type1
lattice sc 6.01                                                               
Lattice spacing in x,y,z = 6.01 6.01 6.01

region box block ${n1e2} ${n1e1} -100 100 -100 100 units box
region box block -9015 ${n1e1} -100 100 -100 100 units box
region box block -9015 9015 -100 100 -100 100 units box
region substrate block ${n1e2} ${n1e1} -0.5 0.5 0 0.5 units box
region substrate block -9015 ${n1e1} -0.5 0.5 0 0.5 units box
region substrate block -9015 9015 -0.5 0.5 0 0.5 units box

create_box 2 box
Created orthogonal box = (-9015 -100 -100) to (9015 100 100)
  2 by 1 by 1 MPI processor grid
create_atoms 1 region substrate
Created 3000 atoms
  using lattice units in orthogonal box = (-9015 -100 -100) to (9015 100 100)
  create_atoms CPU = 0.002 seconds

lattice sc ${lat2}                                                             # Top chain type2
lattice sc 3                                                             
Lattice spacing in x,y,z = 3 3 3

region slider1 block ${n2e2} ${n2e1} -0.1 0.1 5.9 6.1 units box
region slider1 block -3000 ${n2e1} -0.1 0.1 5.9 6.1 units box
region slider1 block -3000 3000 -0.1 0.1 5.9 6.1 units box

create_atoms 2 region slider1
Created 2001 atoms
  using lattice units in orthogonal box = (-9015 -100 -100) to (9015 100 100)
  create_atoms CPU = 0.001 seconds

#lattice sc ${lat0}                                                             # Supporting particle type3

#region support block ${lenspr1} ${lenspr2} -0.1 0.1 7.9 8.1 units box

#create_atoms 3 region support

set type 1 diameter ${d1}                    # Set mass and diameter for each particles type
set type 1 diameter 3                    
Setting atom values ...
  3000 settings made for diameter
set type 1 mass ${mass1}
set type 1 mass 31.101767270539
Setting atom values ...
  3000 settings made for mass
set type 2 diameter ${d2}
set type 2 diameter 3
Setting atom values ...
  2001 settings made for diameter
set type 2 mass ${mass2}
set type 2 mass 31.101767270539
Setting atom values ...
  2001 settings made for mass
#set type 3 diameter ${d3}
#set type 3 mass ${mass3}

group substrate region substrate           # Define gorup
3000 atoms in group substrate
group slider1 region slider1
2001 atoms in group slider1
#group support region support
#group substrate_slider union substrate slider1

########################## Potential ###################################
pair_style granular
pair_coeff 1 1 hertz/material 0.00000001 0.001 ${PR} tangential mindlin NULL 0.1 0.01 damping viscoelastic              ########### set E between each particle in same type is small to neglect their interaction
pair_coeff 1 1 hertz/material 0.00000001 0.001 0.3 tangential mindlin NULL 0.1 0.01 damping viscoelastic              
pair_coeff 2 2 hertz/material 0.00000001 0.001 ${PR} tangential mindlin NULL 0.1 0.01 damping viscoelastic
pair_coeff 2 2 hertz/material 0.00000001 0.001 0.3 tangential mindlin NULL 0.1 0.01 damping viscoelastic
#pair_coeff 3 3 hertz/material ${E} 0.001 ${PR} tangential mindlin NULL 0.1 0.01 damping viscoelastic
pair_coeff 1 2 hertz/material ${E} 0.001 ${PR} tangential mindlin NULL 0.1 0.01 damping viscoelastic
pair_coeff 1 2 hertz/material 100000000 0.001 ${PR} tangential mindlin NULL 0.1 0.01 damping viscoelastic
pair_coeff 1 2 hertz/material 100000000 0.001 0.3 tangential mindlin NULL 0.1 0.01 damping viscoelastic
#pair_coeff 1 3 hertz/material 0.00000001 0.001 ${PR} tangential mindlin NULL 0.1 0.01 damping viscoelastic
#pair_coeff 2 3 hertz/material 0.00000001 0.001 ${PR} tangential mindlin NULL 0.1 0.01 damping viscoelastic
comm_modify     vel yes
neigh_modify    delay 0 every 1 check yes

### Compute properties ###

compute 1 slider1 com                      # Compute the center of mass of top chain
#compute 2 support com                      # Compute the center of mass of supporting particle

variable p0 equal "step"

variable slider_z equal "c_1[3]"          # output the position of top chain in z-direction

#variable distance equal "c_2[1]-c_1[1]"   # Distance between COM of top chain and supporting particle

thermo 100000
thermo_style custom step lx ly lz press pxx pyy pzz ke pe temp c_1[1] c_1[2] c_1[3] #c_2[1] c_2[2] c_2[3] v_distance

############### Fix ##################


############## Equilibrium the system with apply force ########################

fix force_slider1 slider1 setforce NULL 0 NULL                                # Fix top chain not to move in y-direction

fix f_sub substrate freeze                                                    # Freeze the bottom chain

fix rigid_top slider1 rigid/nve group 1 slider1 langevin 0 0 ${lgv} 6987532   # NVE+langevin
fix rigid_top slider1 rigid/nve group 1 slider1 langevin 0 0 0.5 6987532   
  1 rigid bodies with 2001 atoms

fix add slider1 addforce 0 0 ${Fn} every 1                                    # Add force to top layer
fix add slider1 addforce 0 0 -1000 every 1                                    

timestep ${dt}
timestep 1e-05

# fix  nve_1 slider1 nve

dump 		D1 all custom 100000 Equi_${num}_*.dump id type diameter mass xu yu zu fx fy fz
dump 		D1 all custom 100000 Equi_1_*.dump id type diameter mass xu yu zu fx fy fz
dump_modify D1 format 5 %.18g
dump_modify D1 format 7 %.18g

run 3000000
Generated 0 of 1 mixed pair_coeff terms from geometric mixing rule
Neighbor list info ...
  update every 1 steps, delay 0 steps, check yes
  max neighbors/atom: 2000, page size: 100000
  master list distance cutoff = 3.1
  ghost atom cutoff = 3.1
  binsize = 1.55, bins = 11633 130 130
  1 neighbor lists, perpetual/occasional/extra = 1 0 0
  (1) pair granular, perpetual
      attributes: half, newton on, size, history
      pair build: half/size/bin/newton
      stencil: half/bin/3d
      bin: standard
Per MPI rank memory allocation (min/avg/max) = 417.8 | 417.8 | 417.8 Mbytes
   Step           Lx             Ly             Lz           Press           Pxx            Pyy            Pzz           KinEng         PotEng          Temp          c_1[1]         c_1[2]         c_1[3]    
         0   18030          200            200            0              0              0              0              0              0              0              1.1971759e-13  0              6            
    100000   18030          200            200            0.0022346916   7.1684694e-35  0              0.0067040747   1154410.8      0              5.5742365e+10  1.1971759e-13  0              3.332187     
    200000   18030          200            200            0.00075331684 -3.584206e-35   0              0.0022599505   260100.82      0              1.2559338e+10  1.1971759e-13  0              3.0839073    
    300000   18030          200            200           -1.1582316e-05 -8.9605436e-36  0             -3.4746948e-05  137.84776      0              6656174.9      1.1971759e-13  0              3.043419     
    400000   18030          200            200           -2.1334226e-05 -3.5842013e-35  0             -6.4002677e-05  491.76887      0              23745759       1.1971759e-13  0              3.0050448    
    500000   18030          200            200            0.0034973404   0.0032587103   0              0.0072333109   2745.4496      0              1.3256793e+08  1.1971759e-13  0              2.9943083    
    600000   18030          200            200            0.0025677734   0.0021321901   0              0.00557113     2.4096396      0              116352.87      1.1971759e-13  0              2.9950533    
    700000   18030          200            200            0.004070639    0.0030896124   0              0.0091223046   22.130038      0              1068580.3      1.1971759e-13  0              2.9936763    
    800000   18030          200            200            0.0037150306   0.0029706769   0              0.0081744149   5.9447061      0              287048.58      1.1971759e-13  0              2.9940068    
    900000   18030          200            200            0.0037499719   0.002974465    0              0.0082754507   0.85052455     0              41068.787      1.1971759e-13  0              2.9939733    
   1000000   18030          200            200            0.0037751364   0.0029815366   0              0.0083438726   0.059601659    0              2877.9508      1.1971759e-13  0              2.9939471    
   1100000   18030          200            200            0.0037547197   0.0029759649   0              0.0082881942   0.00083492919  0              40.315743      1.1971759e-13  0              2.9939677    
   1200000   18030          200            200            0.0037639947   0.0029783877   0              0.0083135964   0.00021149731  0              10.212448      1.1971759e-13  0              2.9939584    
   1300000   18030          200            200            0.00376093     0.0029776237   0              0.0083051663   0.00016898288  0              8.1595787      1.1971759e-13  0              2.9939615    
   1400000   18030          200            200            0.0037616086   0.0029777891   0              0.0083070368   3.8454654e-05  0              1.8568376      1.1971759e-13  0              2.9939608    
   1500000   18030          200            200            0.0037615949   0.0029777877   0              0.0083069969   4.5899237e-06  0              0.22163099     1.1971759e-13  0              2.9939608    
   1600000   18030          200            200            0.0037615122   0.0029777663   0              0.0083067704   2.602632e-07   0              0.012567178    1.1971759e-13  0              2.9939609    
   1700000   18030          200            200            0.0037615659   0.0029777799   0              0.0083069179   1.019271e-09   0              4.9216951e-05  1.1971759e-13  0              2.9939608    
   1800000   18030          200            200            0.0037615434   0.0029777743   0              0.0083068558   2.3613179e-09  0              0.00011401959  1.1971759e-13  0              2.9939609    
   1900000   18030          200            200            0.0037615503   0.002977776    0              0.0083068749   1.2101243e-09  0              5.8432573e-05  1.1971759e-13  0              2.9939608    
   2000000   18030          200            200            0.003761549    0.0029777757   0              0.0083068713   2.338223e-10   0              1.1290442e-05  1.1971759e-13  0              2.9939608    
   2100000   18030          200            200            0.0037615489   0.0029777756   0              0.008306871    2.4170673e-11  0              1.1671153e-06  1.1971759e-13  0              2.9939608    
   2200000   18030          200            200            0.0037615491   0.0029777757   0              0.0083068717   1.0552642e-12  0              5.0954934e-08  1.1971759e-13  0              2.9939608    
   2300000   18030          200            200            0.003761549    0.0029777757   0              0.0083068713   2.4195861e-16  0              1.1683315e-11  1.1971759e-13  0              2.9939608    
   2400000   18030          200            200            0.003761549    0.0029777757   0              0.0083068714   2.1681931e-14  0              1.0469429e-09  1.1971759e-13  0              2.9939608    
   2500000   18030          200            200            0.003761549    0.0029777757   0              0.0083068714   8.0977066e-15  0              3.9100927e-10  1.1971759e-13  0              2.9939608    
   2600000   18030          200            200            0.003761549    0.0029777757   0              0.0083068714   1.3794376e-15  0              6.6608102e-11  1.1971759e-13  0              2.9939608    
   2700000   18030          200            200            0.003761549    0.0029777757   0              0.0083068714   1.6525591e-16  0              7.9796162e-12  1.1971759e-13  0              2.9939608    
   2800000   18030          200            200            0.003761549    0.0029777757   0              0.0083068714   1.628496e-17   0              7.8634243e-13  1.1971759e-13  0              2.9939608    
   2900000   18030          200            200            0.003761549    0.0029777757   0              0.0083068714   1.0280784e-18  0              4.9642227e-14  1.1971759e-13  0              2.9939608    
   3000000   18030          200            200            0.003761549    0.0029777757   0              0.0083068714   9.1621907e-18  0              4.424094e-13   1.1971759e-13  0              2.9939608    
Loop time of 720.437 on 2 procs for 3000000 steps with 5001 atoms

Performance: 3597813.889 ns/day, 0.000 hours/ns, 4164.136 timesteps/s
99.9% CPU use with 2 MPI tasks x 1 OpenMP threads

MPI task timing breakdown:
Section |  min time  |  avg time  |  max time  |%varavg| %total
---------------------------------------------------------------
Pair    | 157.3      | 158.42     | 159.54     |   8.9 | 21.99
Neigh   | 22.187     | 22.189     | 22.19      |   0.0 |  3.08
Comm    | 51.516     | 52.639     | 53.762     |  15.5 |  7.31
Output  | 0.654      | 0.65407    | 0.65414    |   0.0 |  0.09
Modify  | 428.79     | 428.9      | 429.01     |   0.5 | 59.53
Other   |            | 57.64      |            |       |  8.00

Nlocal:         2500.5 ave        2501 max        2500 min
Histogram: 1 0 0 0 0 0 0 0 0 1
Nghost:            2.5 ave           3 max           2 min
Histogram: 1 0 0 0 0 0 0 0 0 1
Neighs:         1235.5 ave        1236 max        1235 min
Histogram: 1 0 0 0 0 0 0 0 0 1

Total # of neighbors = 2471
Ave neighs/atom = 0.49410118
Neighbor list builds = 166
Dangerous builds = 0

undump D1

############ Add spring between top chain to supp particle and then equilibrium  ###########

#fix sp1 support spring couple slider1 ${K0} ${lenspr} NULL NULL 0                                 # Add spring

#dump 		D2 all custom 100000 add_${num}*.dump id type diameter mass xu yu zu

#fix add1 all print 10 "${p0} ${distance} ${slider_z}" file add_distance_${num}.txt screen no      # out put step, distance(spring length), z-position of top chain

#run 1000000

#undump D2

#unfix add1

########## Pulling the supporting particle with constant velocity #############

#fix m1 support move linear 0.1 0 0 units box                                                      # apply constant velocity to supporting particles along x-direction V=0.1m/s

#fix move1 all print 100 "${p0} ${distance} ${slider_z}" file move_distance_${num}.txt screen no

#dump 		1 all custom 50000 move_${num}_*.dump id type diameter mass xu yu zu

#run 1000000

clear
  using 1 OpenMP thread(s) per MPI task

next num

jump SELF startloop

include granular.in
### Simulation of contact between two chain

##################### Simulation setup ####################

units micro                              # units
dimension	3                            # dimension
boundary	p p p                        # boundary condition p: periodic
atom_style	sphere                       # atom style
#processors * * 1

####################### Parameter ##################################

variable ind equal ${num}
variable ind equal 2

#variable lat0 equal 1                    #
variable lat1 equal 3+((300)*0.01)+(v_ind*0.01)        # Lattice distance of bottom chain
variable lat2 equal 3                    # Lattice distance of top chain
variable d1 equal 3                      # Diamter of particle at bottom chain
variable d2 equal 3                      # Diamter of particle at top chain
#variable d3 equal 1                      # Diamter of supporting particle

variable n2e1 equal 1000*v_lat2             # Half length of top chain. 1500 is number of particles
variable n1e1 equal 1.5*v_n2e1*(v_lat1/v_lat2)             # Half length of bottom chain, which is 1.5 time larger than top chain
variable n1e2 equal -v_n1e1
variable n2e2 equal -v_n2e1
#variable lenspr equal -(v_n2e1+100)           # length of the spring connecting top chain and supporting particle
#variable lenspr1 equal -v_lenspr-0.1         # Position of supporting particle upper bound
#variable lenspr2 equal -v_lenspr+0.1         # Position of supporting particle lower bound

variable den equal 2.2 #grams/cm^3      # micrometer^3=10^-12 cm^3 Density of materials

variable V1 equal (1/6)*PI*(v_d1^3)     # Volume of particle 1
variable V2 equal (1/6)*PI*(v_d2^3)     # Volume of particle 2
#variable V3 equal (1/6)*PI*(v_d3^3)     # Volume of particle 3

variable mass1 equal v_den*v_V1  # Mass of particle 1 (picograms)
variable mass2 equal v_den*v_V2  # Mass of particle 2
#variable mass3 equal v_den*v_V3  # Mass of particle 3

# E GPa to picogram/(micrometer-microsecond^2)= 10^3 Pa= 10^-6 GPa
# Force unit(picogram-micrometer/microsecond^2)=10^-9 N= 1nN
# Spring stiffness (force/distance) 10^-3 N/m

variable K0 equal (1500/50)*(10^5)             # Spring stiffness conneting top chain and sup particle
variable E equal 100*(10^6)                    # Young's Modulus using for Hertz/material model
variable PR equal 0.3                          # Poisson's ratio using for Hertz/material model
variable Fn equal -1000                        # Force apply to each particles in top chain
variable dt equal 0.00001                      # Time step units microsecond
variable lgv equal 0.5                         #damping for langevin thermostat for slider


################### Creating the model #################################
lattice sc ${lat1}                                                               # Bottom chain type1
lattice sc 6.02                                                               
Lattice spacing in x,y,z = 6.02 6.02 6.02

region box block ${n1e2} ${n1e1} -100 100 -100 100 units box
region box block -9030 ${n1e1} -100 100 -100 100 units box
region box block -9030 9030 -100 100 -100 100 units box
region substrate block ${n1e2} ${n1e1} -0.5 0.5 0 0.5 units box
region substrate block -9030 ${n1e1} -0.5 0.5 0 0.5 units box
region substrate block -9030 9030 -0.5 0.5 0 0.5 units box

create_box 2 box
Created orthogonal box = (-9030 -100 -100) to (9030 100 100)
  2 by 1 by 1 MPI processor grid
create_atoms 1 region substrate
Created 3000 atoms
  using lattice units in orthogonal box = (-9030 -100 -100) to (9030 100 100)
  create_atoms CPU = 0.002 seconds

lattice sc ${lat2}                                                             # Top chain type2
lattice sc 3                                                             
Lattice spacing in x,y,z = 3 3 3

region slider1 block ${n2e2} ${n2e1} -0.1 0.1 5.9 6.1 units box
region slider1 block -3000 ${n2e1} -0.1 0.1 5.9 6.1 units box
region slider1 block -3000 3000 -0.1 0.1 5.9 6.1 units box

create_atoms 2 region slider1
Created 2001 atoms
  using lattice units in orthogonal box = (-9030 -100 -100) to (9030 100 100)
  create_atoms CPU = 0.001 seconds

#lattice sc ${lat0}                                                             # Supporting particle type3

#region support block ${lenspr1} ${lenspr2} -0.1 0.1 7.9 8.1 units box

#create_atoms 3 region support

set type 1 diameter ${d1}                    # Set mass and diameter for each particles type
set type 1 diameter 3                    
Setting atom values ...
  3000 settings made for diameter
set type 1 mass ${mass1}
set type 1 mass 31.101767270539
Setting atom values ...
  3000 settings made for mass
set type 2 diameter ${d2}
set type 2 diameter 3
Setting atom values ...
  2001 settings made for diameter
set type 2 mass ${mass2}
set type 2 mass 31.101767270539
Setting atom values ...
  2001 settings made for mass
#set type 3 diameter ${d3}
#set type 3 mass ${mass3}

group substrate region substrate           # Define gorup
3000 atoms in group substrate
group slider1 region slider1
2001 atoms in group slider1
#group support region support
#group substrate_slider union substrate slider1

########################## Potential ###################################
pair_style granular
pair_coeff 1 1 hertz/material 0.00000001 0.001 ${PR} tangential mindlin NULL 0.1 0.01 damping viscoelastic              ########### set E between each particle in same type is small to neglect their interaction
pair_coeff 1 1 hertz/material 0.00000001 0.001 0.3 tangential mindlin NULL 0.1 0.01 damping viscoelastic              
pair_coeff 2 2 hertz/material 0.00000001 0.001 ${PR} tangential mindlin NULL 0.1 0.01 damping viscoelastic
pair_coeff 2 2 hertz/material 0.00000001 0.001 0.3 tangential mindlin NULL 0.1 0.01 damping viscoelastic
#pair_coeff 3 3 hertz/material ${E} 0.001 ${PR} tangential mindlin NULL 0.1 0.01 damping viscoelastic
pair_coeff 1 2 hertz/material ${E} 0.001 ${PR} tangential mindlin NULL 0.1 0.01 damping viscoelastic
pair_coeff 1 2 hertz/material 100000000 0.001 ${PR} tangential mindlin NULL 0.1 0.01 damping viscoelastic
pair_coeff 1 2 hertz/material 100000000 0.001 0.3 tangential mindlin NULL 0.1 0.01 damping viscoelastic
#pair_coeff 1 3 hertz/material 0.00000001 0.001 ${PR} tangential mindlin NULL 0.1 0.01 damping viscoelastic
#pair_coeff 2 3 hertz/material 0.00000001 0.001 ${PR} tangential mindlin NULL 0.1 0.01 damping viscoelastic
comm_modify     vel yes
neigh_modify    delay 0 every 1 check yes

### Compute properties ###

compute 1 slider1 com                      # Compute the center of mass of top chain
#compute 2 support com                      # Compute the center of mass of supporting particle

variable p0 equal "step"

variable slider_z equal "c_1[3]"          # output the position of top chain in z-direction

#variable distance equal "c_2[1]-c_1[1]"   # Distance between COM of top chain and supporting particle

thermo 100000
thermo_style custom step lx ly lz press pxx pyy pzz ke pe temp c_1[1] c_1[2] c_1[3] #c_2[1] c_2[2] c_2[3] v_distance

############### Fix ##################


############## Equilibrium the system with apply force ########################

fix force_slider1 slider1 setforce NULL 0 NULL                                # Fix top chain not to move in y-direction

fix f_sub substrate freeze                                                    # Freeze the bottom chain

fix rigid_top slider1 rigid/nve group 1 slider1 langevin 0 0 ${lgv} 6987532   # NVE+langevin
fix rigid_top slider1 rigid/nve group 1 slider1 langevin 0 0 0.5 6987532   
  1 rigid bodies with 2001 atoms

fix add slider1 addforce 0 0 ${Fn} every 1                                    # Add force to top layer
fix add slider1 addforce 0 0 -1000 every 1                                    

timestep ${dt}
timestep 1e-05

# fix  nve_1 slider1 nve

dump 		D1 all custom 100000 Equi_${num}_*.dump id type diameter mass xu yu zu fx fy fz
dump 		D1 all custom 100000 Equi_2_*.dump id type diameter mass xu yu zu fx fy fz
dump_modify D1 format 5 %.18g
dump_modify D1 format 7 %.18g

run 3000000
Generated 0 of 1 mixed pair_coeff terms from geometric mixing rule
Neighbor list info ...
  update every 1 steps, delay 0 steps, check yes
  max neighbors/atom: 2000, page size: 100000
  master list distance cutoff = 3.1
  ghost atom cutoff = 3.1
  binsize = 1.55, bins = 11652 130 130
  1 neighbor lists, perpetual/occasional/extra = 1 0 0
  (1) pair granular, perpetual
      attributes: half, newton on, size, history
      pair build: half/size/bin/newton
      stencil: half/bin/3d
      bin: standard
Per MPI rank memory allocation (min/avg/max) = 418.4 | 418.4 | 418.4 Mbytes
   Step           Lx             Ly             Lz           Press           Pxx            Pyy            Pzz           KinEng         PotEng          Temp          c_1[1]         c_1[2]         c_1[3]    
         0   18060          200            200            0              0              0              0              0              0              0              1.1971759e-13  0              6            
    100000   18060          200            200            0.0022368449  -1.0734777e-34  0              0.0067105346   1158959.9      0              5.5962026e+10  1.1971759e-13  0              3.3303974    
    200000   18060          200            200            0.00076590289 -1.7891261e-35  0              0.0022977087   267652.65      0              1.2923988e+10  1.1971759e-13  0              3.0808634    
    300000   18060          200            200            9.0458065e-06  2.3573789e-40  0              2.7137419e-05  82.905414      0              4003205.7      1.1971759e-13  0              3.0444573    
    400000   18060          200            200            2.968829e-05  -3.5782567e-34  0              8.9064871e-05  874.42711      0              42222956       1.1971759e-13  0              3.0055102    
    500000   18060          200            200            0.0023387518   0.00067152683  0              0.0063447285   2714.4928      0              1.3107314e+08  1.1971759e-13  0              2.9951746    
    600000   18060          200            200            0.0022730722   0.00096982128  0              0.0058493954   112.48735      0              5431611.4      1.1971759e-13  0              2.9953187    
    700000   18060          200            200            0.0029565797   0.0012945977   0              0.0075751415   29.496512      0              1424281        1.1971759e-13  0              2.9946625    
    800000   18060          200            200            0.003196504    0.0013583337   0              0.0082311782   6.7740725      0              327095.72      1.1971759e-13  0              2.9944317    
    900000   18060          200            200            0.0032455051   0.0013670709   0              0.0083694445   0.71287425     0              34422.146      1.1971759e-13  0              2.9943836    
   1000000   18060          200            200            0.0032374784   0.0013662451   0              0.0083461899   0.017295547    0              835.14007      1.1971759e-13  0              2.9943907    
   1100000   18060          200            200            0.003226214    0.0013649161   0              0.0083137258   0.0014958625   0              72.229849      1.1971759e-13  0              2.9944014    
   1200000   18060          200            200            0.0032208842   0.0013642679   0              0.0082983848   0.0015738117   0              75.993734      1.1971759e-13  0              2.9944065    
   1300000   18060          200            200            0.0032193663   0.0013640793   0              0.0082940196   0.00030177904  0              14.57183       1.1971759e-13  0              2.994408     
   1400000   18060          200            200            0.0032192191   0.0013640597   0              0.0082935975   2.0706934e-05  0              0.99986372     1.1971759e-13  0              2.9944082    
   1500000   18060          200            200            0.0032193394   0.0013640739   0              0.0082939442   6.4219741e-08  0              0.0031009414   1.1971759e-13  0              2.994408     
   1600000   18060          200            200            0.0032194276   0.0013640847   0              0.0082941982   2.1868608e-07  0              0.010559568    1.1971759e-13  0              2.994408     
   1700000   18060          200            200            0.0032194617   0.0013640889   0              0.0082942961   9.0084056e-08  0              0.0043498367   1.1971759e-13  0              2.9944079    
   1800000   18060          200            200            0.0032194692   0.0013640898   0              0.0082943177   1.1640947e-08  0              0.00056209968  1.1971759e-13  0              2.9944079    
   1900000   18060          200            200            0.0032194689   0.0013640898   0              0.0082943168   4.4236525e-10  0              2.1360235e-05  1.1971759e-13  0              2.9944079    
   2000000   18060          200            200            0.0032194677   0.0013640896   0              0.0082943134   6.4519268e-12  0              3.1154046e-07  1.1971759e-13  0              2.9944079    
   2100000   18060          200            200            0.003219467    0.0013640896   0              0.0082943116   1.8259818e-11  0              8.8170128e-07  1.1971759e-13  0              2.9944079    
   2200000   18060          200            200            0.0032194668   0.0013640895   0              0.008294311    4.3674788e-12  0              2.1088992e-07  1.1971759e-13  0              2.9944079    
   2300000   18060          200            200            0.0032194668   0.0013640895   0              0.0082943109   3.78662e-13    0              1.8284233e-08  1.1971759e-13  0              2.9944079    
   2400000   18060          200            200            0.0032194668   0.0013640895   0              0.0082943109   4.8982e-15     0              2.3651655e-10  1.1971759e-13  0              2.9944079    
   2500000   18060          200            200            0.0032194668   0.0013640895   0              0.008294311    1.7087129e-15  0              8.2507633e-11  1.1971759e-13  0              2.9944079    
   2600000   18060          200            200            0.0032194668   0.0013640895   0              0.008294311    1.1284789e-15  0              5.4490206e-11  1.1971759e-13  0              2.9944079    
   2700000   18060          200            200            0.0032194668   0.0013640895   0              0.008294311    1.5424991e-16  0              7.448176e-12   1.1971759e-13  0              2.9944079    
   2800000   18060          200            200            0.0032194668   0.0013640895   0              0.008294311    1.8478358e-19  0              8.9225377e-15  1.1971759e-13  0              2.9944079    
   2900000   18060          200            200            0.0032194668   0.0013640895   0              0.008294311    2.7578083e-18  0              1.3316469e-13  1.1971759e-13  0              2.9944079    
   3000000   18060          200            200            0.0032194668   0.0013640895   0              0.008294311    4.6493868e-18  0              2.2450225e-13  1.1971759e-13  0              2.9944079    
Loop time of 727.822 on 2 procs for 3000000 steps with 5001 atoms

Performance: 3561309.801 ns/day, 0.000 hours/ns, 4121.886 timesteps/s
99.9% CPU use with 2 MPI tasks x 1 OpenMP threads

MPI task timing breakdown:
Section |  min time  |  avg time  |  max time  |%varavg| %total
---------------------------------------------------------------
Pair    | 162.88     | 163        | 163.12     |   0.9 | 22.40
Neigh   | 22.372     | 22.375     | 22.379     |   0.1 |  3.07
Comm    | 52.924     | 52.937     | 52.95      |   0.2 |  7.27
Output  | 0.65738    | 0.65743    | 0.65749    |   0.0 |  0.09
Modify  | 430.24     | 430.26     | 430.29     |   0.1 | 59.12
Other   |            | 58.59      |            |       |  8.05

Nlocal:         2500.5 ave        2501 max        2500 min
Histogram: 1 0 0 0 0 0 0 0 0 1
Nghost:            2.5 ave           3 max           2 min
Histogram: 1 0 0 0 0 0 0 0 0 1
Neighs:         1276.5 ave        1277 max        1276 min
Histogram: 1 0 0 0 0 0 0 0 0 1

Total # of neighbors = 2553
Ave neighs/atom = 0.5104979
Neighbor list builds = 166
Dangerous builds = 0

undump D1

############ Add spring between top chain to supp particle and then equilibrium  ###########

#fix sp1 support spring couple slider1 ${K0} ${lenspr} NULL NULL 0                                 # Add spring

#dump 		D2 all custom 100000 add_${num}*.dump id type diameter mass xu yu zu

#fix add1 all print 10 "${p0} ${distance} ${slider_z}" file add_distance_${num}.txt screen no      # out put step, distance(spring length), z-position of top chain

#run 1000000

#undump D2

#unfix add1

########## Pulling the supporting particle with constant velocity #############

#fix m1 support move linear 0.1 0 0 units box                                                      # apply constant velocity to supporting particles along x-direction V=0.1m/s

#fix move1 all print 100 "${p0} ${distance} ${slider_z}" file move_distance_${num}.txt screen no

#dump 		1 all custom 50000 move_${num}_*.dump id type diameter mass xu yu zu

#run 1000000

clear
  using 1 OpenMP thread(s) per MPI task

next num

jump SELF startloop

include granular.in
### Simulation of contact between two chain

##################### Simulation setup ####################

units micro                              # units
dimension	3                            # dimension
boundary	p p p                        # boundary condition p: periodic
atom_style	sphere                       # atom style
#processors * * 1

####################### Parameter ##################################

variable ind equal ${num}
variable ind equal 3

#variable lat0 equal 1                    #
variable lat1 equal 3+((300)*0.01)+(v_ind*0.01)        # Lattice distance of bottom chain
variable lat2 equal 3                    # Lattice distance of top chain
variable d1 equal 3                      # Diamter of particle at bottom chain
variable d2 equal 3                      # Diamter of particle at top chain
#variable d3 equal 1                      # Diamter of supporting particle

variable n2e1 equal 1000*v_lat2             # Half length of top chain. 1500 is number of particles
variable n1e1 equal 1.5*v_n2e1*(v_lat1/v_lat2)             # Half length of bottom chain, which is 1.5 time larger than top chain
variable n1e2 equal -v_n1e1
variable n2e2 equal -v_n2e1
#variable lenspr equal -(v_n2e1+100)           # length of the spring connecting top chain and supporting particle
#variable lenspr1 equal -v_lenspr-0.1         # Position of supporting particle upper bound
#variable lenspr2 equal -v_lenspr+0.1         # Position of supporting particle lower bound

variable den equal 2.2 #grams/cm^3      # micrometer^3=10^-12 cm^3 Density of materials

variable V1 equal (1/6)*PI*(v_d1^3)     # Volume of particle 1
variable V2 equal (1/6)*PI*(v_d2^3)     # Volume of particle 2
#variable V3 equal (1/6)*PI*(v_d3^3)     # Volume of particle 3

variable mass1 equal v_den*v_V1  # Mass of particle 1 (picograms)
variable mass2 equal v_den*v_V2  # Mass of particle 2
#variable mass3 equal v_den*v_V3  # Mass of particle 3

# E GPa to picogram/(micrometer-microsecond^2)= 10^3 Pa= 10^-6 GPa
# Force unit(picogram-micrometer/microsecond^2)=10^-9 N= 1nN
# Spring stiffness (force/distance) 10^-3 N/m

variable K0 equal (1500/50)*(10^5)             # Spring stiffness conneting top chain and sup particle
variable E equal 100*(10^6)                    # Young's Modulus using for Hertz/material model
variable PR equal 0.3                          # Poisson's ratio using for Hertz/material model
variable Fn equal -1000                        # Force apply to each particles in top chain
variable dt equal 0.00001                      # Time step units microsecond
variable lgv equal 0.5                         #damping for langevin thermostat for slider


################### Creating the model #################################
lattice sc ${lat1}                                                               # Bottom chain type1
lattice sc 6.03                                                               
Lattice spacing in x,y,z = 6.03 6.03 6.03

region box block ${n1e2} ${n1e1} -100 100 -100 100 units box
region box block -9045 ${n1e1} -100 100 -100 100 units box
region box block -9045 9045 -100 100 -100 100 units box
region substrate block ${n1e2} ${n1e1} -0.5 0.5 0 0.5 units box
region substrate block -9045 ${n1e1} -0.5 0.5 0 0.5 units box
region substrate block -9045 9045 -0.5 0.5 0 0.5 units box

create_box 2 box
Created orthogonal box = (-9045 -100 -100) to (9045 100 100)
  2 by 1 by 1 MPI processor grid
create_atoms 1 region substrate
Created 3000 atoms
  using lattice units in orthogonal box = (-9045 -100 -100) to (9045 100 100)
  create_atoms CPU = 0.002 seconds

lattice sc ${lat2}                                                             # Top chain type2
lattice sc 3                                                             
Lattice spacing in x,y,z = 3 3 3

region slider1 block ${n2e2} ${n2e1} -0.1 0.1 5.9 6.1 units box
region slider1 block -3000 ${n2e1} -0.1 0.1 5.9 6.1 units box
region slider1 block -3000 3000 -0.1 0.1 5.9 6.1 units box

create_atoms 2 region slider1
Created 2001 atoms
  using lattice units in orthogonal box = (-9045 -100 -100) to (9045 100 100)
  create_atoms CPU = 0.001 seconds

#lattice sc ${lat0}                                                             # Supporting particle type3

#region support block ${lenspr1} ${lenspr2} -0.1 0.1 7.9 8.1 units box

#create_atoms 3 region support

set type 1 diameter ${d1}                    # Set mass and diameter for each particles type
set type 1 diameter 3                    
Setting atom values ...
  3000 settings made for diameter
set type 1 mass ${mass1}
set type 1 mass 31.101767270539
Setting atom values ...
  3000 settings made for mass
set type 2 diameter ${d2}
set type 2 diameter 3
Setting atom values ...
  2001 settings made for diameter
set type 2 mass ${mass2}
set type 2 mass 31.101767270539
Setting atom values ...
  2001 settings made for mass
#set type 3 diameter ${d3}
#set type 3 mass ${mass3}

group substrate region substrate           # Define gorup
3000 atoms in group substrate
group slider1 region slider1
2001 atoms in group slider1
#group support region support
#group substrate_slider union substrate slider1

########################## Potential ###################################
pair_style granular
pair_coeff 1 1 hertz/material 0.00000001 0.001 ${PR} tangential mindlin NULL 0.1 0.01 damping viscoelastic              ########### set E between each particle in same type is small to neglect their interaction
pair_coeff 1 1 hertz/material 0.00000001 0.001 0.3 tangential mindlin NULL 0.1 0.01 damping viscoelastic              
pair_coeff 2 2 hertz/material 0.00000001 0.001 ${PR} tangential mindlin NULL 0.1 0.01 damping viscoelastic
pair_coeff 2 2 hertz/material 0.00000001 0.001 0.3 tangential mindlin NULL 0.1 0.01 damping viscoelastic
#pair_coeff 3 3 hertz/material ${E} 0.001 ${PR} tangential mindlin NULL 0.1 0.01 damping viscoelastic
pair_coeff 1 2 hertz/material ${E} 0.001 ${PR} tangential mindlin NULL 0.1 0.01 damping viscoelastic
pair_coeff 1 2 hertz/material 100000000 0.001 ${PR} tangential mindlin NULL 0.1 0.01 damping viscoelastic
pair_coeff 1 2 hertz/material 100000000 0.001 0.3 tangential mindlin NULL 0.1 0.01 damping viscoelastic
#pair_coeff 1 3 hertz/material 0.00000001 0.001 ${PR} tangential mindlin NULL 0.1 0.01 damping viscoelastic
#pair_coeff 2 3 hertz/material 0.00000001 0.001 ${PR} tangential mindlin NULL 0.1 0.01 damping viscoelastic
comm_modify     vel yes
neigh_modify    delay 0 every 1 check yes

### Compute properties ###

compute 1 slider1 com                      # Compute the center of mass of top chain
#compute 2 support com                      # Compute the center of mass of supporting particle

variable p0 equal "step"

variable slider_z equal "c_1[3]"          # output the position of top chain in z-direction

#variable distance equal "c_2[1]-c_1[1]"   # Distance between COM of top chain and supporting particle

thermo 100000
thermo_style custom step lx ly lz press pxx pyy pzz ke pe temp c_1[1] c_1[2] c_1[3] #c_2[1] c_2[2] c_2[3] v_distance

############### Fix ##################


############## Equilibrium the system with apply force ########################

fix force_slider1 slider1 setforce NULL 0 NULL                                # Fix top chain not to move in y-direction

fix f_sub substrate freeze                                                    # Freeze the bottom chain

fix rigid_top slider1 rigid/nve group 1 slider1 langevin 0 0 ${lgv} 6987532   # NVE+langevin
fix rigid_top slider1 rigid/nve group 1 slider1 langevin 0 0 0.5 6987532   
  1 rigid bodies with 2001 atoms

fix add slider1 addforce 0 0 ${Fn} every 1                                    # Add force to top layer
fix add slider1 addforce 0 0 -1000 every 1                                    

timestep ${dt}
timestep 1e-05

# fix  nve_1 slider1 nve

dump 		D1 all custom 100000 Equi_${num}_*.dump id type diameter mass xu yu zu fx fy fz
dump 		D1 all custom 100000 Equi_3_*.dump id type diameter mass xu yu zu fx fy fz
dump_modify D1 format 5 %.18g
dump_modify D1 format 7 %.18g

run 3000000
Generated 0 of 1 mixed pair_coeff terms from geometric mixing rule
Neighbor list info ...
  update every 1 steps, delay 0 steps, check yes
  max neighbors/atom: 2000, page size: 100000
  master list distance cutoff = 3.1
  ghost atom cutoff = 3.1
  binsize = 1.55, bins = 11671 130 130
  1 neighbor lists, perpetual/occasional/extra = 1 0 0
  (1) pair granular, perpetual
      attributes: half, newton on, size, history
      pair build: half/size/bin/newton
      stencil: half/bin/3d
      bin: standard
Per MPI rank memory allocation (min/avg/max) = 419.1 | 419.1 | 419.1 Mbytes
   Step           Lx             Ly             Lz           Press           Pxx            Pyy            Pzz           KinEng         PotEng          Temp          c_1[1]         c_1[2]         c_1[3]    
         0   18090          200            200            0              0              0              0              0              0              0              1.1971759e-13  0              6            
    100000   18090          200            200            0.0022304815  -1.0716981e-34  0              0.0066914444   1156929.2      0              5.5863971e+10  1.1971759e-13  0              3.3310796    
    200000   18090          200            200            0.00075861068  3.5723625e-35  0              0.002275832    264368.16      0              1.2765392e+10  1.1971759e-13  0              3.0820167    
    300000   18090          200            200           -2.153366e-07   1.4126914e-40  0             -6.460098e-07   0.025903755    0              1250.7996      1.1971759e-13  0              3.0438962    
    400000   18090          200            200            4.6770539e-06  1.2056621e-34  0              1.4031162e-05  23.254027      0              1122853.8      1.1971759e-13  0              3.0055063    
    500000   18090          200            200            0.00019359515 -0.001179882    0              0.0017606674   54.845508      0              2648293.3      1.1971759e-13  0              2.9972244    
    600000   18090          200            200           -0.00066804326 -0.013422759    0              0.011418629    5.5629164      0              268613.33      1.1971759e-13  0              2.9930694    
    700000   18090          200            200           -0.00073181614 -0.010202059    0              0.0080066101   47.43272       0              2290356.3      1.1971759e-13  0              2.9941846    
    800000   18090          200            200           -0.00079912593 -0.010279153    0              0.0078817751   0.012388947    0              598.21793      1.1971759e-13  0              2.994222     
    900000   18090          200            200           -0.00074465959 -0.01045764     0              0.0082236611   0.78621104     0              37963.318      1.1971759e-13  0              2.9941       
   1000000   18090          200            200           -0.00072275644 -0.010488075    0              0.0083198059   0.053704039    0              2593.1758      1.1971759e-13  0              2.9940671    
   1100000   18090          200            200           -0.00072783545 -0.010480575    0              0.0082970686   0.0038572593   0              186.25325      1.1971759e-13  0              2.9940754    
   1200000   18090          200            200           -0.00073202915 -0.010474652    0              0.0082785649   0.0021633416   0              104.46002      1.1971759e-13  0              2.9940818    
   1300000   18090          200            200           -0.00073238687 -0.010474203    0              0.0082770423   1.0054796e-05  0              0.48551013     1.1971759e-13  0              2.9940823    
   1400000   18090          200            200           -0.00073191295 -0.010474891    0              0.0082791524   2.9916776e-05  0              1.4445741      1.1971759e-13  0              2.9940815    
   1500000   18090          200            200           -0.00073174736 -0.010475122    0              0.00827988     3.1727265e-06  0              0.15319961     1.1971759e-13  0              2.9940813    
   1600000   18090          200            200           -0.00073177011 -0.010475087    0              0.0082797764   8.6667872e-08  0              0.0041848813   1.1971759e-13  0              2.9940813    
   1700000   18090          200            200           -0.00073179801 -0.010475047    0              0.0082796529   9.7628783e-08  0              0.0047141445   1.1971759e-13  0              2.9940814    
   1800000   18090          200            200           -0.00073180186 -0.010475042    0              0.0082796363   1.4288019e-09  0              6.8991729e-05  1.1971759e-13  0              2.9940814    
   1900000   18090          200            200           -0.00073179907 -0.010475046    0              0.0082796487   1.0665054e-09  0              5.1497728e-05  1.1971759e-13  0              2.9940814    
   2000000   18090          200            200           -0.00073179785 -0.010475048    0              0.0082796541   1.734984e-10   0              8.3776166e-06  1.1971759e-13  0              2.9940814    
   2100000   18090          200            200           -0.00073179793 -0.010475047    0              0.0082796537   1.2755439e-12  0              6.159145e-08   1.1971759e-13  0              2.9940814    
   2200000   18090          200            200           -0.00073179811 -0.010475047    0              0.0082796529   4.2049012e-12  0              2.0303963e-07  1.1971759e-13  0              2.9940814    
   2300000   18090          200            200           -0.00073179815 -0.010475047    0              0.0082796528   1.2628711e-13  0              6.0979525e-09  1.1971759e-13  0              2.9940814    
   2400000   18090          200            200           -0.00073179813 -0.010475047    0              0.0082796528   3.5132129e-14  0              1.6964048e-09  1.1971759e-13  0              2.9940814    
   2500000   18090          200            200           -0.00073179812 -0.010475047    0              0.0082796529   8.9192026e-15  0              4.3067638e-10  1.1971759e-13  0              2.9940814    
   2600000   18090          200            200           -0.00073179812 -0.010475047    0              0.0082796529   1.2181026e-19  0              5.8817816e-15  1.1971759e-13  0              2.9940814    
   2700000   18090          200            200           -0.00073179812 -0.010475047    0              0.0082796529   1.2090688e-16  0              5.8381604e-12  1.1971759e-13  0              2.9940814    
   2800000   18090          200            200           -0.00073179812 -0.010475047    0              0.0082796529   2.4622869e-17  0              1.1889502e-12  1.1971759e-13  0              2.9940814    
   2900000   18090          200            200           -0.00073179812 -0.010475047    0              0.0082796529   6.7250589e-18  0              3.2472903e-13  1.1971759e-13  0              2.9940814    
   3000000   18090          200            200           -0.00073179813 -0.010475047    0              0.0082796529   1.4187824e-17  0              6.8507923e-13  1.1971759e-13  0              2.9940814    
Loop time of 727.965 on 2 procs for 3000000 steps with 5001 atoms

Performance: 3560609.484 ns/day, 0.000 hours/ns, 4121.076 timesteps/s
99.9% CPU use with 2 MPI tasks x 1 OpenMP threads

MPI task timing breakdown:
Section |  min time  |  avg time  |  max time  |%varavg| %total
---------------------------------------------------------------
Pair    | 162.91     | 163.03     | 163.15     |   0.9 | 22.40
Neigh   | 22.497     | 22.499     | 22.501     |   0.0 |  3.09
Comm    | 53.771     | 53.948     | 54.125     |   2.4 |  7.41
Output  | 0.64716    | 0.6472     | 0.64724    |   0.0 |  0.09
Modify  | 430.01     | 430.05     | 430.09     |   0.2 | 59.08
Other   |            | 57.79      |            |       |  7.94

Nlocal:         2500.5 ave        2501 max        2500 min
Histogram: 1 0 0 0 0 0 0 0 0 1
Nghost:            2.5 ave           3 max           2 min
Histogram: 1 0 0 0 0 0 0 0 0 1
Neighs:         1262.5 ave        1263 max        1262 min
Histogram: 1 0 0 0 0 0 0 0 0 1

Total # of neighbors = 2525
Ave neighs/atom = 0.50489902
Neighbor list builds = 166
Dangerous builds = 0

undump D1

############ Add spring between top chain to supp particle and then equilibrium  ###########

#fix sp1 support spring couple slider1 ${K0} ${lenspr} NULL NULL 0                                 # Add spring

#dump 		D2 all custom 100000 add_${num}*.dump id type diameter mass xu yu zu

#fix add1 all print 10 "${p0} ${distance} ${slider_z}" file add_distance_${num}.txt screen no      # out put step, distance(spring length), z-position of top chain

#run 1000000

#undump D2

#unfix add1

########## Pulling the supporting particle with constant velocity #############

#fix m1 support move linear 0.1 0 0 units box                                                      # apply constant velocity to supporting particles along x-direction V=0.1m/s

#fix move1 all print 100 "${p0} ${distance} ${slider_z}" file move_distance_${num}.txt screen no

#dump 		1 all custom 50000 move_${num}_*.dump id type diameter mass xu yu zu

#run 1000000

clear
  using 1 OpenMP thread(s) per MPI task

next num

jump SELF startloop

include granular.in
### Simulation of contact between two chain

##################### Simulation setup ####################

units micro                              # units
dimension	3                            # dimension
boundary	p p p                        # boundary condition p: periodic
atom_style	sphere                       # atom style
#processors * * 1

####################### Parameter ##################################

variable ind equal ${num}
variable ind equal 4

#variable lat0 equal 1                    #
variable lat1 equal 3+((300)*0.01)+(v_ind*0.01)        # Lattice distance of bottom chain
variable lat2 equal 3                    # Lattice distance of top chain
variable d1 equal 3                      # Diamter of particle at bottom chain
variable d2 equal 3                      # Diamter of particle at top chain
#variable d3 equal 1                      # Diamter of supporting particle

variable n2e1 equal 1000*v_lat2             # Half length of top chain. 1500 is number of particles
variable n1e1 equal 1.5*v_n2e1*(v_lat1/v_lat2)             # Half length of bottom chain, which is 1.5 time larger than top chain
variable n1e2 equal -v_n1e1
variable n2e2 equal -v_n2e1
#variable lenspr equal -(v_n2e1+100)           # length of the spring connecting top chain and supporting particle
#variable lenspr1 equal -v_lenspr-0.1         # Position of supporting particle upper bound
#variable lenspr2 equal -v_lenspr+0.1         # Position of supporting particle lower bound

variable den equal 2.2 #grams/cm^3      # micrometer^3=10^-12 cm^3 Density of materials

variable V1 equal (1/6)*PI*(v_d1^3)     # Volume of particle 1
variable V2 equal (1/6)*PI*(v_d2^3)     # Volume of particle 2
#variable V3 equal (1/6)*PI*(v_d3^3)     # Volume of particle 3

variable mass1 equal v_den*v_V1  # Mass of particle 1 (picograms)
variable mass2 equal v_den*v_V2  # Mass of particle 2
#variable mass3 equal v_den*v_V3  # Mass of particle 3

# E GPa to picogram/(micrometer-microsecond^2)= 10^3 Pa= 10^-6 GPa
# Force unit(picogram-micrometer/microsecond^2)=10^-9 N= 1nN
# Spring stiffness (force/distance) 10^-3 N/m

variable K0 equal (1500/50)*(10^5)             # Spring stiffness conneting top chain and sup particle
variable E equal 100*(10^6)                    # Young's Modulus using for Hertz/material model
variable PR equal 0.3                          # Poisson's ratio using for Hertz/material model
variable Fn equal -1000                        # Force apply to each particles in top chain
variable dt equal 0.00001                      # Time step units microsecond
variable lgv equal 0.5                         #damping for langevin thermostat for slider


################### Creating the model #################################
lattice sc ${lat1}                                                               # Bottom chain type1
lattice sc 6.04                                                               
Lattice spacing in x,y,z = 6.04 6.04 6.04

region box block ${n1e2} ${n1e1} -100 100 -100 100 units box
region box block -9060 ${n1e1} -100 100 -100 100 units box
region box block -9060 9060 -100 100 -100 100 units box
region substrate block ${n1e2} ${n1e1} -0.5 0.5 0 0.5 units box
region substrate block -9060 ${n1e1} -0.5 0.5 0 0.5 units box
region substrate block -9060 9060 -0.5 0.5 0 0.5 units box

create_box 2 box
Created orthogonal box = (-9060 -100 -100) to (9060 100 100)
  2 by 1 by 1 MPI processor grid
create_atoms 1 region substrate
Created 3000 atoms
  using lattice units in orthogonal box = (-9060 -100 -100) to (9060 100 100)
  create_atoms CPU = 0.002 seconds

lattice sc ${lat2}                                                             # Top chain type2
lattice sc 3                                                             
Lattice spacing in x,y,z = 3 3 3

region slider1 block ${n2e2} ${n2e1} -0.1 0.1 5.9 6.1 units box
region slider1 block -3000 ${n2e1} -0.1 0.1 5.9 6.1 units box
region slider1 block -3000 3000 -0.1 0.1 5.9 6.1 units box

create_atoms 2 region slider1
Created 2001 atoms
  using lattice units in orthogonal box = (-9060 -100 -100) to (9060 100 100)
  create_atoms CPU = 0.001 seconds

#lattice sc ${lat0}                                                             # Supporting particle type3

#region support block ${lenspr1} ${lenspr2} -0.1 0.1 7.9 8.1 units box

#create_atoms 3 region support

set type 1 diameter ${d1}                    # Set mass and diameter for each particles type
set type 1 diameter 3                    
Setting atom values ...
  3000 settings made for diameter
set type 1 mass ${mass1}
set type 1 mass 31.101767270539
Setting atom values ...
  3000 settings made for mass
set type 2 diameter ${d2}
set type 2 diameter 3
Setting atom values ...
  2001 settings made for diameter
set type 2 mass ${mass2}
set type 2 mass 31.101767270539
Setting atom values ...
  2001 settings made for mass
#set type 3 diameter ${d3}
#set type 3 mass ${mass3}

group substrate region substrate           # Define gorup
3000 atoms in group substrate
group slider1 region slider1
2001 atoms in group slider1
#group support region support
#group substrate_slider union substrate slider1

########################## Potential ###################################
pair_style granular
pair_coeff 1 1 hertz/material 0.00000001 0.001 ${PR} tangential mindlin NULL 0.1 0.01 damping viscoelastic              ########### set E between each particle in same type is small to neglect their interaction
pair_coeff 1 1 hertz/material 0.00000001 0.001 0.3 tangential mindlin NULL 0.1 0.01 damping viscoelastic              
pair_coeff 2 2 hertz/material 0.00000001 0.001 ${PR} tangential mindlin NULL 0.1 0.01 damping viscoelastic
pair_coeff 2 2 hertz/material 0.00000001 0.001 0.3 tangential mindlin NULL 0.1 0.01 damping viscoelastic
#pair_coeff 3 3 hertz/material ${E} 0.001 ${PR} tangential mindlin NULL 0.1 0.01 damping viscoelastic
pair_coeff 1 2 hertz/material ${E} 0.001 ${PR} tangential mindlin NULL 0.1 0.01 damping viscoelastic
pair_coeff 1 2 hertz/material 100000000 0.001 ${PR} tangential mindlin NULL 0.1 0.01 damping viscoelastic
pair_coeff 1 2 hertz/material 100000000 0.001 0.3 tangential mindlin NULL 0.1 0.01 damping viscoelastic
#pair_coeff 1 3 hertz/material 0.00000001 0.001 ${PR} tangential mindlin NULL 0.1 0.01 damping viscoelastic
#pair_coeff 2 3 hertz/material 0.00000001 0.001 ${PR} tangential mindlin NULL 0.1 0.01 damping viscoelastic
comm_modify     vel yes
neigh_modify    delay 0 every 1 check yes

### Compute properties ###

compute 1 slider1 com                      # Compute the center of mass of top chain
#compute 2 support com                      # Compute the center of mass of supporting particle

variable p0 equal "step"

variable slider_z equal "c_1[3]"          # output the position of top chain in z-direction

#variable distance equal "c_2[1]-c_1[1]"   # Distance between COM of top chain and supporting particle

thermo 100000
thermo_style custom step lx ly lz press pxx pyy pzz ke pe temp c_1[1] c_1[2] c_1[3] #c_2[1] c_2[2] c_2[3] v_distance

############### Fix ##################


############## Equilibrium the system with apply force ########################

fix force_slider1 slider1 setforce NULL 0 NULL                                # Fix top chain not to move in y-direction

fix f_sub substrate freeze                                                    # Freeze the bottom chain

fix rigid_top slider1 rigid/nve group 1 slider1 langevin 0 0 ${lgv} 6987532   # NVE+langevin
fix rigid_top slider1 rigid/nve group 1 slider1 langevin 0 0 0.5 6987532   
  1 rigid bodies with 2001 atoms

fix add slider1 addforce 0 0 ${Fn} every 1                                    # Add force to top layer
fix add slider1 addforce 0 0 -1000 every 1                                    

timestep ${dt}
timestep 1e-05

# fix  nve_1 slider1 nve

dump 		D1 all custom 100000 Equi_${num}_*.dump id type diameter mass xu yu zu fx fy fz
dump 		D1 all custom 100000 Equi_4_*.dump id type diameter mass xu yu zu fx fy fz
dump_modify D1 format 5 %.18g
dump_modify D1 format 7 %.18g

run 3000000
Generated 0 of 1 mixed pair_coeff terms from geometric mixing rule
Neighbor list info ...
  update every 1 steps, delay 0 steps, check yes
  max neighbors/atom: 2000, page size: 100000
  master list distance cutoff = 3.1
  ghost atom cutoff = 3.1
  binsize = 1.55, bins = 11691 130 130
  1 neighbor lists, perpetual/occasional/extra = 1 0 0
  (1) pair granular, perpetual
      attributes: half, newton on, size, history
      pair build: half/size/bin/newton
      stencil: half/bin/3d
      bin: standard
Per MPI rank memory allocation (min/avg/max) = 419.8 | 419.8 | 419.8 Mbytes
   Step           Lx             Ly             Lz           Press           Pxx            Pyy            Pzz           KinEng         PotEng          Temp          c_1[1]         c_1[2]         c_1[3]    
         0   18120          200            200            0              0              0              0              0              0              0              1.1971759e-13  0              6            
    100000   18120          200            200            0.0022266645   8.470242e-35   0              0.0066799935   1156800.6      0              5.5857761e+10  1.1971759e-13  0              3.3312481    
    200000   18120          200            200            0.00075683829  1.3374068e-35  0              0.0022705149   264069.52      0              1.2750972e+10  1.1971759e-13  0              3.0823095    
    300000   18120          200            200           -7.7879723e-07 -3.5664135e-35  0             -2.3363917e-06  0.53609061     0              25885.897      1.1971759e-13  0              3.0440187    
[...]
   3000000   20940          200            200            0.0019662111  -0.0012534321   0              0.0071520654   1.1255077e-19  0              5.434674e-15   1.1971759e-13  0              2.9937881    
Loop time of 731.974 on 2 procs for 3000000 steps with 5001 atoms

Performance: 3541107.549 ns/day, 0.000 hours/ns, 4098.504 timesteps/s
100.0% CPU use with 2 MPI tasks x 1 OpenMP threads

MPI task timing breakdown:
Section |  min time  |  avg time  |  max time  |%varavg| %total
---------------------------------------------------------------
Pair    | 157.82     | 159.6      | 161.38     |  14.1 | 21.80
Neigh   | 25.915     | 25.919     | 25.923     |   0.1 |  3.54
Comm    | 57.548     | 59.374     | 61.2       |  23.7 |  8.11
Output  | 0.64047    | 0.64048    | 0.6405     |   0.0 |  0.09
Modify  | 428.66     | 428.66     | 428.67     |   0.0 | 58.56
Other   |            | 57.78      |            |       |  7.89

Nlocal:         2500.5 ave        2501 max        2500 min
Histogram: 1 0 0 0 0 0 0 0 0 1
Nghost:            2.5 ave           3 max           2 min
Histogram: 1 0 0 0 0 0 0 0 0 1
Neighs:         1227.5 ave        1228 max        1227 min
Histogram: 1 0 0 0 0 0 0 0 0 1

Total # of neighbors = 2455
Ave neighs/atom = 0.49090182
Neighbor list builds = 166
Dangerous builds = 0

undump D1

############ Add spring between top chain to supp particle and then equilibrium  ###########

#fix sp1 support spring couple slider1 ${K0} ${lenspr} NULL NULL 0                                 # Add spring

#dump 		D2 all custom 100000 add_${num}*.dump id type diameter mass xu yu zu

#fix add1 all print 10 "${p0} ${distance} ${slider_z}" file add_distance_${num}.txt screen no      # out put step, distance(spring length), z-position of top chain

#run 1000000

#undump D2

#unfix add1

########## Pulling the supporting particle with constant velocity #############

#fix m1 support move linear 0.1 0 0 units box                                                      # apply constant velocity to supporting particles along x-direction V=0.1m/s

#fix move1 all print 100 "${p0} ${distance} ${slider_z}" file move_distance_${num}.txt screen no

#dump 		1 all custom 50000 move_${num}_*.dump id type diameter mass xu yu zu

#run 1000000

clear
  using 1 OpenMP thread(s) per MPI task

next num

jump SELF startloop

include granular.in
### Simulation of contact between two chain

##################### Simulation setup ####################

units micro                              # units
dimension	3                            # dimension
boundary	p p p                        # boundary condition p: periodic
atom_style	sphere                       # atom style
#processors * * 1

####################### Parameter ##################################

variable ind equal ${num}
variable ind equal 99

#variable lat0 equal 1                    #
variable lat1 equal 3+((300)*0.01)+(v_ind*0.01)        # Lattice distance of bottom chain
variable lat2 equal 3                    # Lattice distance of top chain
variable d1 equal 3                      # Diamter of particle at bottom chain
variable d2 equal 3                      # Diamter of particle at top chain
#variable d3 equal 1                      # Diamter of supporting particle

variable n2e1 equal 1000*v_lat2             # Half length of top chain. 1500 is number of particles
variable n1e1 equal 1.5*v_n2e1*(v_lat1/v_lat2)             # Half length of bottom chain, which is 1.5 time larger than top chain
variable n1e2 equal -v_n1e1
variable n2e2 equal -v_n2e1
#variable lenspr equal -(v_n2e1+100)           # length of the spring connecting top chain and supporting particle
#variable lenspr1 equal -v_lenspr-0.1         # Position of supporting particle upper bound
#variable lenspr2 equal -v_lenspr+0.1         # Position of supporting particle lower bound

variable den equal 2.2 #grams/cm^3      # micrometer^3=10^-12 cm^3 Density of materials

variable V1 equal (1/6)*PI*(v_d1^3)     # Volume of particle 1
variable V2 equal (1/6)*PI*(v_d2^3)     # Volume of particle 2
#variable V3 equal (1/6)*PI*(v_d3^3)     # Volume of particle 3

variable mass1 equal v_den*v_V1  # Mass of particle 1 (picograms)
variable mass2 equal v_den*v_V2  # Mass of particle 2
#variable mass3 equal v_den*v_V3  # Mass of particle 3

# E GPa to picogram/(micrometer-microsecond^2)= 10^3 Pa= 10^-6 GPa
# Force unit(picogram-micrometer/microsecond^2)=10^-9 N= 1nN
# Spring stiffness (force/distance) 10^-3 N/m

variable K0 equal (1500/50)*(10^5)             # Spring stiffness conneting top chain and sup particle
variable E equal 100*(10^6)                    # Young's Modulus using for Hertz/material model
variable PR equal 0.3                          # Poisson's ratio using for Hertz/material model
variable Fn equal -1000                        # Force apply to each particles in top chain
variable dt equal 0.00001                      # Time step units microsecond
variable lgv equal 0.5                         #damping for langevin thermostat for slider


################### Creating the model #################################
lattice sc ${lat1}                                                               # Bottom chain type1
lattice sc 6.99                                                               
Lattice spacing in x,y,z = 6.99 6.99 6.99

region box block ${n1e2} ${n1e1} -100 100 -100 100 units box
region box block -10485 ${n1e1} -100 100 -100 100 units box
region box block -10485 10485 -100 100 -100 100 units box
region substrate block ${n1e2} ${n1e1} -0.5 0.5 0 0.5 units box
region substrate block -10485 ${n1e1} -0.5 0.5 0 0.5 units box
region substrate block -10485 10485 -0.5 0.5 0 0.5 units box

create_box 2 box
Created orthogonal box = (-10485 -100 -100) to (10485 100 100)
  2 by 1 by 1 MPI processor grid
create_atoms 1 region substrate
Created 3000 atoms
  using lattice units in orthogonal box = (-10485 -100 -100) to (10485 100 100)
  create_atoms CPU = 0.001 seconds

lattice sc ${lat2}                                                             # Top chain type2
lattice sc 3                                                             
Lattice spacing in x,y,z = 3 3 3

region slider1 block ${n2e2} ${n2e1} -0.1 0.1 5.9 6.1 units box
region slider1 block -3000 ${n2e1} -0.1 0.1 5.9 6.1 units box
region slider1 block -3000 3000 -0.1 0.1 5.9 6.1 units box

create_atoms 2 region slider1
Created 2001 atoms
  using lattice units in orthogonal box = (-10485 -100 -100) to (10485 100 100)
  create_atoms CPU = 0.001 seconds

#lattice sc ${lat0}                                                             # Supporting particle type3

#region support block ${lenspr1} ${lenspr2} -0.1 0.1 7.9 8.1 units box

#create_atoms 3 region support

set type 1 diameter ${d1}                    # Set mass and diameter for each particles type
set type 1 diameter 3                    
Setting atom values ...
  3000 settings made for diameter
set type 1 mass ${mass1}
set type 1 mass 31.101767270539
Setting atom values ...
  3000 settings made for mass
set type 2 diameter ${d2}
set type 2 diameter 3
Setting atom values ...
  2001 settings made for diameter
set type 2 mass ${mass2}
set type 2 mass 31.101767270539
Setting atom values ...
  2001 settings made for mass
#set type 3 diameter ${d3}
#set type 3 mass ${mass3}

group substrate region substrate           # Define gorup
3000 atoms in group substrate
group slider1 region slider1
2001 atoms in group slider1
#group support region support
#group substrate_slider union substrate slider1

########################## Potential ###################################
pair_style granular
pair_coeff 1 1 hertz/material 0.00000001 0.001 ${PR} tangential mindlin NULL 0.1 0.01 damping viscoelastic              ########### set E between each particle in same type is small to neglect their interaction
pair_coeff 1 1 hertz/material 0.00000001 0.001 0.3 tangential mindlin NULL 0.1 0.01 damping viscoelastic              
pair_coeff 2 2 hertz/material 0.00000001 0.001 ${PR} tangential mindlin NULL 0.1 0.01 damping viscoelastic
pair_coeff 2 2 hertz/material 0.00000001 0.001 0.3 tangential mindlin NULL 0.1 0.01 damping viscoelastic
#pair_coeff 3 3 hertz/material ${E} 0.001 ${PR} tangential mindlin NULL 0.1 0.01 damping viscoelastic
pair_coeff 1 2 hertz/material ${E} 0.001 ${PR} tangential mindlin NULL 0.1 0.01 damping viscoelastic
pair_coeff 1 2 hertz/material 100000000 0.001 ${PR} tangential mindlin NULL 0.1 0.01 damping viscoelastic
pair_coeff 1 2 hertz/material 100000000 0.001 0.3 tangential mindlin NULL 0.1 0.01 damping viscoelastic
#pair_coeff 1 3 hertz/material 0.00000001 0.001 ${PR} tangential mindlin NULL 0.1 0.01 damping viscoelastic
#pair_coeff 2 3 hertz/material 0.00000001 0.001 ${PR} tangential mindlin NULL 0.1 0.01 damping viscoelastic
comm_modify     vel yes
neigh_modify    delay 0 every 1 check yes

### Compute properties ###

compute 1 slider1 com                      # Compute the center of mass of top chain
#compute 2 support com                      # Compute the center of mass of supporting particle

variable p0 equal "step"

variable slider_z equal "c_1[3]"          # output the position of top chain in z-direction

#variable distance equal "c_2[1]-c_1[1]"   # Distance between COM of top chain and supporting particle

thermo 100000
thermo_style custom step lx ly lz press pxx pyy pzz ke pe temp c_1[1] c_1[2] c_1[3] #c_2[1] c_2[2] c_2[3] v_distance

############### Fix ##################


############## Equilibrium the system with apply force ########################

fix force_slider1 slider1 setforce NULL 0 NULL                                # Fix top chain not to move in y-direction

fix f_sub substrate freeze                                                    # Freeze the bottom chain

fix rigid_top slider1 rigid/nve group 1 slider1 langevin 0 0 ${lgv} 6987532   # NVE+langevin
fix rigid_top slider1 rigid/nve group 1 slider1 langevin 0 0 0.5 6987532   
  1 rigid bodies with 2001 atoms

fix add slider1 addforce 0 0 ${Fn} every 1                                    # Add force to top layer
fix add slider1 addforce 0 0 -1000 every 1                                    

timestep ${dt}
timestep 1e-05

# fix  nve_1 slider1 nve

dump 		D1 all custom 100000 Equi_${num}_*.dump id type diameter mass xu yu zu fx fy fz
dump 		D1 all custom 100000 Equi_99_*.dump id type diameter mass xu yu zu fx fy fz
dump_modify D1 format 5 %.18g
dump_modify D1 format 7 %.18g

run 3000000
Generated 0 of 1 mixed pair_coeff terms from geometric mixing rule
Neighbor list info ...
  update every 1 steps, delay 0 steps, check yes
  max neighbors/atom: 2000, page size: 100000
  master list distance cutoff = 3.1
  ghost atom cutoff = 3.1
  binsize = 1.55, bins = 13530 130 130
  1 neighbor lists, perpetual/occasional/extra = 1 0 0
  (1) pair granular, perpetual
      attributes: half, newton on, size, history
      pair build: half/size/bin/newton
      stencil: half/bin/3d
      bin: standard
Per MPI rank memory allocation (min/avg/max) = 483.7 | 483.7 | 483.7 Mbytes
   Step           Lx             Ly             Lz           Press           Pxx            Pyy            Pzz           KinEng         PotEng          Temp          c_1[1]         c_1[2]         c_1[3]    
         0   20970          200            200            0              0              0              0              0              0              0              1.1971759e-13  0              6            
    100000   20970          200            200            0.0019204056   1.4527639e-40  0              0.0057612169   1153470.8      0              5.5696977e+10  1.1971759e-13  0              3.332766     
    200000   20970          200            200            0.00064560492 -3.8521375e-35  0              0.0019368147   258760.6       0              1.2494623e+10  1.1971759e-13  0              3.0846521    
    300000   20970          200            200           -1.1585432e-05 -2.3112814e-35  0             -3.4756295e-05  187.5184       0              9054592.3      1.1971759e-13  0              3.0433815    
    400000   20970          200            200           -1.9682617e-05  1.0557763e-41  0             -5.904785e-05   568.24597      0              27438564       1.1971759e-13  0              3.0050052    
    500000   20970          200            200            0.0010062654  -0.003352713    0              0.006371509    2762.5021      0              1.3339134e+08  1.1971759e-13  0              2.9942369    
    600000   20970          200            200            0.00088781862 -0.0021416235   0              0.0048050793   5.7411338      0              277218.81      1.1971759e-13  0              2.9950477    
    700000   20970          200            200            0.0016197352  -0.0031304421   0              0.0079896477   9.7900538      0              472726.66      1.1971759e-13  0              2.9936184    
    800000   20970          200            200            0.0013035656  -0.0029251771   0              0.006835874    1.1721165      0              56597.311      1.1971759e-13  0              2.9940894    
    900000   20970          200            200            0.0014234987  -0.0029875023   0              0.0072579984   0.12424389     0              5999.2927      1.1971759e-13  0              2.993913     
   1000000   20970          200            200            0.0013761646  -0.002970506    0              0.0070989997   0.011868887    0              573.10609      1.1971759e-13  0              2.993979     
   1100000   20970          200            200            0.0013937857  -0.0029770493   0              0.0071584064   0.0010561565   0              50.998019      1.1971759e-13  0              2.9939542    
   1200000   20970          200            200            0.0013872032  -0.0029746313   0              0.0071362409   8.2976717e-05  0              4.0066487      1.1971759e-13  0              2.9939635    
   1300000   20970          200            200            0.0013896454  -0.0029755338   0              0.00714447     5.2915936e-06  0              0.25551212     1.1971759e-13  0              2.99396      
   1400000   20970          200            200            0.0013887419  -0.0029752      0              0.0071414255   2.1028216e-07  0              0.010153773    1.1971759e-13  0              2.9939613    
   1500000   20970          200            200            0.0013890747  -0.0029753232   0              0.0071425474   6.9345894e-10  0              3.348465e-05   1.1971759e-13  0              2.9939608    
   1600000   20970          200            200            0.0013889525  -0.0029752779   0              0.0071421355   1.7980347e-09  0              8.682066e-05   1.1971759e-13  0              2.993961     
   1700000   20970          200            200            0.0013889972  -0.0029752945   0              0.0071422862   1.1962693e-09  0              5.7763564e-05  1.1971759e-13  0              2.9939609    
   1800000   20970          200            200            0.001388981   -0.0029752884   0              0.0071422313   3.8489875e-10  0              1.8585383e-05  1.1971759e-13  0              2.993961     
   1900000   20970          200            200            0.0013889869  -0.0029752906   0              0.0071422512   9.4295828e-11  0              4.553208e-06   1.1971759e-13  0              2.993961     
   2000000   20970          200            200            0.0013889847  -0.0029752898   0              0.007142244    1.9984273e-11  0              9.6496904e-07  1.1971759e-13  0              2.993961     
   2100000   20970          200            200            0.0013889855  -0.0029752901   0              0.0071422466   3.8684378e-12  0              1.8679302e-07  1.1971759e-13  0              2.993961     
   2200000   20970          200            200            0.0013889852  -0.00297529     0              0.0071422457   7.0362294e-13  0              3.3975434e-08  1.1971759e-13  0              2.993961     
   2300000   20970          200            200            0.0013889853  -0.0029752901   0              0.007142246    1.2171361e-13  0              5.8771144e-09  1.1971759e-13  0              2.993961     
   2400000   20970          200            200            0.0013889853  -0.00297529     0              0.0071422459   2.0159227e-14  0              9.7341692e-10  1.1971759e-13  0              2.993961     
   2500000   20970          200            200            0.0013889853  -0.0029752901   0              0.0071422459   3.2504554e-15  0              1.5695286e-10  1.1971759e-13  0              2.993961     
   2600000   20970          200            200            0.0013889853  -0.00297529     0              0.0071422459   5.1548669e-16  0              2.4891007e-11  1.1971759e-13  0              2.993961     
   2700000   20970          200            200            0.0013889853  -0.00297529     0              0.0071422459   1.243221e-16   0              6.0030694e-12  1.1971759e-13  0              2.993961     
   2800000   20970          200            200            0.0013889853  -0.00297529     0              0.0071422459   2.4114415e-17  0              1.1643988e-12  1.1971759e-13  0              2.993961     
   2900000   20970          200            200            0.0013889853  -0.00297529     0              0.0071422459   2.5285732e-18  0              1.2209575e-13  1.1971759e-13  0              2.993961     
   3000000   20970          200            200            0.0013889853  -0.00297529     0              0.0071422459   8.6707075e-19  0              4.1867743e-14  1.1971759e-13  0              2.993961     
Loop time of 727.721 on 2 procs for 3000000 steps with 5001 atoms

Performance: 3561804.729 ns/day, 0.000 hours/ns, 4122.459 timesteps/s
99.9% CPU use with 2 MPI tasks x 1 OpenMP threads

MPI task timing breakdown:
Section |  min time  |  avg time  |  max time  |%varavg| %total
---------------------------------------------------------------
Pair    | 156.17     | 158.73     | 161.29     |  20.3 | 21.81
Neigh   | 25.511     | 25.513     | 25.515     |   0.0 |  3.51
Comm    | 56.971     | 59.539     | 62.108     |  33.3 |  8.18
Output  | 0.64339    | 0.6434     | 0.64341    |   0.0 |  0.09
Modify  | 426.51     | 426.55     | 426.59     |   0.2 | 58.61
Other   |            | 56.75      |            |       |  7.80

Nlocal:         2500.5 ave        2501 max        2500 min
Histogram: 1 0 0 0 0 0 0 0 0 1
Nghost:            2.5 ave           3 max           2 min
Histogram: 1 0 0 0 0 0 0 0 0 1
Neighs:         1224.5 ave        1225 max        1224 min
Histogram: 1 0 0 0 0 0 0 0 0 1

Total # of neighbors = 2449
Ave neighs/atom = 0.48970206
Neighbor list builds = 166
Dangerous builds = 0

undump D1

############ Add spring between top chain to supp particle and then equilibrium  ###########

#fix sp1 support spring couple slider1 ${K0} ${lenspr} NULL NULL 0                                 # Add spring

#dump 		D2 all custom 100000 add_${num}*.dump id type diameter mass xu yu zu

#fix add1 all print 10 "${p0} ${distance} ${slider_z}" file add_distance_${num}.txt screen no      # out put step, distance(spring length), z-position of top chain

#run 1000000

#undump D2

#unfix add1

########## Pulling the supporting particle with constant velocity #############

#fix m1 support move linear 0.1 0 0 units box                                                      # apply constant velocity to supporting particles along x-direction V=0.1m/s

#fix move1 all print 100 "${p0} ${distance} ${slider_z}" file move_distance_${num}.txt screen no

#dump 		1 all custom 50000 move_${num}_*.dump id type diameter mass xu yu zu

#run 1000000

clear
  using 1 OpenMP thread(s) per MPI task

next num

jump SELF startloop
Total wall time: 20:17:37
