ITEM: TIMESTEP
1800000
ITEM: NUMBER OF ATOMS
1251
ITEM: BOX BOUNDS pp pp pp
-1.2712500000000000e+03 1.2712500000000000e+03
-1.0000000000000000e+02 1.0000000000000000e+02
-1.0000000000000000e+02 1.0000000000000000e+02
ITEM: ATOMS id type diameter mass xu yu zu fx fy fz
1 1 3 31.1018 -1271.25 0 0 0 0 0
2 1 3 31.1018 -1267.86 0 0 0 0 0
3 1 3 31.1018 -1264.47 0 0 0 0 0
4 1 3 31.1018 -1261.08 0 0 0 0 0
5 1 3 31.1018 -1257.69 0 0 0 0 0
6 1 3 31.1018 -1254.3 0 0 0 0 0
7 1 3 31.1018 -1250.91 0 0 0 0 0
8 1 3 31.1018 -1247.52 0 0 0 0 0
9 1 3 31.1018 -1244.13 0 0 0 0 0
10 1 3 31.1018 -1240.74 0 0 0 0 0
11 1 3 31.1018 -1237.35 0 0 0 0 0
12 1 3 31.1018 -1233.96 0 0 0 0 0
13 1 3 31.1018 -1230.57 0 0 0 0 0
14 1 3 31.1018 -1227.18 0 0 0 0 0
15 1 3 31.1018 -1223.79 0 0 0 0 0
16 1 3 31.1018 -1220.4 0 0 0 0 0
17 1 3 31.1018 -1217.01 0 0 0 0 0
18 1 3 31.1018 -1213.62 0 0 0 0 0
19 1 3 31.1018 -1210.23 0 0 0 0 0
20 1 3 31.1018 -1206.84 0 0 0 0 0
21 1 3 31.1018 -1203.45 0 0 0 0 0
22 1 3 31.1018 -1200.06 0 0 0 0 0
23 1 3 31.1018 -1196.67 0 0 0 0 0
24 1 3 31.1018 -1193.28 0 0 0 0 0
25 1 3 31.1018 -1189.89 0 0 0 0 0
26 1 3 31.1018 -1186.5 0 0 0 0 0
27 1 3 31.1018 -1183.11 0 0 0 0 0
28 1 3 31.1018 -1179.72 0 0 0 0 0
29 1 3 31.1018 -1176.33 0 0 0 0 0
30 1 3 31.1018 -1172.94 0 0 0 0 0
31 1 3 31.1018 -1169.55 0 0 0 0 0
32 1 3 31.1018 -1166.16 0 0 0 0 0
33 1 3 31.1018 -1162.77 0 0 0 0 0
34 1 3 31.1018 -1159.38 0 0 0 0 0
35 1 3 31.1018 -1155.99 0 0 0 0 0
36 1 3 31.1018 -1152.6 0 0 0 0 0
37 1 3 31.1018 -1149.21 0 0 0 0 0
38 1 3 31.1018 -1145.82 0 0 0 0 0
39 1 3 31.1018 -1142.43 0 0 0 0 0
40 1 3 31.1018 -1139.04 0 0 0 0 0
41 1 3 31.1018 -1135.65 0 0 0 0 0
42 1 3 31.1018 -1132.26 0 0 0 0 0
43 1 3 31.1018 -1128.87 0 0 0 0 0
44 1 3 31.1018 -1125.48 0 0 0 0 0
45 1 3 31.1018 -1122.09 0 0 0 0 0
46 1 3 31.1018 -1118.7 0 0 0 0 0
47 1 3 31.1018 -1115.31 0 0 0 0 0
48 1 3 31.1018 -1111.92 0 0 0 0 0
49 1 3 31.1018 -1108.53 0 0 0 0 0
50 1 3 31.1018 -1105.14 0 0 0 0 0
51 1 3 31.1018 -1101.75 0 0 0 0 0
52 1 3 31.1018 -1098.36 0 0 0 0 0
53 1 3 31.1018 -1094.97 0 0 0 0 0
54 1 3 31.1018 -1091.58 0 0 0 0 0
55 1 3 31.1018 -1088.19 0 0 0 0 0
56 1 3 31.1018 -1084.8 0 0 0 0 0
57 1 3 31.1018 -1081.41 0 0 0 0 0
58 1 3 31.1018 -1078.02 0 0 0 0 0
59 1 3 31.1018 -1074.63 0 0 0 0 0
60 1 3 31.1018 -1071.24 0 0 0 0 0
61 1 3 31.1018 -1067.85 0 0 0 0 0
62 1 3 31.1018 -1064.46 0 0 0 0 0
63 1 3 31.1018 -1061.07 0 0 0 0 0
64 1 3 31.1018 -1057.68 0 0 0 0 0
65 1 3 31.1018 -1054.29 0 0 0 0 0
66 1 3 31.1018 -1050.9 0 0 0 0 0
67 1 3 31.1018 -1047.51 0 0 0 0 0
68 1 3 31.1018 -1044.12 0 0 0 0 0
69 1 3 31.1018 -1040.73 0 0 0 0 0
70 1 3 31.1018 -1037.34 0 0 0 0 0
71 1 3 31.1018 -1033.95 0 0 0 0 0
72 1 3 31.1018 -1030.56 0 0 0 0 0
73 1 3 31.1018 -1027.17 0 0 0 0 0
74 1 3 31.1018 -1023.78 0 0 0 0 0
75 1 3 31.1018 -1020.39 0 0 0 0 0
76 1 3 31.1018 -1017 0 0 0 0 0
77 1 3 31.1018 -1013.61 0 0 0 0 0
78 1 3 31.1018 -1010.22 0 0 0 0 0
79 1 3 31.1018 -1006.83 0 0 0 0 0
80 1 3 31.1018 -1003.44 0 0 0 0 0
81 1 3 31.1018 -1000.05 0 0 0 0 0
82 1 3 31.1018 -996.66 0 0 0 0 0
83 1 3 31.1018 -993.27 0 0 0 0 0
84 1 3 31.1018 -989.88 0 0 0 0 0
85 1 3 31.1018 -986.49 0 0 0 0 0
86 1 3 31.1018 -983.1 0 0 0 0 0
87 1 3 31.1018 -979.71 0 0 0 0 0
88 1 3 31.1018 -976.32 0 0 0 0 0
89 1 3 31.1018 -972.93 0 0 0 0 0
90 1 3 31.1018 -969.54 0 0 0 0 0
91 1 3 31.1018 -966.15 0 0 0 0 0
92 1 3 31.1018 -962.76 0 0 0 0 0
93 1 3 31.1018 -959.37 0 0 0 0 0
94 1 3 31.1018 -955.98 0 0 0 0 0
95 1 3 31.1018 -952.59 0 0 0 0 0
96 1 3 31.1018 -949.2 0 0 0 0 0
97 1 3 31.1018 -945.81 0 0 0 0 0
98 1 3 31.1018 -942.42 0 0 0 0 0
99 1 3 31.1018 -939.03 0 0 0 0 0
100 1 3 31.1018 -935.64 0 0 0 0 0
101 1 3 31.1018 -932.25 0 0 0 0 0
102 1 3 31.1018 -928.86 0 0 0 0 0
103 1 3 31.1018 -925.47 0 0 0 0 0
104 1 3 31.1018 -922.08 0 0 0 0 0
105 1 3 31.1018 -918.69 0 0 0 0 0
106 1 3 31.1018 -915.3 0 0 0 0 0
107 1 3 31.1018 -911.91 0 0 0 0 0
108 1 3 31.1018 -908.52 0 0 0 0 0
109 1 3 31.1018 -905.13 0 0 0 0 0
110 1 3 31.1018 -901.74 0 0 0 0 0
111 1 3 31.1018 -898.35 0 0 0 0 0
112 1 3 31.1018 -894.96 0 0 0 0 0
113 1 3 31.1018 -891.57 0 0 0 0 0
114 1 3 31.1018 -888.18 0 0 0 0 0
115 1 3 31.1018 -884.79 0 0 0 0 0
116 1 3 31.1018 -881.4 0 0 0 0 0
117 1 3 31.1018 -878.01 0 0 0 0 0
118 1 3 31.1018 -874.62 0 0 0 0 0
119 1 3 31.1018 -871.23 0 0 0 0 0
120 1 3 31.1018 -867.84 0 0 0 0 0
121 1 3 31.1018 -864.45 0 0 0 0 0
122 1 3 31.1018 -861.06 0 0 0 0 0
123 1 3 31.1018 -857.67 0 0 0 0 0
124 1 3 31.1018 -854.28 0 0 0 0 0
125 1 3 31.1018 -850.89 0 0 0 0 0
126 1 3 31.1018 -847.5 0 0 0 0 0
127 1 3 31.1018 -844.11 0 0 0 0 0
128 1 3 31.1018 -840.72 0 0 0 0 0
129 1 3 31.1018 -837.33 0 0 0 0 0
130 1 3 31.1018 -833.94 0 0 0 0 0
131 1 3 31.1018 -830.55 0 0 0 0 0
132 1 3 31.1018 -827.16 0 0 0 0 0
133 1 3 31.1018 -823.77 0 0 0 0 0
134 1 3 31.1018 -820.38 0 0 0 0 0
135 1 3 31.1018 -816.99 0 0 0 0 0
136 1 3 31.1018 -813.6 0 0 0 0 0
137 1 3 31.1018 -810.21 0 0 0 0 0
138 1 3 31.1018 -806.82 0 0 0 0 0
139 1 3 31.1018 -803.43 0 0 0 0 0
140 1 3 31.1018 -800.04 0 0 0 0 0
141 1 3 31.1018 -796.65 0 0 0 0 0
142 1 3 31.1018 -793.26 0 0 0 0 0
143 1 3 31.1018 -789.87 0 0 0 0 0
144 1 3 31.1018 -786.48 0 0 0 0 0
145 1 3 31.1018 -783.09 0 0 0 0 0
146 1 3 31.1018 -779.7 0 0 0 0 0
147 1 3 31.1018 -776.31 0 0 0 0 0
148 1 3 31.1018 -772.92 0 0 0 0 0
149 1 3 31.1018 -769.53 0 0 0 0 0
150 1 3 31.1018 -766.14 0 0 0 0 0
151 1 3 31.1018 -762.75 0 0 0 0 0
152 1 3 31.1018 -759.36 0 0 0 0 0
153 1 3 31.1018 -755.97 0 0 0 0 0
154 1 3 31.1018 -752.58 0 0 0 0 0
155 1 3 31.1018 -749.19 0 0 0 0 0
156 1 3 31.1018 -745.8 0 0 0 0 0
157 1 3 31.1018 -742.41 0 0 0 0 0
158 1 3 31.1018 -739.02 0 0 0 0 0
159 1 3 31.1018 -735.63 0 0 0 0 0
160 1 3 31.1018 -732.24 0 0 0 0 0
161 1 3 31.1018 -728.85 0 0 0 0 0
162 1 3 31.1018 -725.46 0 0 0 0 0
163 1 3 31.1018 -722.07 0 0 0 0 0
164 1 3 31.1018 -718.68 0 0 0 0 0
165 1 3 31.1018 -715.29 0 0 0 0 0
166 1 3 31.1018 -711.9 0 0 0 0 0
167 1 3 31.1018 -708.51 0 0 0 0 0
168 1 3 31.1018 -705.12 0 0 0 0 0
169 1 3 31.1018 -701.73 0 0 0 0 0
170 1 3 31.1018 -698.34 0 0 0 0 0
171 1 3 31.1018 -694.95 0 0 0 0 0
172 1 3 31.1018 -691.56 0 0 0 0 0
173 1 3 31.1018 -688.17 0 0 0 0 0
174 1 3 31.1018 -684.78 0 0 0 0 0
175 1 3 31.1018 -681.39 0 0 0 0 0
176 1 3 31.1018 -678 0 0 0 0 0
177 1 3 31.1018 -674.61 0 0 0 0 0
178 1 3 31.1018 -671.22 0 0 0 0 0
179 1 3 31.1018 -667.83 0 0 0 0 0
180 1 3 31.1018 -664.44 0 0 0 0 0
181 1 3 31.1018 -661.05 0 0 0 0 0
182 1 3 31.1018 -657.66 0 0 0 0 0
183 1 3 31.1018 -654.27 0 0 0 0 0
184 1 3 31.1018 -650.88 0 0 0 0 0
185 1 3 31.1018 -647.49 0 0 0 0 0
186 1 3 31.1018 -644.1 0 0 0 0 0
187 1 3 31.1018 -640.71 0 0 0 0 0
188 1 3 31.1018 -637.32 0 0 0 0 0
189 1 3 31.1018 -633.93 0 0 0 0 0
190 1 3 31.1018 -630.54 0 0 0 0 0
191 1 3 31.1018 -627.15 0 0 0 0 0
192 1 3 31.1018 -623.76 0 0 0 0 0
193 1 3 31.1018 -620.37 0 0 0 0 0
194 1 3 31.1018 -616.98 0 0 0 0 0
195 1 3 31.1018 -613.59 0 0 0 0 0
196 1 3 31.1018 -610.2 0 0 0 0 0
197 1 3 31.1018 -606.81 0 0 0 0 0
198 1 3 31.1018 -603.42 0 0 0 0 0
199 1 3 31.1018 -600.03 0 0 0 0 0
200 1 3 31.1018 -596.64 0 0 0 0 0
201 1 3 31.1018 -593.25 0 0 0 0 0
202 1 3 31.1018 -589.86 0 0 0 0 0
203 1 3 31.1018 -586.47 0 0 0 0 0
204 1 3 31.1018 -583.08 0 0 0 0 0
205 1 3 31.1018 -579.69 0 0 0 0 0
206 1 3 31.1018 -576.3 0 0 0 0 0
207 1 3 31.1018 -572.91 0 0 0 0 0
208 1 3 31.1018 -569.52 0 0 0 0 0
209 1 3 31.1018 -566.13 0 0 0 0 0
210 1 3 31.1018 -562.74 0 0 0 0 0
211 1 3 31.1018 -559.35 0 0 0 0 0
212 1 3 31.1018 -555.96 0 0 0 0 0
213 1 3 31.1018 -552.57 0 0 0 0 0
214 1 3 31.1018 -549.18 0 0 0 0 0
215 1 3 31.1018 -545.79 0 0 0 0 0
216 1 3 31.1018 -542.4 0 0 0 0 0
217 1 3 31.1018 -539.01 0 0 0 0 0
218 1 3 31.1018 -535.62 0 0 0 0 0
219 1 3 31.1018 -532.23 0 0 0 0 0
220 1 3 31.1018 -528.84 0 0 0 0 0
221 1 3 31.1018 -525.45 0 0 0 0 0
222 1 3 31.1018 -522.06 0 0 0 0 0
223 1 3 31.1018 -518.67 0 0 0 0 0
224 1 3 31.1018 -515.28 0 0 0 0 0
225 1 3 31.1018 -511.89 0 0 0 0 0
226 1 3 31.1018 -508.5 0 0 0 0 0
227 1 3 31.1018 -505.11 0 0 0 0 0
228 1 3 31.1018 -501.72 0 0 0 0 0
229 1 3 31.1018 -498.33 0 0 0 0 0
230 1 3 31.1018 -494.94 0 0 0 0 0
231 1 3 31.1018 -491.55 0 0 0 0 0
232 1 3 31.1018 -488.16 0 0 0 0 0
233 1 3 31.1018 -484.77 0 0 0 0 0
234 1 3 31.1018 -481.38 0 0 0 0 0
235 1 3 31.1018 -477.99 0 0 0 0 0
236 1 3 31.1018 -474.6 0 0 0 0 0
237 1 3 31.1018 -471.21 0 0 0 0 0
238 1 3 31.1018 -467.82 0 0 0 0 0
239 1 3 31.1018 -464.43 0 0 0 0 0
240 1 3 31.1018 -461.04 0 0 0 0 0
241 1 3 31.1018 -457.65 0 0 0 0 0
242 1 3 31.1018 -454.26 0 0 0 0 0
243 1 3 31.1018 -450.87 0 0 0 0 0
244 1 3 31.1018 -447.48 0 0 0 0 0
245 1 3 31.1018 -444.09 0 0 0 0 0
246 1 3 31.1018 -440.7 0 0 0 0 0
247 1 3 31.1018 -437.31 0 0 0 0 0
248 1 3 31.1018 -433.92 0 0 0 0 0
249 1 3 31.1018 -430.53 0 0 0 0 0
250 1 3 31.1018 -427.14 0 0 0 0 0
251 1 3 31.1018 -423.75 0 0 0 0 0
252 1 3 31.1018 -420.36 0 0 0 0 0
253 1 3 31.1018 -416.97 0 0 0 0 0
254 1 3 31.1018 -413.58 0 0 0 0 0
255 1 3 31.1018 -410.19 0 0 0 0 0
256 1 3 31.1018 -406.8 0 0 0 0 0
257 1 3 31.1018 -403.41 0 0 0 0 0
258 1 3 31.1018 -400.02 0 0 0 0 0
259 1 3 31.1018 -396.63 0 0 0 0 0
260 1 3 31.1018 -393.24 0 0 0 0 0
261 1 3 31.1018 -389.85 0 0 0 0 0
262 1 3 31.1018 -386.46 0 0 0 0 0
263 1 3 31.1018 -383.07 0 0 0 0 0
264 1 3 31.1018 -379.68 0 0 0 0 0
265 1 3 31.1018 -376.29 0 0 0 0 0
266 1 3 31.1018 -372.9 0 0 0 0 0
267 1 3 31.1018 -369.51 0 0 0 0 0
268 1 3 31.1018 -366.12 0 0 0 0 0
269 1 3 31.1018 -362.73 0 0 0 0 0
270 1 3 31.1018 -359.34 0 0 0 0 0
271 1 3 31.1018 -355.95 0 0 0 0 0
272 1 3 31.1018 -352.56 0 0 0 0 0
273 1 3 31.1018 -349.17 0 0 0 0 0
274 1 3 31.1018 -345.78 0 0 0 0 0
275 1 3 31.1018 -342.39 0 0 0 0 0
276 1 3 31.1018 -339 0 0 0 0 0
277 1 3 31.1018 -335.61 0 0 0 0 0
278 1 3 31.1018 -332.22 0 0 0 0 0
279 1 3 31.1018 -328.83 0 0 0 0 0
280 1 3 31.1018 -325.44 0 0 0 0 0
281 1 3 31.1018 -322.05 0 0 0 0 0
282 1 3 31.1018 -318.66 0 0 0 0 0
283 1 3 31.1018 -315.27 0 0 0 0 0
284 1 3 31.1018 -311.88 0 0 0 0 0
285 1 3 31.1018 -308.49 0 0 0 0 0
286 1 3 31.1018 -305.1 0 0 0 0 0
287 1 3 31.1018 -301.71 0 0 0 0 0
288 1 3 31.1018 -298.32 0 0 0 0 0
289 1 3 31.1018 -294.93 0 0 0 0 0
290 1 3 31.1018 -291.54 0 0 0 0 0
291 1 3 31.1018 -288.15 0 0 0 0 0
292 1 3 31.1018 -284.76 0 0 0 0 0
293 1 3 31.1018 -281.37 0 0 0 0 0
294 1 3 31.1018 -277.98 0 0 0 0 0
295 1 3 31.1018 -274.59 0 0 0 0 0
296 1 3 31.1018 -271.2 0 0 0 0 0
297 1 3 31.1018 -267.81 0 0 0 0 0
298 1 3 31.1018 -264.42 0 0 0 0 0
299 1 3 31.1018 -261.03 0 0 0 0 0
300 1 3 31.1018 -257.64 0 0 0 0 0
301 1 3 31.1018 -254.25 0 0 0 0 0
302 1 3 31.1018 -250.86 0 0 0 0 0
303 1 3 31.1018 -247.47 0 0 0 0 0
304 1 3 31.1018 -244.08 0 0 0 0 0
305 1 3 31.1018 -240.69 0 0 0 0 0
306 1 3 31.1018 -237.3 0 0 0 0 0
307 1 3 31.1018 -233.91 0 0 0 0 0
308 1 3 31.1018 -230.52 0 0 0 0 0
309 1 3 31.1018 -227.13 0 0 0 0 0
310 1 3 31.1018 -223.74 0 0 0 0 0
311 1 3 31.1018 -220.35 0 0 0 0 0
312 1 3 31.1018 -216.96 0 0 0 0 0
313 1 3 31.1018 -213.57 0 0 0 0 0
314 1 3 31.1018 -210.18 0 0 0 0 0
315 1 3 31.1018 -206.79 0 0 0 0 0
316 1 3 31.1018 -203.4 0 0 0 0 0
317 1 3 31.1018 -200.01 0 0 0 0 0
318 1 3 31.1018 -196.62 0 0 0 0 0
319 1 3 31.1018 -193.23 0 0 0 0 0
320 1 3 31.1018 -189.84 0 0 0 0 0
321 1 3 31.1018 -186.45 0 0 0 0 0
322 1 3 31.1018 -183.06 0 0 0 0 0
323 1 3 31.1018 -179.67 0 0 0 0 0
324 1 3 31.1018 -176.28 0 0 0 0 0
325 1 3 31.1018 -172.89 0 0 0 0 0
326 1 3 31.1018 -169.5 0 0 0 0 0
327 1 3 31.1018 -166.11 0 0 0 0 0
328 1 3 31.1018 -162.72 0 0 0 0 0
329 1 3 31.1018 -159.33 0 0 0 0 0
330 1 3 31.1018 -155.94 0 0 0 0 0
331 1 3 31.1018 -152.55 0 0 0 0 0
332 1 3 31.1018 -149.16 0 0 0 0 0
333 1 3 31.1018 -145.77 0 0 0 0 0
334 1 3 31.1018 -142.38 0 0 0 0 0
335 1 3 31.1018 -138.99 0 0 0 0 0
336 1 3 31.1018 -135.6 0 0 0 0 0
337 1 3 31.1018 -132.21 0 0 0 0 0
338 1 3 31.1018 -128.82 0 0 0 0 0
339 1 3 31.1018 -125.43 0 0 0 0 0
340 1 3 31.1018 -122.04 0 0 0 0 0
341 1 3 31.1018 -118.65 0 0 0 0 0
342 1 3 31.1018 -115.26 0 0 0 0 0
343 1 3 31.1018 -111.87 0 0 0 0 0
344 1 3 31.1018 -108.48 0 0 0 0 0
345 1 3 31.1018 -105.09 0 0 0 0 0
346 1 3 31.1018 -101.7 0 0 0 0 0
347 1 3 31.1018 -98.31 0 0 0 0 0
348 1 3 31.1018 -94.92 0 0 0 0 0
349 1 3 31.1018 -91.53 0 0 0 0 0
350 1 3 31.1018 -88.14 0 0 0 0 0
351 1 3 31.1018 -84.75 0 0 0 0 0
352 1 3 31.1018 -81.36 0 0 0 0 0
353 1 3 31.1018 -77.97 0 0 0 0 0
354 1 3 31.1018 -74.58 0 0 0 0 0
355 1 3 31.1018 -71.19 0 0 0 0 0
356 1 3 31.1018 -67.8 0 0 0 0 0
357 1 3 31.1018 -64.41 0 0 0 0 0
358 1 3 31.1018 -61.02 0 0 0 0 0
359 1 3 31.1018 -57.63 0 0 0 0 0
360 1 3 31.1018 -54.24 0 0 0 0 0
361 1 3 31.1018 -50.85 0 0 0 0 0
362 1 3 31.1018 -47.46 0 0 0 0 0
363 1 3 31.1018 -44.07 0 0 0 0 0
364 1 3 31.1018 -40.68 0 0 0 0 0
365 1 3 31.1018 -37.29 0 0 0 0 0
366 1 3 31.1018 -33.9 0 0 0 0 0
367 1 3 31.1018 -30.51 0 0 0 0 0
368 1 3 31.1018 -27.12 0 0 0 0 0
369 1 3 31.1018 -23.73 0 0 0 0 0
370 1 3 31.1018 -20.34 0 0 0 0 0
371 1 3 31.1018 -16.95 0 0 0 0 0
372 1 3 31.1018 -13.56 0 0 0 0 0
373 1 3 31.1018 -10.17 0 0 0 0 0
374 1 3 31.1018 -6.78 0 0 0 0 0
375 1 3 31.1018 -3.39 0 0 0 0 0
751 2 3 31.1018 -750 0 2.99561 0 0 -1000
752 2 3 31.1018 -747 0 2.99561 0 0 -1000
753 2 3 31.1018 -744 0 2.99561 0 0 -1000
754 2 3 31.1018 -741 0 2.99561 0 0 -1000
755 2 3 31.1018 -738 0 2.99561 0 0 -1000
756 2 3 31.1018 -735 0 2.99561 0 0 -1000
757 2 3 31.1018 -732 0 2.99561 0 0 -1000
758 2 3 31.1018 -729 0 2.99561 -48.8636 0 7.30122
759 2 3 31.1018 -726 0 2.99561 0 0 -1000
760 2 3 31.1018 -723 0 2.99561 0 0 -1000
761 2 3 31.1018 -720 0 2.99561 0 0 -1000
762 2 3 31.1018 -717 0 2.99561 0 0 -1000
763 2 3 31.1018 -714 0 2.99561 0 0 -1000
764 2 3 31.1018 -711 0 2.99561 0 0 -1000
765 2 3 31.1018 -708 0 2.99561 0 0 -1000
766 2 3 31.1018 -705 0 2.99561 211.554 0 4597.58
767 2 3 31.1018 -702 0 2.99561 0 0 -1000
768 2 3 31.1018 -699 0 2.99561 0 0 -1000
769 2 3 31.1018 -696 0 2.99561 0 0 -1000
770 2 3 31.1018 -693 0 2.99561 0 0 -1000
771 2 3 31.1018 -690 0 2.99561 0 0 -1000
772 2 3 31.1018 -687 0 2.99561 0 0 -1000
773 2 3 31.1018 -684 0 2.99561 0 0 -1000
774 2 3 31.1018 -681 0 2.99561 0 0 -1000
775 2 3 31.1018 -678 0 2.99561 -1.16156e-12 0 17424.7
776 2 3 31.1018 -675 0 2.99561 0 0 -1000
777 2 3 31.1018 -672 0 2.99561 0 0 -1000
778 2 3 31.1018 -669 0 2.99561 0 0 -1000
779 2 3 31.1018 -666 0 2.99561 0 0 -1000
780 2 3 31.1018 -663 0 2.99561 0 0 -1000
781 2 3 31.1018 -660 0 2.99561 0 0 -1000
782 2 3 31.1018 -657 0 2.99561 0 0 -1000
783 2 3 31.1018 -654 0 2.99561 0 0 -1000
784 2 3 31.1018 -651 0 2.99561 -211.554 0 4597.58
785 2 3 31.1018 -648 0 2.99561 0 0 -1000
786 2 3 31.1018 -645 0 2.99561 0 0 -1000
787 2 3 31.1018 -642 0 2.99561 0 0 -1000
788 2 3 31.1018 -639 0 2.99561 0 0 -1000
789 2 3 31.1018 -636 0 2.99561 0 0 -1000
790 2 3 31.1018 -633 0 2.99561 0 0 -1000
791 2 3 31.1018 -630 0 2.99561 0 0 -1000
792 2 3 31.1018 -627 0 2.99561 48.8636 0 7.30122
793 2 3 31.1018 -624 0 2.99561 0 0 -1000
794 2 3 31.1018 -621 0 2.99561 0 0 -1000
795 2 3 31.1018 -618 0 2.99561 0 0 -1000
796 2 3 31.1018 -615 0 2.99561 0 0 -1000
797 2 3 31.1018 -612 0 2.99561 0 0 -1000
798 2 3 31.1018 -609 0 2.99561 0 0 -1000
799 2 3 31.1018 -606 0 2.99561 0 0 -1000
800 2 3 31.1018 -603 0 2.99561 0 0 -1000
801 2 3 31.1018 -600 0 2.99561 26.9669 0 16486.8
802 2 3 31.1018 -597 0 2.99561 0 0 -1000
803 2 3 31.1018 -594 0 2.99561 0 0 -1000
804 2 3 31.1018 -591 0 2.99561 0 0 -1000
805 2 3 31.1018 -588 0 2.99561 0 0 -1000
806 2 3 31.1018 -585 0 2.99561 0 0 -1000
807 2 3 31.1018 -582 0 2.99561 0 0 -1000
808 2 3 31.1018 -579 0 2.99561 0 0 -1000
809 2 3 31.1018 -576 0 2.99561 0 0 -1000
810 2 3 31.1018 -573 0 2.99561 -286.781 0 9597.19
811 2 3 31.1018 -570 0 2.99561 0 0 -1000
812 2 3 31.1018 -567 0 2.99561 0 0 -1000
813 2 3 31.1018 -564 0 2.99561 0 0 -1000
814 2 3 31.1018 -561 0 2.99561 0 0 -1000
815 2 3 31.1018 -558 0 2.99561 0 0 -1000
816 2 3 31.1018 -555 0 2.99561 0 0 -1000
817 2 3 31.1018 -552 0 2.99561 0 0 -1000
818 2 3 31.1018 -549 0 2.99561 0 0 -1000
819 2 3 31.1018 -546 0 2.99561 0 0 -1000
820 2 3 31.1018 -543 0 2.99561 0 0 -1000
821 2 3 31.1018 -540 0 2.99561 0 0 -1000
822 2 3 31.1018 -537 0 2.99561 0 0 -1000
823 2 3 31.1018 -534 0 2.99561 0 0 -1000
824 2 3 31.1018 -531 0 2.99561 0 0 -1000
825 2 3 31.1018 -528 0 2.99561 0 0 -1000
826 2 3 31.1018 -525 0 2.99561 0 0 -1000
827 2 3 31.1018 -522 0 2.99561 229.886 0 13769.4
828 2 3 31.1018 -519 0 2.99561 0 0 -1000
829 2 3 31.1018 -516 0 2.99561 0 0 -1000
830 2 3 31.1018 -513 0 2.99561 0 0 -1000
831 2 3 31.1018 -510 0 2.99561 0 0 -1000
832 2 3 31.1018 -507 0 2.99561 0 0 -1000
833 2 3 31.1018 -504 0 2.99561 0 0 -1000
834 2 3 31.1018 -501 0 2.99561 0 0 -1000
835 2 3 31.1018 -498 0 2.99561 0 0 -1000
836 2 3 31.1018 -495 0 2.99561 -229.886 0 13769.4
837 2 3 31.1018 -492 0 2.99561 0 0 -1000
838 2 3 31.1018 -489 0 2.99561 0 0 -1000
839 2 3 31.1018 -486 0 2.99561 0 0 -1000
840 2 3 31.1018 -483 0 2.99561 0 0 -1000
841 2 3 31.1018 -480 0 2.99561 0 0 -1000
842 2 3 31.1018 -477 0 2.99561 0 0 -1000
843 2 3 31.1018 -474 0 2.99561 0 0 -1000
844 2 3 31.1018 -471 0 2.99561 0 0 -1000
845 2 3 31.1018 -468 0 2.99561 0 0 -1000
846 2 3 31.1018 -465 0 2.99561 0 0 -1000
847 2 3 31.1018 -462 0 2.99561 0 0 -1000
848 2 3 31.1018 -459 0 2.99561 0 0 -1000
849 2 3 31.1018 -456 0 2.99561 0 0 -1000
850 2 3 31.1018 -453 0 2.99561 0 0 -1000
851 2 3 31.1018 -450 0 2.99561 0 0 -1000
852 2 3 31.1018 -447 0 2.99561 0 0 -1000
853 2 3 31.1018 -444 0 2.99561 286.781 0 9597.19
854 2 3 31.1018 -441 0 2.99561 0 0 -1000
855 2 3 31.1018 -438 0 2.99561 0 0 -1000
856 2 3 31.1018 -435 0 2.99561 0 0 -1000
857 2 3 31.1018 -432 0 2.99561 0 0 -1000
858 2 3 31.1018 -429 0 2.99561 0 0 -1000
859 2 3 31.1018 -426 0 2.99561 0 0 -1000
860 2 3 31.1018 -423 0 2.99561 0 0 -1000
861 2 3 31.1018 -420 0 2.99561 0 0 -1000
862 2 3 31.1018 -417 0 2.99561 -26.9669 0 16486.8
863 2 3 31.1018 -414 0 2.99561 0 0 -1000
864 2 3 31.1018 -411 0 2.99561 0 0 -1000
865 2 3 31.1018 -408 0 2.99561 0 0 -1000
866 2 3 31.1018 -405 0 2.99561 0 0 -1000
867 2 3 31.1018 -402 0 2.99561 0 0 -1000
868 2 3 31.1018 -399 0 2.99561 0 0 -1000
869 2 3 31.1018 -396 0 2.99561 0 0 -1000
870 2 3 31.1018 -393 0 2.99561 0 0 -1000
871 2 3 31.1018 -390 0 2.99561 -48.8636 0 7.30122
872 2 3 31.1018 -387 0 2.99561 0 0 -1000
873 2 3 31.1018 -384 0 2.99561 0 0 -1000
874 2 3 31.1018 -381 0 2.99561 0 0 -1000
875 2 3 31.1018 -378 0 2.99561 0 0 -1000
876 2 3 31.1018 -375 0 2.99561 0 0 -1000
877 2 3 31.1018 -372 0 2.99561 0 0 -1000
878 2 3 31.1018 -369 0 2.99561 0 0 -1000
879 2 3 31.1018 -366 0 2.99561 211.554 0 4597.58
880 2 3 31.1018 -363 0 2.99561 0 0 -1000
881 2 3 31.1018 -360 0 2.99561 0 0 -1000
882 2 3 31.1018 -357 0 2.99561 0 0 -1000
883 2 3 31.1018 -354 0 2.99561 0 0 -1000
884 2 3 31.1018 -351 0 2.99561 0 0 -1000
885 2 3 31.1018 -348 0 2.99561 0 0 -1000
886 2 3 31.1018 -345 0 2.99561 0 0 -1000
887 2 3 31.1018 -342 0 2.99561 0 0 -1000
888 2 3 31.1018 -339 0 2.99561 -1.16156e-12 0 17424.7
889 2 3 31.1018 -336 0 2.99561 0 0 -1000
890 2 3 31.1018 -333 0 2.99561 0 0 -1000
891 2 3 31.1018 -330 0 2.99561 0 0 -1000
892 2 3 31.1018 -327 0 2.99561 0 0 -1000
893 2 3 31.1018 -324 0 2.99561 0 0 -1000
894 2 3 31.1018 -321 0 2.99561 0 0 -1000
895 2 3 31.1018 -318 0 2.99561 0 0 -1000
896 2 3 31.1018 -315 0 2.99561 0 0 -1000
897 2 3 31.1018 -312 0 2.99561 -211.554 0 4597.58
898 2 3 31.1018 -309 0 2.99561 0 0 -1000
899 2 3 31.1018 -306 0 2.99561 0 0 -1000
900 2 3 31.1018 -303 0 2.99561 0 0 -1000
901 2 3 31.1018 -300 0 2.99561 0 0 -1000
902 2 3 31.1018 -297 0 2.99561 0 0 -1000
903 2 3 31.1018 -294 0 2.99561 0 0 -1000
904 2 3 31.1018 -291 0 2.99561 0 0 -1000
905 2 3 31.1018 -288 0 2.99561 48.8636 0 7.30122
906 2 3 31.1018 -285 0 2.99561 0 0 -1000
907 2 3 31.1018 -282 0 2.99561 0 0 -1000
908 2 3 31.1018 -279 0 2.99561 0 0 -1000
909 2 3 31.1018 -276 0 2.99561 0 0 -1000
910 2 3 31.1018 -273 0 2.99561 0 0 -1000
911 2 3 31.1018 -270 0 2.99561 0 0 -1000
912 2 3 31.1018 -267 0 2.99561 0 0 -1000
913 2 3 31.1018 -264 0 2.99561 0 0 -1000
914 2 3 31.1018 -261 0 2.99561 26.9669 0 16486.8
915 2 3 31.1018 -258 0 2.99561 0 0 -1000
916 2 3 31.1018 -255 0 2.99561 0 0 -1000
917 2 3 31.1018 -252 0 2.99561 0 0 -1000
918 2 3 31.1018 -249 0 2.99561 0 0 -1000
919 2 3 31.1018 -246 0 2.99561 0 0 -1000
920 2 3 31.1018 -243 0 2.99561 0 0 -1000
921 2 3 31.1018 -240 0 2.99561 0 0 -1000
922 2 3 31.1018 -237 0 2.99561 0 0 -1000
923 2 3 31.1018 -234 0 2.99561 -286.781 0 9597.19
924 2 3 31.1018 -231 0 2.99561 0 0 -1000
925 2 3 31.1018 -228 0 2.99561 0 0 -1000
926 2 3 31.1018 -225 0 2.99561 0 0 -1000
927 2 3 31.1018 -222 0 2.99561 0 0 -1000
928 2 3 31.1018 -219 0 2.99561 0 0 -1000
929 2 3 31.1018 -216 0 2.99561 0 0 -1000
930 2 3 31.1018 -213 0 2.99561 0 0 -1000
931 2 3 31.1018 -210 0 2.99561 0 0 -1000
932 2 3 31.1018 -207 0 2.99561 0 0 -1000
933 2 3 31.1018 -204 0 2.99561 0 0 -1000
934 2 3 31.1018 -201 0 2.99561 0 0 -1000
935 2 3 31.1018 -198 0 2.99561 0 0 -1000
936 2 3 31.1018 -195 0 2.99561 0 0 -1000
937 2 3 31.1018 -192 0 2.99561 0 0 -1000
938 2 3 31.1018 -189 0 2.99561 0 0 -1000
939 2 3 31.1018 -186 0 2.99561 0 0 -1000
940 2 3 31.1018 -183 0 2.99561 229.886 0 13769.4
941 2 3 31.1018 -180 0 2.99561 0 0 -1000
942 2 3 31.1018 -177 0 2.99561 0 0 -1000
943 2 3 31.1018 -174 0 2.99561 0 0 -1000
944 2 3 31.1018 -171 0 2.99561 0 0 -1000
945 2 3 31.1018 -168 0 2.99561 0 0 -1000
946 2 3 31.1018 -165 0 2.99561 0 0 -1000
947 2 3 31.1018 -162 0 2.99561 0 0 -1000
948 2 3 31.1018 -159 0 2.99561 0 0 -1000
949 2 3 31.1018 -156 0 2.99561 -229.886 0 13769.4
950 2 3 31.1018 -153 0 2.99561 0 0 -1000
951 2 3 31.1018 -150 0 2.99561 0 0 -1000
952 2 3 31.1018 -147 0 2.99561 0 0 -1000
953 2 3 31.1018 -144 0 2.99561 0 0 -1000
954 2 3 31.1018 -141 0 2.99561 0 0 -1000
955 2 3 31.1018 -138 0 2.99561 0 0 -1000
956 2 3 31.1018 -135 0 2.99561 0 0 -1000
957 2 3 31.1018 -132 0 2.99561 0 0 -1000
958 2 3 31.1018 -129 0 2.99561 0 0 -1000
959 2 3 31.1018 -126 0 2.99561 0 0 -1000
960 2 3 31.1018 -123 0 2.99561 0 0 -1000
961 2 3 31.1018 -120 0 2.99561 0 0 -1000
962 2 3 31.1018 -117 0 2.99561 0 0 -1000
963 2 3 31.1018 -114 0 2.99561 0 0 -1000
964 2 3 31.1018 -111 0 2.99561 0 0 -1000
965 2 3 31.1018 -108 0 2.99561 0 0 -1000
966 2 3 31.1018 -105 0 2.99561 286.781 0 9597.19
967 2 3 31.1018 -102 0 2.99561 0 0 -1000
968 2 3 31.1018 -99 0 2.99561 0 0 -1000
969 2 3 31.1018 -96 0 2.99561 0 0 -1000
970 2 3 31.1018 -93 0 2.99561 0 0 -1000
971 2 3 31.1018 -90 0 2.99561 0 0 -1000
972 2 3 31.1018 -87 0 2.99561 0 0 -1000
973 2 3 31.1018 -84 0 2.99561 0 0 -1000
974 2 3 31.1018 -81 0 2.99561 0 0 -1000
975 2 3 31.1018 -78 0 2.99561 -26.9669 0 16486.8
976 2 3 31.1018 -75 0 2.99561 0 0 -1000
977 2 3 31.1018 -72 0 2.99561 0 0 -1000
978 2 3 31.1018 -69 0 2.99561 0 0 -1000
979 2 3 31.1018 -66 0 2.99561 0 0 -1000
980 2 3 31.1018 -63 0 2.99561 0 0 -1000
981 2 3 31.1018 -60 0 2.99561 0 0 -1000
982 2 3 31.1018 -57 0 2.99561 0 0 -1000
983 2 3 31.1018 -54 0 2.99561 0 0 -1000
984 2 3 31.1018 -51 0 2.99561 -48.8636 0 7.30122
985 2 3 31.1018 -48 0 2.99561 0 0 -1000
986 2 3 31.1018 -45 0 2.99561 0 0 -1000
987 2 3 31.1018 -42 0 2.99561 0 0 -1000
988 2 3 31.1018 -39 0 2.99561 0 0 -1000
989 2 3 31.1018 -36 0 2.99561 0 0 -1000
990 2 3 31.1018 -33 0 2.99561 0 0 -1000
991 2 3 31.1018 -30 0 2.99561 0 0 -1000
992 2 3 31.1018 -27 0 2.99561 211.554 0 4597.58
993 2 3 31.1018 -24 0 2.99561 0 0 -1000
994 2 3 31.1018 -21 0 2.99561 0 0 -1000
995 2 3 31.1018 -18 0 2.99561 0 0 -1000
996 2 3 31.1018 -15 0 2.99561 0 0 -1000
997 2 3 31.1018 -12 0 2.99561 0 0 -1000
998 2 3 31.1018 -9 0 2.99561 0 0 -1000
999 2 3 31.1018 -6 0 2.99561 0 0 -1000
1000 2 3 31.1018 -3 0 2.99561 0 0 -1000
1001 2 3 31.1018 -5.79524e-20 0 2.99561 -1.15998e-12 0 17424.7
376 1 3 31.1018 0 0 0 0 0 0
377 1 3 31.1018 3.39 0 0 0 0 0
378 1 3 31.1018 6.78 0 0 0 0 0
379 1 3 31.1018 10.17 0 0 0 0 0
380 1 3 31.1018 13.56 0 0 0 0 0
381 1 3 31.1018 16.95 0 0 0 0 0
382 1 3 31.1018 20.34 0 0 0 0 0
383 1 3 31.1018 23.73 0 0 0 0 0
384 1 3 31.1018 27.12 0 0 0 0 0
385 1 3 31.1018 30.51 0 0 0 0 0
386 1 3 31.1018 33.9 0 0 0 0 0
387 1 3 31.1018 37.29 0 0 0 0 0
388 1 3 31.1018 40.68 0 0 0 0 0
389 1 3 31.1018 44.07 0 0 0 0 0
390 1 3 31.1018 47.46 0 0 0 0 0
391 1 3 31.1018 50.85 0 0 0 0 0
392 1 3 31.1018 54.24 0 0 0 0 0
393 1 3 31.1018 57.63 0 0 0 0 0
394 1 3 31.1018 61.02 0 0 0 0 0
395 1 3 31.1018 64.41 0 0 0 0 0
396 1 3 31.1018 67.8 0 0 0 0 0
397 1 3 31.1018 71.19 0 0 0 0 0
398 1 3 31.1018 74.58 0 0 0 0 0
399 1 3 31.1018 77.97 0 0 0 0 0
400 1 3 31.1018 81.36 0 0 0 0 0
401 1 3 31.1018 84.75 0 0 0 0 0
402 1 3 31.1018 88.14 0 0 0 0 0
403 1 3 31.1018 91.53 0 0 0 0 0
404 1 3 31.1018 94.92 0 0 0 0 0
405 1 3 31.1018 98.31 0 0 0 0 0
406 1 3 31.1018 101.7 0 0 0 0 0
407 1 3 31.1018 105.09 0 0 0 0 0
408 1 3 31.1018 108.48 0 0 0 0 0
409 1 3 31.1018 111.87 0 0 0 0 0
410 1 3 31.1018 115.26 0 0 0 0 0
411 1 3 31.1018 118.65 0 0 0 0 0
412 1 3 31.1018 122.04 0 0 0 0 0
413 1 3 31.1018 125.43 0 0 0 0 0
414 1 3 31.1018 128.82 0 0 0 0 0
415 1 3 31.1018 132.21 0 0 0 0 0
416 1 3 31.1018 135.6 0 0 0 0 0
417 1 3 31.1018 138.99 0 0 0 0 0
418 1 3 31.1018 142.38 0 0 0 0 0
419 1 3 31.1018 145.77 0 0 0 0 0
420 1 3 31.1018 149.16 0 0 0 0 0
421 1 3 31.1018 152.55 0 0 0 0 0
422 1 3 31.1018 155.94 0 0 0 0 0
423 1 3 31.1018 159.33 0 0 0 0 0
424 1 3 31.1018 162.72 0 0 0 0 0
425 1 3 31.1018 166.11 0 0 0 0 0
426 1 3 31.1018 169.5 0 0 0 0 0
427 1 3 31.1018 172.89 0 0 0 0 0
428 1 3 31.1018 176.28 0 0 0 0 0
429 1 3 31.1018 179.67 0 0 0 0 0
430 1 3 31.1018 183.06 0 0 0 0 0
431 1 3 31.1018 186.45 0 0 0 0 0
432 1 3 31.1018 189.84 0 0 0 0 0
433 1 3 31.1018 193.23 0 0 0 0 0
434 1 3 31.1018 196.62 0 0 0 0 0
435 1 3 31.1018 200.01 0 0 0 0 0
436 1 3 31.1018 203.4 0 0 0 0 0
437 1 3 31.1018 206.79 0 0 0 0 0
438 1 3 31.1018 210.18 0 0 0 0 0
439 1 3 31.1018 213.57 0 0 0 0 0
440 1 3 31.1018 216.96 0 0 0 0 0
441 1 3 31.1018 220.35 0 0 0 0 0
442 1 3 31.1018 223.74 0 0 0 0 0
443 1 3 31.1018 227.13 0 0 0 0 0
444 1 3 31.1018 230.52 0 0 0 0 0
445 1 3 31.1018 233.91 0 0 0 0 0
446 1 3 31.1018 237.3 0 0 0 0 0
447 1 3 31.1018 240.69 0 0 0 0 0
448 1 3 31.1018 244.08 0 0 0 0 0
449 1 3 31.1018 247.47 0 0 0 0 0
450 1 3 31.1018 250.86 0 0 0 0 0
451 1 3 31.1018 254.25 0 0 0 0 0
452 1 3 31.1018 257.64 0 0 0 0 0
453 1 3 31.1018 261.03 0 0 0 0 0
454 1 3 31.1018 264.42 0 0 0 0 0
455 1 3 31.1018 267.81 0 0 0 0 0
456 1 3 31.1018 271.2 0 0 0 0 0
457 1 3 31.1018 274.59 0 0 0 0 0
458 1 3 31.1018 277.98 0 0 0 0 0
459 1 3 31.1018 281.37 0 0 0 0 0
460 1 3 31.1018 284.76 0 0 0 0 0
461 1 3 31.1018 288.15 0 0 0 0 0
462 1 3 31.1018 291.54 0 0 0 0 0
463 1 3 31.1018 294.93 0 0 0 0 0
464 1 3 31.1018 298.32 0 0 0 0 0
465 1 3 31.1018 301.71 0 0 0 0 0
466 1 3 31.1018 305.1 0 0 0 0 0
467 1 3 31.1018 308.49 0 0 0 0 0
468 1 3 31.1018 311.88 0 0 0 0 0
469 1 3 31.1018 315.27 0 0 0 0 0
470 1 3 31.1018 318.66 0 0 0 0 0
471 1 3 31.1018 322.05 0 0 0 0 0
472 1 3 31.1018 325.44 0 0 0 0 0
473 1 3 31.1018 328.83 0 0 0 0 0
474 1 3 31.1018 332.22 0 0 0 0 0
475 1 3 31.1018 335.61 0 0 0 0 0
476 1 3 31.1018 339 0 0 0 0 0
477 1 3 31.1018 342.39 0 0 0 0 0
478 1 3 31.1018 345.78 0 0 0 0 0
479 1 3 31.1018 349.17 0 0 0 0 0
480 1 3 31.1018 352.56 0 0 0 0 0
481 1 3 31.1018 355.95 0 0 0 0 0
482 1 3 31.1018 359.34 0 0 0 0 0
483 1 3 31.1018 362.73 0 0 0 0 0
484 1 3 31.1018 366.12 0 0 0 0 0
485 1 3 31.1018 369.51 0 0 0 0 0
486 1 3 31.1018 372.9 0 0 0 0 0
487 1 3 31.1018 376.29 0 0 0 0 0
488 1 3 31.1018 379.68 0 0 0 0 0
489 1 3 31.1018 383.07 0 0 0 0 0
490 1 3 31.1018 386.46 0 0 0 0 0
491 1 3 31.1018 389.85 0 0 0 0 0
492 1 3 31.1018 393.24 0 0 0 0 0
493 1 3 31.1018 396.63 0 0 0 0 0
494 1 3 31.1018 400.02 0 0 0 0 0
495 1 3 31.1018 403.41 0 0 0 0 0
496 1 3 31.1018 406.8 0 0 0 0 0
497 1 3 31.1018 410.19 0 0 0 0 0
498 1 3 31.1018 413.58 0 0 0 0 0
499 1 3 31.1018 416.97 0 0 0 0 0
500 1 3 31.1018 420.36 0 0 0 0 0
501 1 3 31.1018 423.75 0 0 0 0 0
502 1 3 31.1018 427.14 0 0 0 0 0
503 1 3 31.1018 430.53 0 0 0 0 0
504 1 3 31.1018 433.92 0 0 0 0 0
505 1 3 31.1018 437.31 0 0 0 0 0
506 1 3 31.1018 440.7 0 0 0 0 0
507 1 3 31.1018 444.09 0 0 0 0 0
508 1 3 31.1018 447.48 0 0 0 0 0
509 1 3 31.1018 450.87 0 0 0 0 0
510 1 3 31.1018 454.26 0 0 0 0 0
511 1 3 31.1018 457.65 0 0 0 0 0
512 1 3 31.1018 461.04 0 0 0 0 0
513 1 3 31.1018 464.43 0 0 0 0 0
514 1 3 31.1018 467.82 0 0 0 0 0
515 1 3 31.1018 471.21 0 0 0 0 0
516 1 3 31.1018 474.6 0 0 0 0 0
517 1 3 31.1018 477.99 0 0 0 0 0
518 1 3 31.1018 481.38 0 0 0 0 0
519 1 3 31.1018 484.77 0 0 0 0 0
520 1 3 31.1018 488.16 0 0 0 0 0
521 1 3 31.1018 491.55 0 0 0 0 0
522 1 3 31.1018 494.94 0 0 0 0 0
523 1 3 31.1018 498.33 0 0 0 0 0
524 1 3 31.1018 501.72 0 0 0 0 0
525 1 3 31.1018 505.11 0 0 0 0 0
526 1 3 31.1018 508.5 0 0 0 0 0
527 1 3 31.1018 511.89 0 0 0 0 0
528 1 3 31.1018 515.28 0 0 0 0 0
529 1 3 31.1018 518.67 0 0 0 0 0
530 1 3 31.1018 522.06 0 0 0 0 0
531 1 3 31.1018 525.45 0 0 0 0 0
532 1 3 31.1018 528.84 0 0 0 0 0
533 1 3 31.1018 532.23 0 0 0 0 0
534 1 3 31.1018 535.62 0 0 0 0 0
535 1 3 31.1018 539.01 0 0 0 0 0
536 1 3 31.1018 542.4 0 0 0 0 0
537 1 3 31.1018 545.79 0 0 0 0 0
538 1 3 31.1018 549.18 0 0 0 0 0
539 1 3 31.1018 552.57 0 0 0 0 0
540 1 3 31.1018 555.96 0 0 0 0 0
541 1 3 31.1018 559.35 0 0 0 0 0
542 1 3 31.1018 562.74 0 0 0 0 0
543 1 3 31.1018 566.13 0 0 0 0 0
544 1 3 31.1018 569.52 0 0 0 0 0
545 1 3 31.1018 572.91 0 0 0 0 0
546 1 3 31.1018 576.3 0 0 0 0 0
547 1 3 31.1018 579.69 0 0 0 0 0
548 1 3 31.1018 583.08 0 0 0 0 0
549 1 3 31.1018 586.47 0 0 0 0 0
550 1 3 31.1018 589.86 0 0 0 0 0
551 1 3 31.1018 593.25 0 0 0 0 0
552 1 3 31.1018 596.64 0 0 0 0 0
553 1 3 31.1018 600.03 0 0 0 0 0
554 1 3 31.1018 603.42 0 0 0 0 0
555 1 3 31.1018 606.81 0 0 0 0 0
556 1 3 31.1018 610.2 0 0 0 0 0
557 1 3 31.1018 613.59 0 0 0 0 0
558 1 3 31.1018 616.98 0 0 0 0 0
559 1 3 31.1018 620.37 0 0 0 0 0
560 1 3 31.1018 623.76 0 0 0 0 0
561 1 3 31.1018 627.15 0 0 0 0 0
562 1 3 31.1018 630.54 0 0 0 0 0
563 1 3 31.1018 633.93 0 0 0 0 0
564 1 3 31.1018 637.32 0 0 0 0 0
565 1 3 31.1018 640.71 0 0 0 0 0
566 1 3 31.1018 644.1 0 0 0 0 0
567 1 3 31.1018 647.49 0 0 0 0 0
568 1 3 31.1018 650.88 0 0 0 0 0
569 1 3 31.1018 654.27 0 0 0 0 0
570 1 3 31.1018 657.66 0 0 0 0 0
571 1 3 31.1018 661.05 0 0 0 0 0
572 1 3 31.1018 664.44 0 0 0 0 0
573 1 3 31.1018 667.83 0 0 0 0 0
574 1 3 31.1018 671.22 0 0 0 0 0
575 1 3 31.1018 674.61 0 0 0 0 0
576 1 3 31.1018 678 0 0 0 0 0