LAMMPS (23 Jun 2022 - Update 1)
  using 1 OpenMP thread(s) per MPI task
variable num index 0 1 2 3 4 5 6 7 8 9 10 11 12 13 14 15 16 17 18 19 20 21 22 23 24 25 26 27 28 29 30 31 32 33 34 35 36 37 38 39 40 41 42 43 44 45 46 47 48 49 50 51 52 53 54 55 56 57 58 59 60 61 62 63 64 65 66 67 68 69 70 71 72 73 74 75 76 77 78 79 80 81 82 83 84 85 86 87 88 89 90 91 92 93 94 95 96 97 98 99

label startloop

include granular.in
### Simulation of contact between two chain

##################### Simulation setup ####################

units micro                              # units
dimension	3                            # dimension
boundary	p p p                        # boundary condition p: periodic
atom_style	sphere                       # atom style
#processors * * 1

####################### Parameter ##################################

variable ind equal ${num}
variable ind equal 0

#variable lat0 equal 1                    #
variable lat1 equal 3+(v_ind*0.01)        # Lattice distance of bottom chain
variable lat2 equal 3                    # Lattice distance of top chain
variable d1 equal 3                      # Diamter of particle at bottom chain
variable d2 equal 3                      # Diamter of particle at top chain
#variable d3 equal 1                      # Diamter of supporting particle

variable n2e1 equal 250*v_lat2             # Half length of top chain. 1500 is number of particles
variable n1e1 equal 1.5*v_n2e1*(v_lat1/v_lat2)             # Half length of bottom chain, which is 1.5 time larger than top chain
variable n1e2 equal -v_n1e1
variable n2e2 equal -v_n2e1
#variable lenspr equal -(v_n2e1+100)           # length of the spring connecting top chain and supporting particle
#variable lenspr1 equal -v_lenspr-0.1         # Position of supporting particle upper bound
#variable lenspr2 equal -v_lenspr+0.1         # Position of supporting particle lower bound

variable den equal 2.2 #grams/cm^3      # micrometer^3=10^-12 cm^3 Density of materials

variable V1 equal (1/6)*PI*(v_d1^3)     # Volume of particle 1
variable V2 equal (1/6)*PI*(v_d2^3)     # Volume of particle 2
#variable V3 equal (1/6)*PI*(v_d3^3)     # Volume of particle 3

variable mass1 equal v_den*v_V1  # Mass of particle 1 (picograms)
variable mass2 equal v_den*v_V2  # Mass of particle 2
#variable mass3 equal v_den*v_V3  # Mass of particle 3

# E GPa to picogram/(micrometer-microsecond^2)= 10^3 Pa= 10^-6 GPa
# Force unit(picogram-micrometer/microsecond^2)=10^-9 N= 1nN
# Spring stiffness (force/distance) 10^-3 N/m

variable K0 equal (1500/50)*(10^5)             # Spring stiffness conneting top chain and sup particle
variable E equal 100*(10^6)                    # Young's Modulus using for Hertz/material model
variable PR equal 0.3                          # Poisson's ratio using for Hertz/material model
variable Fn equal -1000                        # Force apply to each particles in top chain
variable dt equal 0.00001                      # Time step units microsecond
variable lgv equal 0.5                         #damping for langevin thermostat for slider


################### Creating the model #################################
lattice sc ${lat1}                                                               # Bottom chain type1
lattice sc 3                                                               
Lattice spacing in x,y,z = 3 3 3

region box block ${n1e2} ${n1e1} -100 100 -100 100 units box
region box block -1125 ${n1e1} -100 100 -100 100 units box
region box block -1125 1125 -100 100 -100 100 units box
region substrate block ${n1e2} ${n1e1} -0.5 0.5 0 0.5 units box
region substrate block -1125 ${n1e1} -0.5 0.5 0 0.5 units box
region substrate block -1125 1125 -0.5 0.5 0 0.5 units box

create_box 2 box
Created orthogonal box = (-1125 -100 -100) to (1125 100 100)
  2 by 1 by 1 MPI processor grid
create_atoms 1 region substrate
Created 750 atoms
  using lattice units in orthogonal box = (-1125 -100 -100) to (1125 100 100)
  create_atoms CPU = 0.001 seconds

lattice sc ${lat2}                                                             # Top chain type2
lattice sc 3                                                             
Lattice spacing in x,y,z = 3 3 3

region slider1 block ${n2e2} ${n2e1} -0.1 0.1 5.9 6.1 units box
region slider1 block -750 ${n2e1} -0.1 0.1 5.9 6.1 units box
region slider1 block -750 750 -0.1 0.1 5.9 6.1 units box

create_atoms 2 region slider1
Created 501 atoms
  using lattice units in orthogonal box = (-1125 -100 -100) to (1125 100 100)
  create_atoms CPU = 0.000 seconds

#lattice sc ${lat0}                                                             # Supporting particle type3

#region support block ${lenspr1} ${lenspr2} -0.1 0.1 7.9 8.1 units box

#create_atoms 3 region support

set type 1 diameter ${d1}                    # Set mass and diameter for each particles type
set type 1 diameter 3                    
Setting atom values ...
  750 settings made for diameter
set type 1 mass ${mass1}
set type 1 mass 31.101767270539
Setting atom values ...
  750 settings made for mass
set type 2 diameter ${d2}
set type 2 diameter 3
Setting atom values ...
  501 settings made for diameter
set type 2 mass ${mass2}
set type 2 mass 31.101767270539
Setting atom values ...
  501 settings made for mass
#set type 3 diameter ${d3}
#set type 3 mass ${mass3}

group substrate region substrate           # Define gorup
750 atoms in group substrate
group slider1 region slider1
501 atoms in group slider1
#group support region support
#group substrate_slider union substrate slider1

########################## Potential ###################################
pair_style granular
pair_coeff 1 1 hertz/material 0.00000001 0.001 ${PR} tangential mindlin NULL 0.1 0.01 damping viscoelastic              ########### set E between each particle in same type is small to neglect their interaction
pair_coeff 1 1 hertz/material 0.00000001 0.001 0.3 tangential mindlin NULL 0.1 0.01 damping viscoelastic              
pair_coeff 2 2 hertz/material 0.00000001 0.001 ${PR} tangential mindlin NULL 0.1 0.01 damping viscoelastic
pair_coeff 2 2 hertz/material 0.00000001 0.001 0.3 tangential mindlin NULL 0.1 0.01 damping viscoelastic
#pair_coeff 3 3 hertz/material ${E} 0.001 ${PR} tangential mindlin NULL 0.1 0.01 damping viscoelastic
pair_coeff 1 2 hertz/material ${E} 0.001 ${PR} tangential mindlin NULL 0.1 0.01 damping viscoelastic
pair_coeff 1 2 hertz/material 100000000 0.001 ${PR} tangential mindlin NULL 0.1 0.01 damping viscoelastic
pair_coeff 1 2 hertz/material 100000000 0.001 0.3 tangential mindlin NULL 0.1 0.01 damping viscoelastic
#pair_coeff 1 3 hertz/material 0.00000001 0.001 ${PR} tangential mindlin NULL 0.1 0.01 damping viscoelastic
#pair_coeff 2 3 hertz/material 0.00000001 0.001 ${PR} tangential mindlin NULL 0.1 0.01 damping viscoelastic
comm_modify     vel yes
neigh_modify    delay 0 every 1 check yes

### Compute properties ###

compute 1 slider1 com                      # Compute the center of mass of top chain
#compute 2 support com                      # Compute the center of mass of supporting particle

variable p0 equal "step"

variable slider_z equal "c_1[3]"          # output the position of top chain in z-direction

#variable distance equal "c_2[1]-c_1[1]"   # Distance between COM of top chain and supporting particle

thermo 100000
thermo_style custom step lx ly lz press pxx pyy pzz ke pe temp c_1[1] c_1[2] c_1[3] #c_2[1] c_2[2] c_2[3] v_distance

############### Fix ##################


############## Equilibrium the system with apply force ########################

fix force_slider1 slider1 setforce NULL 0 NULL                                # Fix top chain not to move in y-direction

fix f_sub substrate freeze                                                    # Freeze the bottom chain

fix rigid_top slider1 rigid/nve group 1 slider1 langevin 0 0 ${lgv} 6987532   # NVE+langevin
fix rigid_top slider1 rigid/nve group 1 slider1 langevin 0 0 0.5 6987532   
  1 rigid bodies with 501 atoms

fix add slider1 addforce 0 0 ${Fn} every 1                                    # Add force to top layer
fix add slider1 addforce 0 0 -1000 every 1                                    

timestep ${dt}
timestep 1e-05

# fix  nve_1 slider1 nve

dump 		D1 all custom 100000 Equi_${num}_*.dump id type diameter mass xu yu zu fx fy fz
dump 		D1 all custom 100000 Equi_0_*.dump id type diameter mass xu yu zu fx fy fz

run 3000000
Generated 0 of 1 mixed pair_coeff terms from geometric mixing rule
Neighbor list info ...
  update every 1 steps, delay 0 steps, check yes
  max neighbors/atom: 2000, page size: 100000
  master list distance cutoff = 3.1
  ghost atom cutoff = 3.1
  binsize = 1.55, bins = 1452 130 130
  1 neighbor lists, perpetual/occasional/extra = 1 0 0
  (1) pair granular, perpetual
      attributes: half, newton on, size, history
      pair build: half/size/bin/newton
      stencil: half/bin/3d
      bin: standard
Per MPI rank memory allocation (min/avg/max) = 63.67 | 63.67 | 63.67 Mbytes
   Step           Lx             Ly             Lz           Press           Pxx            Pyy            Pzz           KinEng         PotEng          Temp          c_1[1]         c_1[2]         c_1[3]    
         0   2250           200            200            0              0              0              0              0              0              0              0              0              6            
    100000   2250           200            200            0.0046233954   2.2438778e-36  0              0.013870186    302473.68      0              5.8421485e+10  0              0              3.3133694    
    200000   2250           200            200            0.0018334286  -4.4877253e-36  0              0.0055002858   87934.309      0              1.6984132e+10  0              0              3.0485929    
    300000   2250           200            200            0.00052352332  1.4024199e-37  0              0.00157057     12013.958      0              2.3204442e+09  0              0              3.0324106    
    400000   2250           200            200            0.006840467   -2.243863e-36   0              0.020521401    6656.0885      0              1.2855948e+09  0              0              2.999305     
    500000   2250           200            200           -8.3367477e-05  2.0442773e-43  0             -0.00025010243  490.02863      0              94646914       0              0              3.0014947    
    600000   2250           200            200            0.011735713    2.8048404e-37  0              0.035207139    141.30762      0              27292958       0              0              2.9989635    
    700000   2250           200            200            0.0083772146  -3.6462903e-36  0              0.025131644    9.9677248      0              1925223        0              0              2.9991735    
    800000   2250           200            200            0.0066957238  -1.4024191e-37  0              0.020087171    0.46134953     0              89107.672      0              0              2.9992887    
    900000   2250           200            200            0.0058806936  -7.0120951e-38  0              0.017642081    0.28432459     0              54916.068      0              0              2.9993477    
   1000000   2250           200            200            0.0056141931  -1.4024193e-37  0              0.016842579    0.074694866    0              14426.991      0              0              2.9993676    
   1100000   2250           200            200            0.0055540149   4.3825614e-39  0              0.016662045    0.010665516    0              2059.9984      0              0              2.9993722    
   1200000   2250           200            200            0.0055516508  -1.7530242e-38  0              0.016654952    0.0008403168   0              162.30356      0              0              2.9993724    
   1300000   2250           200            200            0.0055582452   3.9926634e-48  0              0.016674736    2.081864e-05   0              4.0210305      0              0              2.9993719    
   1400000   2250           200            200            0.0055627518   5.8433421e-51  0              0.016688255    9.7457429e-07  0              0.18823482     0              0              2.9993716    
   1500000   2250           200            200            0.0055647282  -3.5060485e-38  0              0.016694184    1.5303882e-06  0              0.29558787     0              0              2.9993714    
   1600000   2250           200            200            0.0055653784   3.5060485e-38  0              0.016696135    4.2577481e-07  0              0.082236567    0              0              2.9993714    
   1700000   2250           200            200            0.0055655263  -1.7530242e-38  0              0.016696579    6.1638664e-08  0              0.011905242    0              0              2.9993714    
   1800000   2250           200            200            0.0055655331  -1.7530242e-38  0              0.016696599    4.9172312e-09  0              0.00094974199  0              0              2.9993714    
   1900000   2250           200            200            0.0055655175   5.845462e-53   0              0.016696553    1.2638734e-10  0              2.441117e-05   0              0              2.9993714    
   2000000   2250           200            200            0.0055655068   9.840938e-54   0              0.01669652     5.0960544e-12  0              9.8428092e-07  0              0              2.9993714    
   2100000   2250           200            200            0.0055655021   1.4649933e-54  0              0.016696506    8.62116e-12    0              1.6651399e-06  0              0              2.9993714    
   2200000   2250           200            200            0.0055655005  -1.7530242e-38  0              0.016696501    2.4350745e-12  0              4.7032413e-07  0              0              2.9993714    
   2300000   2250           200            200            0.0055655001   3.91906e-55    0              0.0166965      3.5575659e-13  0              6.8712851e-08  0              0              2.9993714    
   2400000   2250           200            200            0.0055655001  -1.7530242e-38  0              0.0166965      2.900343e-14   0              5.6018873e-09  0              0              2.9993714    
   2500000   2250           200            200            0.0055655002   2.1962454e-54  0              0.0166965      7.6361689e-16  0              1.4748931e-10  0              0              2.9993714    
   2600000   2250           200            200            0.0055655002   1.0518145e-37  0              0.016696501    3.38624e-17    0              6.5403764e-12  0              0              2.9993714    
   2700000   2250           200            200            0.0055655002   2.1532661e-54  0              0.016696501    6.7590277e-17  0              1.305477e-11   0              0              2.9993714    
   2800000   2250           200            200            0.0055655002   1.7530242e-38  0              0.016696501    1.5678936e-18  0              3.0283188e-13  0              0              2.9993714    
   2900000   2250           200            200            0.0055655002  -3.5060485e-38  0              0.016696501    5.2634428e-19  0              1.0166113e-13  0              0              2.9993714    
   3000000   2250           200            200            0.0055655002  -8.7651212e-38  0              0.016696501    1.7770927e-18  0              3.4323779e-13  0              0              2.9993714    
Loop time of 256.756 on 2 procs for 3000000 steps with 1251 atoms

Performance: 10095188.330 ns/day, 0.000 hours/ns, 11684.246 timesteps/s
99.9% CPU use with 2 MPI tasks x 1 OpenMP threads

MPI task timing breakdown:
Section |  min time  |  avg time  |  max time  |%varavg| %total
---------------------------------------------------------------
Pair    | 111.69     | 112.4      | 113.11     |   6.7 | 43.78
Neigh   | 3.0082     | 3.0089     | 3.0095     |   0.0 |  1.17
Comm    | 15.146     | 15.866     | 16.586     |  18.1 |  6.18
Output  | 0.23712    | 0.23719    | 0.23725    |   0.0 |  0.09
Modify  | 111.95     | 111.96     | 111.98     |   0.2 | 43.61
Other   |            | 13.28      |            |       |  5.17

Nlocal:          625.5 ave         626 max         625 min
Histogram: 1 0 0 0 0 0 0 0 0 1
Nghost:            4.5 ave           5 max           4 min
Histogram: 1 0 0 0 0 0 0 0 0 1
Neighs:          875.5 ave         876 max         875 min
Histogram: 1 0 0 0 0 0 0 0 0 1

Total # of neighbors = 1751
Ave neighs/atom = 1.3996803
Neighbor list builds = 174
Dangerous builds = 0

undump D1

############ Add spring between top chain to supp particle and then equilibrium  ###########

#fix sp1 support spring couple slider1 ${K0} ${lenspr} NULL NULL 0                                 # Add spring

#dump 		D2 all custom 100000 add_${num}*.dump id type diameter mass xu yu zu

#fix add1 all print 10 "${p0} ${distance} ${slider_z}" file add_distance_${num}.txt screen no      # out put step, distance(spring length), z-position of top chain

#run 1000000

#undump D2

#unfix add1

########## Pulling the supporting particle with constant velocity #############

#fix m1 support move linear 0.1 0 0 units box                                                      # apply constant velocity to supporting particles along x-direction V=0.1m/s

#fix move1 all print 100 "${p0} ${distance} ${slider_z}" file move_distance_${num}.txt screen no

#dump 		1 all custom 50000 move_${num}_*.dump id type diameter mass xu yu zu

#run 1000000

clear
  using 1 OpenMP thread(s) per MPI task

next num

jump SELF startloop

include granular.in
### Simulation of contact between two chain

##################### Simulation setup ####################

units micro                              # units
dimension	3                            # dimension
boundary	p p p                        # boundary condition p: periodic
atom_style	sphere                       # atom style
#processors * * 1

####################### Parameter ##################################

variable ind equal ${num}
variable ind equal 1

#variable lat0 equal 1                    #
variable lat1 equal 3+(v_ind*0.01)        # Lattice distance of bottom chain
variable lat2 equal 3                    # Lattice distance of top chain
variable d1 equal 3                      # Diamter of particle at bottom chain
variable d2 equal 3                      # Diamter of particle at top chain
#variable d3 equal 1                      # Diamter of supporting particle

variable n2e1 equal 250*v_lat2             # Half length of top chain. 1500 is number of particles
variable n1e1 equal 1.5*v_n2e1*(v_lat1/v_lat2)             # Half length of bottom chain, which is 1.5 time larger than top chain
variable n1e2 equal -v_n1e1
variable n2e2 equal -v_n2e1
#variable lenspr equal -(v_n2e1+100)           # length of the spring connecting top chain and supporting particle
#variable lenspr1 equal -v_lenspr-0.1         # Position of supporting particle upper bound
#variable lenspr2 equal -v_lenspr+0.1         # Position of supporting particle lower bound

variable den equal 2.2 #grams/cm^3      # micrometer^3=10^-12 cm^3 Density of materials

variable V1 equal (1/6)*PI*(v_d1^3)     # Volume of particle 1
variable V2 equal (1/6)*PI*(v_d2^3)     # Volume of particle 2
#variable V3 equal (1/6)*PI*(v_d3^3)     # Volume of particle 3

variable mass1 equal v_den*v_V1  # Mass of particle 1 (picograms)
variable mass2 equal v_den*v_V2  # Mass of particle 2
#variable mass3 equal v_den*v_V3  # Mass of particle 3

# E GPa to picogram/(micrometer-microsecond^2)= 10^3 Pa= 10^-6 GPa
# Force unit(picogram-micrometer/microsecond^2)=10^-9 N= 1nN
# Spring stiffness (force/distance) 10^-3 N/m

variable K0 equal (1500/50)*(10^5)             # Spring stiffness conneting top chain and sup particle
variable E equal 100*(10^6)                    # Young's Modulus using for Hertz/material model
variable PR equal 0.3                          # Poisson's ratio using for Hertz/material model
variable Fn equal -1000                        # Force apply to each particles in top chain
variable dt equal 0.00001                      # Time step units microsecond
variable lgv equal 0.5                         #damping for langevin thermostat for slider


################### Creating the model #################################
lattice sc ${lat1}                                                               # Bottom chain type1
lattice sc 3.01                                                               
Lattice spacing in x,y,z = 3.01 3.01 3.01

region box block ${n1e2} ${n1e1} -100 100 -100 100 units box
region box block -1128.75 ${n1e1} -100 100 -100 100 units box
region box block -1128.75 1128.75 -100 100 -100 100 units box
region substrate block ${n1e2} ${n1e1} -0.5 0.5 0 0.5 units box
region substrate block -1128.75 ${n1e1} -0.5 0.5 0 0.5 units box
region substrate block -1128.75 1128.75 -0.5 0.5 0 0.5 units box

create_box 2 box
Created orthogonal box = (-1128.75 -100 -100) to (1128.75 100 100)
  2 by 1 by 1 MPI processor grid
create_atoms 1 region substrate
Created 750 atoms
  using lattice units in orthogonal box = (-1128.75 -100 -100) to (1128.75 100 100)
  create_atoms CPU = 0.001 seconds

lattice sc ${lat2}                                                             # Top chain type2
lattice sc 3                                                             
Lattice spacing in x,y,z = 3 3 3

region slider1 block ${n2e2} ${n2e1} -0.1 0.1 5.9 6.1 units box
region slider1 block -750 ${n2e1} -0.1 0.1 5.9 6.1 units box
region slider1 block -750 750 -0.1 0.1 5.9 6.1 units box

create_atoms 2 region slider1
Created 501 atoms
  using lattice units in orthogonal box = (-1128.75 -100 -100) to (1128.75 100 100)
  create_atoms CPU = 0.000 seconds

#lattice sc ${lat0}                                                             # Supporting particle type3

#region support block ${lenspr1} ${lenspr2} -0.1 0.1 7.9 8.1 units box

#create_atoms 3 region support

set type 1 diameter ${d1}                    # Set mass and diameter for each particles type
set type 1 diameter 3                    
Setting atom values ...
  750 settings made for diameter
set type 1 mass ${mass1}
set type 1 mass 31.101767270539
Setting atom values ...
  750 settings made for mass
set type 2 diameter ${d2}
set type 2 diameter 3
Setting atom values ...
  501 settings made for diameter
set type 2 mass ${mass2}
set type 2 mass 31.101767270539
Setting atom values ...
  501 settings made for mass
#set type 3 diameter ${d3}
#set type 3 mass ${mass3}

group substrate region substrate           # Define gorup
750 atoms in group substrate
group slider1 region slider1
501 atoms in group slider1
#group support region support
#group substrate_slider union substrate slider1

########################## Potential ###################################
pair_style granular
pair_coeff 1 1 hertz/material 0.00000001 0.001 ${PR} tangential mindlin NULL 0.1 0.01 damping viscoelastic              ########### set E between each particle in same type is small to neglect their interaction
pair_coeff 1 1 hertz/material 0.00000001 0.001 0.3 tangential mindlin NULL 0.1 0.01 damping viscoelastic              
pair_coeff 2 2 hertz/material 0.00000001 0.001 ${PR} tangential mindlin NULL 0.1 0.01 damping viscoelastic
pair_coeff 2 2 hertz/material 0.00000001 0.001 0.3 tangential mindlin NULL 0.1 0.01 damping viscoelastic
#pair_coeff 3 3 hertz/material ${E} 0.001 ${PR} tangential mindlin NULL 0.1 0.01 damping viscoelastic
pair_coeff 1 2 hertz/material ${E} 0.001 ${PR} tangential mindlin NULL 0.1 0.01 damping viscoelastic
pair_coeff 1 2 hertz/material 100000000 0.001 ${PR} tangential mindlin NULL 0.1 0.01 damping viscoelastic
pair_coeff 1 2 hertz/material 100000000 0.001 0.3 tangential mindlin NULL 0.1 0.01 damping viscoelastic
#pair_coeff 1 3 hertz/material 0.00000001 0.001 ${PR} tangential mindlin NULL 0.1 0.01 damping viscoelastic
#pair_coeff 2 3 hertz/material 0.00000001 0.001 ${PR} tangential mindlin NULL 0.1 0.01 damping viscoelastic
comm_modify     vel yes
neigh_modify    delay 0 every 1 check yes

### Compute properties ###

compute 1 slider1 com                      # Compute the center of mass of top chain
#compute 2 support com                      # Compute the center of mass of supporting particle

variable p0 equal "step"

variable slider_z equal "c_1[3]"          # output the position of top chain in z-direction

#variable distance equal "c_2[1]-c_1[1]"   # Distance between COM of top chain and supporting particle

thermo 100000
thermo_style custom step lx ly lz press pxx pyy pzz ke pe temp c_1[1] c_1[2] c_1[3] #c_2[1] c_2[2] c_2[3] v_distance

############### Fix ##################


############## Equilibrium the system with apply force ########################

fix force_slider1 slider1 setforce NULL 0 NULL                                # Fix top chain not to move in y-direction

fix f_sub substrate freeze                                                    # Freeze the bottom chain

fix rigid_top slider1 rigid/nve group 1 slider1 langevin 0 0 ${lgv} 6987532   # NVE+langevin
fix rigid_top slider1 rigid/nve group 1 slider1 langevin 0 0 0.5 6987532   
  1 rigid bodies with 501 atoms

fix add slider1 addforce 0 0 ${Fn} every 1                                    # Add force to top layer
fix add slider1 addforce 0 0 -1000 every 1                                    

timestep ${dt}
timestep 1e-05

# fix  nve_1 slider1 nve

dump 		D1 all custom 100000 Equi_${num}_*.dump id type diameter mass xu yu zu fx fy fz
dump 		D1 all custom 100000 Equi_1_*.dump id type diameter mass xu yu zu fx fy fz

run 3000000
Generated 0 of 1 mixed pair_coeff terms from geometric mixing rule
Neighbor list info ...
  update every 1 steps, delay 0 steps, check yes
  max neighbors/atom: 2000, page size: 100000
  master list distance cutoff = 3.1
  ghost atom cutoff = 3.1
  binsize = 1.55, bins = 1457 130 130
  1 neighbor lists, perpetual/occasional/extra = 1 0 0
  (1) pair granular, perpetual
      attributes: half, newton on, size, history
      pair build: half/size/bin/newton
      stencil: half/bin/3d
      bin: standard
Per MPI rank memory allocation (min/avg/max) = 63.88 | 63.88 | 63.88 Mbytes
   Step           Lx             Ly             Lz           Press           Pxx            Pyy            Pzz           KinEng         PotEng          Temp          c_1[1]         c_1[2]         c_1[3]    
         0   2257.5         200            200            0              0              0              0              0              0              0              0              0              6            
    100000   2257.5         200            200            0.0044897615   1.073511e-34   0              0.013469285    291052.29      0              5.6215494e+10  0              0              3.3294708    
    200000   2257.5         200            200            0.0015509482   8.9457294e-36  0              0.0046528445   68158.126      0              1.3164448e+10  0              0              3.079556     
    300000   2257.5         200            200            4.1684339e-05 -2.2364111e-36  0              0.00012505302  106.76056      0              20620342       0              0              3.0451965    
    400000   2257.5         200            200            0.00012576246 -7.8274543e-36  0              0.00037728739  924.18965      0              1.7850324e+08  0              0              3.0046531    
    500000   2257.5         200            200            0.012253964    0.0064718816   0              0.030290011    391.40305      0              75597809       0              0              2.9929049    
    600000   2257.5         200            200            0.0040793048   0.0017130151   0              0.010524899    0.1517809      0              29315.825      0              0              2.9958367    
    700000   2257.5         200            200            0.0070276851   0.0026992588   0              0.018383797    6.3744185      0              1231191.4      0              0              2.9944903    
    800000   2257.5         200            200            0.0063862572   0.0025396497   0              0.016619122    1.8417969      0              355735.12      0              0              2.9947688    
    900000   2257.5         200            200            0.0063017052   0.0025357569   0              0.016369359    0.1059621      0              20466.121      0              0              2.9948052    
   1000000   2257.5         200            200            0.0064276154   0.0025499038   0              0.016732943    0.00072247786  0              139.54348      0              0              2.9947483    
   1100000   2257.5         200            200            0.006379005    0.0025444843   0              0.016592531    0.0032447485   0              626.70917      0              0              2.9947706    
   1200000   2257.5         200            200            0.0063852807   0.0025452247   0              0.016610617    0.00055957945  0              108.08036      0              0              2.9947676    
   1300000   2257.5         200            200            0.0063888414   0.0025456107   0              0.016620913    1.3183331e-05  0              2.5463035      0              0              2.994766     
   1400000   2257.5         200            200            0.0063862892   0.0025453263   0              0.016613541    2.1239265e-06  0              0.41022723     0              0              2.9947672    
   1500000   2257.5         200            200            0.0063870303   0.0025454104   0              0.016615681    1.4122017e-06  0              0.27276066     0              0              2.9947668    
   1600000   2257.5         200            200            0.0063870202   0.0025454086   0              0.016615652    1.3849277e-07  0              0.026749281    0              0              2.9947668    
   1700000   2257.5         200            200            0.006386925    0.0025453981   0              0.016615377    3.1170015e-10  0              6.0203538e-05  0              0              2.9947669    
   1800000   2257.5         200            200            0.0063869719   0.0025454034   0              0.016615512    1.7490552e-09  0              0.00033782246  0              0              2.9947668    
   1900000   2257.5         200            200            0.0063869623   0.0025454023   0              0.016615485    5.0226794e-10  0              9.7010885e-05  0              0              2.9947669    
   2000000   2257.5         200            200            0.0063869606   0.0025454021   0              0.01661548     2.5823544e-11  0              4.9877061e-06  0              0              2.9947669    
   2100000   2257.5         200            200            0.0063869627   0.0025454023   0              0.016615486    3.5294655e-13  0              6.8170104e-08  0              0              2.9947669    
   2200000   2257.5         200            200            0.0063869619   0.0025454022   0              0.016615484    9.4352562e-13  0              1.822379e-07   0              0              2.9947669    
   2300000   2257.5         200            200            0.006386962    0.0025454023   0              0.016615484    1.4801302e-13  0              2.8588076e-08  0              0              2.9947669    
   2400000   2257.5         200            200            0.0063869621   0.0025454023   0              0.016615484    2.7958235e-15  0              5.4000124e-10  0              0              2.9947669    
   2500000   2257.5         200            200            0.006386962    0.0025454023   0              0.016615484    7.4970051e-16  0              1.4480142e-10  0              0              2.9947669    
   2600000   2257.5         200            200            0.006386962    0.0025454023   0              0.016615484    3.8766437e-16  0              7.4875701e-11  0              0              2.9947669    
   2700000   2257.5         200            200            0.006386962    0.0025454023   0              0.016615484    3.5797215e-17  0              6.9140777e-12  0              0              2.9947669    
   2800000   2257.5         200            200            0.006386962    0.0025454023   0              0.016615484    1.8954008e-20  0              3.6608848e-15  0              0              2.9947669    
   2900000   2257.5         200            200            0.006386962    0.0025454023   0              0.016615484    5.1737272e-21  0              9.9928309e-16  0              0              2.9947669    
   3000000   2257.5         200            200            0.006386962    0.0025454023   0              0.016615484    1.1429386e-19  0              2.2075366e-14  0              0              2.9947669    
Loop time of 202.265 on 2 procs for 3000000 steps with 1251 atoms

Performance: 12814900.977 ns/day, 0.000 hours/ns, 14832.061 timesteps/s
99.9% CPU use with 2 MPI tasks x 1 OpenMP threads

MPI task timing breakdown:
Section |  min time  |  avg time  |  max time  |%varavg| %total
---------------------------------------------------------------
Pair    | 59.432     | 60.242     | 61.052     |  10.4 | 29.78
Neigh   | 2.8454     | 2.8454     | 2.8454     |   0.0 |  1.41
Comm    | 14.974     | 15.762     | 16.55      |  19.8 |  7.79
Output  | 0.21843    | 0.21848    | 0.21853    |   0.0 |  0.11
Modify  | 109.5      | 109.74     | 109.99     |   2.3 | 54.26
Other   |            | 13.45      |            |       |  6.65

Nlocal:          625.5 ave         626 max         625 min
Histogram: 1 0 0 0 0 0 0 0 0 1
Nghost:            4.5 ave           5 max           4 min
Histogram: 1 0 0 0 0 0 0 0 0 1
Neighs:          731.5 ave         732 max         731 min
Histogram: 1 0 0 0 0 0 0 0 0 1

Total # of neighbors = 1463
Ave neighs/atom = 1.1694644
Neighbor list builds = 164
Dangerous builds = 0

undump D1

############ Add spring between top chain to supp particle and then equilibrium  ###########

#fix sp1 support spring couple slider1 ${K0} ${lenspr} NULL NULL 0                                 # Add spring

#dump 		D2 all custom 100000 add_${num}*.dump id type diameter mass xu yu zu

#fix add1 all print 10 "${p0} ${distance} ${slider_z}" file add_distance_${num}.txt screen no      # out put step, distance(spring length), z-position of top chain

#run 1000000

#undump D2

#unfix add1

########## Pulling the supporting particle with constant velocity #############

#fix m1 support move linear 0.1 0 0 units box                                                      # apply constant velocity to supporting particles along x-direction V=0.1m/s

#fix move1 all print 100 "${p0} ${distance} ${slider_z}" file move_distance_${num}.txt screen no

#dump 		1 all custom 50000 move_${num}_*.dump id type diameter mass xu yu zu

#run 1000000

clear
  using 1 OpenMP thread(s) per MPI task

next num

jump SELF startloop

include granular.in
### Simulation of contact between two chain

##################### Simulation setup ####################

units micro                              # units
dimension	3                            # dimension
boundary	p p p                        # boundary condition p: periodic
atom_style	sphere                       # atom style
#processors * * 1

####################### Parameter ##################################

variable ind equal ${num}
variable ind equal 2

#variable lat0 equal 1                    #
variable lat1 equal 3+(v_ind*0.01)        # Lattice distance of bottom chain
variable lat2 equal 3                    # Lattice distance of top chain
variable d1 equal 3                      # Diamter of particle at bottom chain
variable d2 equal 3                      # Diamter of particle at top chain
#variable d3 equal 1                      # Diamter of supporting particle

variable n2e1 equal 250*v_lat2             # Half length of top chain. 1500 is number of particles
variable n1e1 equal 1.5*v_n2e1*(v_lat1/v_lat2)             # Half length of bottom chain, which is 1.5 time larger than top chain
variable n1e2 equal -v_n1e1
variable n2e2 equal -v_n2e1
#variable lenspr equal -(v_n2e1+100)           # length of the spring connecting top chain and supporting particle
#variable lenspr1 equal -v_lenspr-0.1         # Position of supporting particle upper bound
#variable lenspr2 equal -v_lenspr+0.1         # Position of supporting particle lower bound

variable den equal 2.2 #grams/cm^3      # micrometer^3=10^-12 cm^3 Density of materials

variable V1 equal (1/6)*PI*(v_d1^3)     # Volume of particle 1
variable V2 equal (1/6)*PI*(v_d2^3)     # Volume of particle 2
#variable V3 equal (1/6)*PI*(v_d3^3)     # Volume of particle 3

variable mass1 equal v_den*v_V1  # Mass of particle 1 (picograms)
variable mass2 equal v_den*v_V2  # Mass of particle 2
#variable mass3 equal v_den*v_V3  # Mass of particle 3

# E GPa to picogram/(micrometer-microsecond^2)= 10^3 Pa= 10^-6 GPa
# Force unit(picogram-micrometer/microsecond^2)=10^-9 N= 1nN
# Spring stiffness (force/distance) 10^-3 N/m

variable K0 equal (1500/50)*(10^5)             # Spring stiffness conneting top chain and sup particle
variable E equal 100*(10^6)                    # Young's Modulus using for Hertz/material model
variable PR equal 0.3                          # Poisson's ratio using for Hertz/material model
variable Fn equal -1000                        # Force apply to each particles in top chain
variable dt equal 0.00001                      # Time step units microsecond
variable lgv equal 0.5                         #damping for langevin thermostat for slider


################### Creating the model #################################
lattice sc ${lat1}                                                               # Bottom chain type1
lattice sc 3.02                                                               
Lattice spacing in x,y,z = 3.02 3.02 3.02

region box block ${n1e2} ${n1e1} -100 100 -100 100 units box
region box block -1132.5 ${n1e1} -100 100 -100 100 units box
region box block -1132.5 1132.5 -100 100 -100 100 units box
region substrate block ${n1e2} ${n1e1} -0.5 0.5 0 0.5 units box
region substrate block -1132.5 ${n1e1} -0.5 0.5 0 0.5 units box
region substrate block -1132.5 1132.5 -0.5 0.5 0 0.5 units box

create_box 2 box
Created orthogonal box = (-1132.5 -100 -100) to (1132.5 100 100)
  2 by 1 by 1 MPI processor grid
create_atoms 1 region substrate
Created 750 atoms
  using lattice units in orthogonal box = (-1132.5 -100 -100) to (1132.5 100 100)
  create_atoms CPU = 0.001 seconds

lattice sc ${lat2}                                                             # Top chain type2
lattice sc 3                                                             
Lattice spacing in x,y,z = 3 3 3

region slider1 block ${n2e2} ${n2e1} -0.1 0.1 5.9 6.1 units box
region slider1 block -750 ${n2e1} -0.1 0.1 5.9 6.1 units box
region slider1 block -750 750 -0.1 0.1 5.9 6.1 units box

create_atoms 2 region slider1
Created 501 atoms
  using lattice units in orthogonal box = (-1132.5 -100 -100) to (1132.5 100 100)
  create_atoms CPU = 0.000 seconds

#lattice sc ${lat0}                                                             # Supporting particle type3

#region support block ${lenspr1} ${lenspr2} -0.1 0.1 7.9 8.1 units box

#create_atoms 3 region support

set type 1 diameter ${d1}                    # Set mass and diameter for each particles type
set type 1 diameter 3                    
Setting atom values ...
  750 settings made for diameter
set type 1 mass ${mass1}
set type 1 mass 31.101767270539
Setting atom values ...
  750 settings made for mass
set type 2 diameter ${d2}
set type 2 diameter 3
Setting atom values ...
  501 settings made for diameter
set type 2 mass ${mass2}
set type 2 mass 31.101767270539
Setting atom values ...
  501 settings made for mass
#set type 3 diameter ${d3}
#set type 3 mass ${mass3}

group substrate region substrate           # Define gorup
750 atoms in group substrate
group slider1 region slider1
501 atoms in group slider1
#group support region support
#group substrate_slider union substrate slider1

########################## Potential ###################################
pair_style granular
pair_coeff 1 1 hertz/material 0.00000001 0.001 ${PR} tangential mindlin NULL 0.1 0.01 damping viscoelastic              ########### set E between each particle in same type is small to neglect their interaction
pair_coeff 1 1 hertz/material 0.00000001 0.001 0.3 tangential mindlin NULL 0.1 0.01 damping viscoelastic              
pair_coeff 2 2 hertz/material 0.00000001 0.001 ${PR} tangential mindlin NULL 0.1 0.01 damping viscoelastic
pair_coeff 2 2 hertz/material 0.00000001 0.001 0.3 tangential mindlin NULL 0.1 0.01 damping viscoelastic
#pair_coeff 3 3 hertz/material ${E} 0.001 ${PR} tangential mindlin NULL 0.1 0.01 damping viscoelastic
pair_coeff 1 2 hertz/material ${E} 0.001 ${PR} tangential mindlin NULL 0.1 0.01 damping viscoelastic
pair_coeff 1 2 hertz/material 100000000 0.001 ${PR} tangential mindlin NULL 0.1 0.01 damping viscoelastic
pair_coeff 1 2 hertz/material 100000000 0.001 0.3 tangential mindlin NULL 0.1 0.01 damping viscoelastic
#pair_coeff 1 3 hertz/material 0.00000001 0.001 ${PR} tangential mindlin NULL 0.1 0.01 damping viscoelastic
#pair_coeff 2 3 hertz/material 0.00000001 0.001 ${PR} tangential mindlin NULL 0.1 0.01 damping viscoelastic
comm_modify     vel yes
neigh_modify    delay 0 every 1 check yes

### Compute properties ###

compute 1 slider1 com                      # Compute the center of mass of top chain
#compute 2 support com                      # Compute the center of mass of supporting particle

variable p0 equal "step"

variable slider_z equal "c_1[3]"          # output the position of top chain in z-direction

#variable distance equal "c_2[1]-c_1[1]"   # Distance between COM of top chain and supporting particle

thermo 100000
thermo_style custom step lx ly lz press pxx pyy pzz ke pe temp c_1[1] c_1[2] c_1[3] #c_2[1] c_2[2] c_2[3] v_distance

############### Fix ##################


############## Equilibrium the system with apply force ########################

fix force_slider1 slider1 setforce NULL 0 NULL                                # Fix top chain not to move in y-direction

fix f_sub substrate freeze                                                    # Freeze the bottom chain

fix rigid_top slider1 rigid/nve group 1 slider1 langevin 0 0 ${lgv} 6987532   # NVE+langevin
fix rigid_top slider1 rigid/nve group 1 slider1 langevin 0 0 0.5 6987532   
  1 rigid bodies with 501 atoms

fix add slider1 addforce 0 0 ${Fn} every 1                                    # Add force to top layer
fix add slider1 addforce 0 0 -1000 every 1                                    

timestep ${dt}
timestep 1e-05

# fix  nve_1 slider1 nve

dump 		D1 all custom 100000 Equi_${num}_*.dump id type diameter mass xu yu zu fx fy fz
dump 		D1 all custom 100000 Equi_2_*.dump id type diameter mass xu yu zu fx fy fz

run 3000000
Generated 0 of 1 mixed pair_coeff terms from geometric mixing rule
Neighbor list info ...
  update every 1 steps, delay 0 steps, check yes
  max neighbors/atom: 2000, page size: 100000
  master list distance cutoff = 3.1
  ghost atom cutoff = 3.1
  binsize = 1.55, bins = 1462 130 130
  1 neighbor lists, perpetual/occasional/extra = 1 0 0
  (1) pair granular, perpetual
      attributes: half, newton on, size, history
      pair build: half/size/bin/newton
      stencil: half/bin/3d
      bin: standard
Per MPI rank memory allocation (min/avg/max) = 64.02 | 64.02 | 64.02 Mbytes
   Step           Lx             Ly             Lz           Press           Pxx            Pyy            Pzz           KinEng         PotEng          Temp          c_1[1]         c_1[2]         c_1[3]    
         0   2265           200            200            0              0              0              0              0              0              0              0              0              6            
    100000   2265           200            200            0.0045014694  -3.5664105e-35  0              0.013504408    293641.22      0              5.6715535e+10  0              0              3.3254496    
    200000   2265           200            200            0.00160842     8.9160578e-36  0              0.00482526     72526.616      0              1.4008203e+10  0              0              3.0724454    
    300000   2265           200            200            0.00013948428 -3.3435148e-36  0              0.00041845285  1104.3466      0              2.1329977e+08  0              0              3.0455053    
    400000   2265           200            200            0.013395578    0.0027025294   0              0.037484206    4598.0088      0              8.8808555e+08  0              0              2.9936481    
    500000   2265           200            200            0.0029104424   0.00055059675  0              0.0081807305   666.18         0              1.2866979e+08  0              0              2.9969471    
    600000   2265           200            200            0.0035204575   0.00064723249  0              0.0099141401   12.614732      0              2436481.1      0              0              2.9966864    
    700000   2265           200            200            0.0066873738   0.0010731833   0              0.018988938    4.3310188      0              836517.58      0              0              2.9954277    
    800000   2265           200            200            0.0056060861   0.00099274935  0              0.015825509    0.94781325     0              183066.04      0              0              2.9958223    
    900000   2265           200            200            0.0059070442   0.0010063918   0              0.016714741    0.23218619     0              44845.761      0              0              2.9957072    
   1000000   2265           200            200            0.0058612964   0.0010042393   0              0.01657965     0.03654884     0              7059.2507      0              0              2.9957237    
   1100000   2265           200            200            0.0058460148   0.0010034461   0              0.016534598    0.0030322403   0              585.66414      0              0              2.99573      
   1200000   2265           200            200            0.0058624219   0.0010042268   0              0.016583039    8.2595767e-05  0              15.953016      0              0              2.9957235    
   1300000   2265           200            200            0.0058543054   0.0010038495   0              0.016559067    2.5738116e-06  0              0.4971206      0              0              2.9957267    
   1400000   2265           200            200            0.0058572262   0.0010039783   0              0.0165677      5.0282684e-06  0              0.97118834     0              0              2.9957256    
   1500000   2265           200            200            0.0058564636   0.001003946    0              0.016565445    1.4627623e-06  0              0.28252622     0              0              2.9957258    
   1600000   2265           200            200            0.0058565544   0.0010039496   0              0.016565714    2.1769576e-07  0              0.042046996    0              0              2.9957258    
   1700000   2265           200            200            0.0058565996   0.0010039517   0              0.016565847    1.7816656e-08  0              0.0034412102   0              0              2.9957258    
   1800000   2265           200            200            0.0058565586   0.0010039499   0              0.016565726    4.796853e-10   0              9.2649146e-05  0              0              2.9957258    
   1900000   2265           200            200            0.0058565786   0.0010039507   0              0.016565785    1.6754142e-11  0              3.2359902e-06  0              0              2.9957258    
   2000000   2265           200            200            0.0058565714   0.0010039504   0              0.016565764    3.0932794e-11  0              5.9745356e-06  0              0              2.9957258    
   2100000   2265           200            200            0.0058565733   0.0010039505   0              0.016565769    8.911334e-12   0              1.7211857e-06  0              0              2.9957258    
   2200000   2265           200            200            0.005856573    0.0010039505   0              0.016565769    1.3174614e-12  0              2.5446198e-07  0              0              2.9957258    
   2300000   2265           200            200            0.0058565729   0.0010039505   0              0.016565768    1.0698656e-13  0              2.0663992e-08  0              0              2.9957258    
   2400000   2265           200            200            0.005856573    0.0010039505   0              0.016565769    2.8777788e-15  0              5.5583056e-10  0              0              2.9957258    
   2500000   2265           200            200            0.005856573    0.0010039505   0              0.016565768    1.0096061e-16  0              1.9500107e-11  0              0              2.9957258    
   2600000   2265           200            200            0.005856573    0.0010039505   0              0.016565769    2.0163174e-16  0              3.89443e-11    0              0              2.9957258    
   2700000   2265           200            200            0.005856573    0.0010039505   0              0.016565769    5.9595176e-17  0              1.1510551e-11  0              0              2.9957258    
   2800000   2265           200            200            0.005856573    0.0010039505   0              0.016565769    5.9200499e-18  0              1.1434321e-12  0              0              2.9957258    
   2900000   2265           200            200            0.005856573    0.0010039505   0              0.016565769    2.5488681e-18  0              4.9230287e-13  0              0              2.9957258    
   3000000   2265           200            200            0.005856573    0.0010039505   0              0.016565769    2.3980242e-18  0              4.6316802e-13  0              0              2.9957258    
Loop time of 200.927 on 2 procs for 3000000 steps with 1251 atoms

Performance: 12900239.031 ns/day, 0.000 hours/ns, 14930.832 timesteps/s
99.9% CPU use with 2 MPI tasks x 1 OpenMP threads

MPI task timing breakdown:
Section |  min time  |  avg time  |  max time  |%varavg| %total
---------------------------------------------------------------
Pair    | 60.076     | 60.373     | 60.67      |   3.8 | 30.05
Neigh   | 2.8522     | 2.8525     | 2.8529     |   0.0 |  1.42
Comm    | 14.642     | 14.94      | 15.238     |   7.7 |  7.44
Output  | 0.21207    | 0.21212    | 0.21217    |   0.0 |  0.11
Modify  | 108.7      | 108.9      | 109.1      |   1.9 | 54.20
Other   |            | 13.65      |            |       |  6.79

Nlocal:          625.5 ave         626 max         625 min
Histogram: 1 0 0 0 0 0 0 0 0 1
Nghost:            4.5 ave           5 max           4 min
Histogram: 1 0 0 0 0 0 0 0 0 1
Neighs:          743.5 ave         744 max         743 min
Histogram: 1 0 0 0 0 0 0 0 0 1

Total # of neighbors = 1487
Ave neighs/atom = 1.1886491
Neighbor list builds = 164
Dangerous builds = 0

undump D1

############ Add spring between top chain to supp particle and then equilibrium  ###########

#fix sp1 support spring couple slider1 ${K0} ${lenspr} NULL NULL 0                                 # Add spring

#dump 		D2 all custom 100000 add_${num}*.dump id type diameter mass xu yu zu

#fix add1 all print 10 "${p0} ${distance} ${slider_z}" file add_distance_${num}.txt screen no      # out put step, distance(spring length), z-position of top chain

#run 1000000

#undump D2

#unfix add1

########## Pulling the supporting particle with constant velocity #############

#fix m1 support move linear 0.1 0 0 units box                                                      # apply constant velocity to supporting particles along x-direction V=0.1m/s

#fix move1 all print 100 "${p0} ${distance} ${slider_z}" file move_distance_${num}.txt screen no

#dump 		1 all custom 50000 move_${num}_*.dump id type diameter mass xu yu zu

#run 1000000

clear
  using 1 OpenMP thread(s) per MPI task

next num

jump SELF startloop

include granular.in
### Simulation of contact between two chain

##################### Simulation setup ####################

units micro                              # units
dimension	3                            # dimension
boundary	p p p                        # boundary condition p: periodic
atom_style	sphere                       # atom style
#processors * * 1

####################### Parameter ##################################

variable ind equal ${num}
variable ind equal 3

#variable lat0 equal 1                    #
variable lat1 equal 3+(v_ind*0.01)        # Lattice distance of bottom chain
variable lat2 equal 3                    # Lattice distance of top chain
variable d1 equal 3                      # Diamter of particle at bottom chain
variable d2 equal 3                      # Diamter of particle at top chain
#variable d3 equal 1                      # Diamter of supporting particle

variable n2e1 equal 250*v_lat2             # Half length of top chain. 1500 is number of particles
variable n1e1 equal 1.5*v_n2e1*(v_lat1/v_lat2)             # Half length of bottom chain, which is 1.5 time larger than top chain
variable n1e2 equal -v_n1e1
variable n2e2 equal -v_n2e1
#variable lenspr equal -(v_n2e1+100)           # length of the spring connecting top chain and supporting particle
#variable lenspr1 equal -v_lenspr-0.1         # Position of supporting particle upper bound
#variable lenspr2 equal -v_lenspr+0.1         # Position of supporting particle lower bound

variable den equal 2.2 #grams/cm^3      # micrometer^3=10^-12 cm^3 Density of materials

variable V1 equal (1/6)*PI*(v_d1^3)     # Volume of particle 1
variable V2 equal (1/6)*PI*(v_d2^3)     # Volume of particle 2
#variable V3 equal (1/6)*PI*(v_d3^3)     # Volume of particle 3

variable mass1 equal v_den*v_V1  # Mass of particle 1 (picograms)
variable mass2 equal v_den*v_V2  # Mass of particle 2
#variable mass3 equal v_den*v_V3  # Mass of particle 3

# E GPa to picogram/(micrometer-microsecond^2)= 10^3 Pa= 10^-6 GPa
# Force unit(picogram-micrometer/microsecond^2)=10^-9 N= 1nN
# Spring stiffness (force/distance) 10^-3 N/m

variable K0 equal (1500/50)*(10^5)             # Spring stiffness conneting top chain and sup particle
variable E equal 100*(10^6)                    # Young's Modulus using for Hertz/material model
variable PR equal 0.3                          # Poisson's ratio using for Hertz/material model
variable Fn equal -1000                        # Force apply to each particles in top chain
variable dt equal 0.00001                      # Time step units microsecond
variable lgv equal 0.5                         #damping for langevin thermostat for slider


################### Creating the model #################################
lattice sc ${lat1}                                                               # Bottom chain type1
lattice sc 3.03                                                               
Lattice spacing in x,y,z = 3.03 3.03 3.03

region box block ${n1e2} ${n1e1} -100 100 -100 100 units box
region box block -1136.25 ${n1e1} -100 100 -100 100 units box
region box block -1136.25 1136.25 -100 100 -100 100 units box
region substrate block ${n1e2} ${n1e1} -0.5 0.5 0 0.5 units box
region substrate block -1136.25 ${n1e1} -0.5 0.5 0 0.5 units box
region substrate block -1136.25 1136.25 -0.5 0.5 0 0.5 units box

create_box 2 box
Created orthogonal box = (-1136.25 -100 -100) to (1136.25 100 100)
  2 by 1 by 1 MPI processor grid
create_atoms 1 region substrate
Created 750 atoms
  using lattice units in orthogonal box = (-1136.25 -100 -100) to (1136.25 100 100)
  create_atoms CPU = 0.001 seconds

lattice sc ${lat2}                                                             # Top chain type2
lattice sc 3                                                             
Lattice spacing in x,y,z = 3 3 3

region slider1 block ${n2e2} ${n2e1} -0.1 0.1 5.9 6.1 units box
region slider1 block -750 ${n2e1} -0.1 0.1 5.9 6.1 units box
region slider1 block -750 750 -0.1 0.1 5.9 6.1 units box

create_atoms 2 region slider1
Created 501 atoms
  using lattice units in orthogonal box = (-1136.25 -100 -100) to (1136.25 100 100)
  create_atoms CPU = 0.000 seconds

#lattice sc ${lat0}                                                             # Supporting particle type3

#region support block ${lenspr1} ${lenspr2} -0.1 0.1 7.9 8.1 units box

#create_atoms 3 region support

set type 1 diameter ${d1}                    # Set mass and diameter for each particles type
set type 1 diameter 3                    
Setting atom values ...
  750 settings made for diameter
set type 1 mass ${mass1}
set type 1 mass 31.101767270539
Setting atom values ...
  750 settings made for mass
set type 2 diameter ${d2}
set type 2 diameter 3
Setting atom values ...
  501 settings made for diameter
set type 2 mass ${mass2}
set type 2 mass 31.101767270539
Setting atom values ...
  501 settings made for mass
#set type 3 diameter ${d3}
#set type 3 mass ${mass3}

group substrate region substrate           # Define gorup
750 atoms in group substrate
group slider1 region slider1
501 atoms in group slider1
#group support region support
#group substrate_slider union substrate slider1

########################## Potential ###################################
pair_style granular
pair_coeff 1 1 hertz/material 0.00000001 0.001 ${PR} tangential mindlin NULL 0.1 0.01 damping viscoelastic              ########### set E between each particle in same type is small to neglect their interaction
pair_coeff 1 1 hertz/material 0.00000001 0.001 0.3 tangential mindlin NULL 0.1 0.01 damping viscoelastic              
pair_coeff 2 2 hertz/material 0.00000001 0.001 ${PR} tangential mindlin NULL 0.1 0.01 damping viscoelastic
pair_coeff 2 2 hertz/material 0.00000001 0.001 0.3 tangential mindlin NULL 0.1 0.01 damping viscoelastic
#pair_coeff 3 3 hertz/material ${E} 0.001 ${PR} tangential mindlin NULL 0.1 0.01 damping viscoelastic
pair_coeff 1 2 hertz/material ${E} 0.001 ${PR} tangential mindlin NULL 0.1 0.01 damping viscoelastic
pair_coeff 1 2 hertz/material 100000000 0.001 ${PR} tangential mindlin NULL 0.1 0.01 damping viscoelastic
pair_coeff 1 2 hertz/material 100000000 0.001 0.3 tangential mindlin NULL 0.1 0.01 damping viscoelastic
#pair_coeff 1 3 hertz/material 0.00000001 0.001 ${PR} tangential mindlin NULL 0.1 0.01 damping viscoelastic
#pair_coeff 2 3 hertz/material 0.00000001 0.001 ${PR} tangential mindlin NULL 0.1 0.01 damping viscoelastic
comm_modify     vel yes
neigh_modify    delay 0 every 1 check yes

### Compute properties ###

compute 1 slider1 com                      # Compute the center of mass of top chain
#compute 2 support com                      # Compute the center of mass of supporting particle

variable p0 equal "step"

variable slider_z equal "c_1[3]"          # output the position of top chain in z-direction

#variable distance equal "c_2[1]-c_1[1]"   # Distance between COM of top chain and supporting particle

thermo 100000
thermo_style custom step lx ly lz press pxx pyy pzz ke pe temp c_1[1] c_1[2] c_1[3] #c_2[1] c_2[2] c_2[3] v_distance

############### Fix ##################


############## Equilibrium the system with apply force ########################

fix force_slider1 slider1 setforce NULL 0 NULL                                # Fix top chain not to move in y-direction

fix f_sub substrate freeze                                                    # Freeze the bottom chain

fix rigid_top slider1 rigid/nve group 1 slider1 langevin 0 0 ${lgv} 6987532   # NVE+langevin
fix rigid_top slider1 rigid/nve group 1 slider1 langevin 0 0 0.5 6987532   
  1 rigid bodies with 501 atoms

fix add slider1 addforce 0 0 ${Fn} every 1                                    # Add force to top layer
fix add slider1 addforce 0 0 -1000 every 1                                    

timestep ${dt}
timestep 1e-05

# fix  nve_1 slider1 nve

dump 		D1 all custom 100000 Equi_${num}_*.dump id type diameter mass xu yu zu fx fy fz
dump 		D1 all custom 100000 Equi_3_*.dump id type diameter mass xu yu zu fx fy fz

run 3000000
Generated 0 of 1 mixed pair_coeff terms from geometric mixing rule
Neighbor list info ...
  update every 1 steps, delay 0 steps, check yes
  max neighbors/atom: 2000, page size: 100000
  master list distance cutoff = 3.1
  ghost atom cutoff = 3.1
  binsize = 1.55, bins = 1467 130 130
  1 neighbor lists, perpetual/occasional/extra = 1 0 0
  (1) pair granular, perpetual
      attributes: half, newton on, size, history
      pair build: half/size/bin/newton
      stencil: half/bin/3d
      bin: standard
Per MPI rank memory allocation (min/avg/max) = 64.23 | 64.23 | 64.23 Mbytes
   Step           Lx             Ly             Lz           Press           Pxx            Pyy            Pzz           KinEng         PotEng          Temp          c_1[1]         c_1[2]         c_1[3]    
         0   2272.5         200            200            0              0              0              0              0              0              0              0              0              6            
    100000   2272.5         200            200            0.0044929528  -4.4432974e-36  0              0.013478858    294262.69      0              5.6835569e+10  0              0              3.3244731    
    200000   2272.5         200            200            0.0016180379  -1.1108262e-35  0              0.0048541136   73584.22       0              1.4212475e+10  0              0              3.0706993    
    300000   2272.5         200            200            0.00016299092  8.8866314e-36  0              0.00048897275  1489.6628      0              2.8772194e+08  0              0              3.0452734    
    400000   2272.5         200            200            0.028463694    0.0058505484   0              0.079540534    1219.7844      0              2.3559609e+08  0              0              2.9911211    
    500000   2272.5         200            200            0.00056782087  2.0800516e-05  0              0.0016826621   107.2885       0              20722311       0              0              2.9987553    
    600000   2272.5         200            200            0.0062715119   0.00078779184  0              0.018026744    111.75707      0              21585396       0              0              2.9957499    
    700000   2272.5         200            200            0.0057978328   0.00064209782  0              0.016751401    15.518135      0              2997260.8      0              0              2.995909     
    800000   2272.5         200            200            0.0054416791   0.00061044567  0              0.015714592    0.93228404     0              180066.64      0              0              2.99604      
    900000   2272.5         200            200            0.0055897436   0.00062072467  0              0.016148506    0.036465602    0              7043.1737      0              0              2.995988     
   1000000   2272.5         200            200            0.0057087781   0.00062449479  0              0.016501839    0.038029017    0              7345.1405      0              0              2.9959449    
   1100000   2272.5         200            200            0.0057278288   0.00062507632  0              0.01655841     0.0012947425   0              250.07393      0              0              2.9959379    
   1200000   2272.5         200            200            0.0057176808   0.00062478404  0              0.016528258    0.00022400116  0              43.264858      0              0              2.9959414    
   1300000   2272.5         200            200            0.0057119094   0.00062461243  0              0.016511116    9.1902885e-05  0              17.750646      0              0              2.9959435    
   1400000   2272.5         200            200            0.0057114551   0.00062459791  0              0.016509767    1.0199353e-06  0              0.19699609     0              0              2.9959437    
   1500000   2272.5         200            200            0.0057120906   0.00062461656  0              0.016511655    9.5098032e-07  0              0.18367775     0              0              2.9959435    
   1600000   2272.5         200            200            0.0057123529   0.00062462441  0              0.016512434    1.9770077e-07  0              0.03818505     0              0              2.9959434    
   1700000   2272.5         200            200            0.00571235     0.00062462437  0              0.016512426    7.8834656e-11  0              1.5226574e-05  0              0              2.9959434    
   1800000   2272.5         200            200            0.0057123137   0.0006246233   0              0.016512318    3.2752537e-09  0              0.00063260111  0              0              2.9959434    
   1900000   2272.5         200            200            0.0057123026   0.00062462297  0              0.016512285    3.7210219e-10  0              7.1869932e-05  0              0              2.9959434    
   2000000   2272.5         200            200            0.005712304    0.00062462301  0              0.016512289    2.6558651e-12  0              5.1296888e-07  0              0              2.9959434    
   2100000   2272.5         200            200            0.0057123059   0.00062462307  0              0.016512295    9.7337581e-12  0              1.8800334e-06  0              0              2.9959434    
   2200000   2272.5         200            200            0.0057123063   0.00062462308  0              0.016512296    5.8734365e-13  0              1.1344289e-07  0              0              2.9959434    
   2300000   2272.5         200            200            0.0057123062   0.00062462307  0              0.016512296    3.2321842e-14  0              6.2428243e-09  0              0              2.9959434    
   2400000   2272.5         200            200            0.0057123061   0.00062462307  0              0.016512295    2.5629934e-14  0              4.9503111e-09  0              0              2.9959434    
   2500000   2272.5         200            200            0.0057123061   0.00062462307  0              0.016512295    7.0747605e-16  0              1.3664595e-10  0              0              2.9959434    
   2600000   2272.5         200            200            0.0057123061   0.00062462307  0              0.016512295    1.9334994e-16  0              3.7344707e-11  0              0              2.9959434    
   2700000   2272.5         200            200            0.0057123061   0.00062462307  0              0.016512295    6.1972449e-17  0              1.1969711e-11  0              0              2.9959434    
   2800000   2272.5         200            200            0.0057123061   0.00062462307  0              0.016512295    1.7491309e-18  0              3.3783708e-13  0              0              2.9959434    
   2900000   2272.5         200            200            0.0057123061   0.00062462307  0              0.016512295    1.029285e-18   0              1.9880196e-13  0              0              2.9959434    
   3000000   2272.5         200            200            0.0057123061   0.00062462307  0              0.016512295    1.9413096e-18  0              3.7495557e-13  0              0              2.9959434    
Loop time of 200.205 on 2 procs for 3000000 steps with 1251 atoms

Performance: 12946709.825 ns/day, 0.000 hours/ns, 14984.618 timesteps/s
99.9% CPU use with 2 MPI tasks x 1 OpenMP threads

MPI task timing breakdown:
Section |  min time  |  avg time  |  max time  |%varavg| %total
---------------------------------------------------------------
Pair    | 60.666     | 60.81      | 60.954     |   1.8 | 30.37
Neigh   | 2.8892     | 2.8896     | 2.89       |   0.0 |  1.44
Comm    | 14.486     | 14.63      | 14.774     |   3.8 |  7.31
Output  | 0.21413    | 0.21415    | 0.21417    |   0.0 |  0.11
Modify  | 108.44     | 108.5      | 108.56     |   0.6 | 54.20
Other   |            | 13.16      |            |       |  6.57

Nlocal:          625.5 ave         626 max         625 min
Histogram: 1 0 0 0 0 0 0 0 0 1
Nghost:            4.5 ave           5 max           4 min
Histogram: 1 0 0 0 0 0 0 0 0 1
Neighs:          757.5 ave         758 max         757 min
Histogram: 1 0 0 0 0 0 0 0 0 1

Total # of neighbors = 1515
Ave neighs/atom = 1.2110312
Neighbor list builds = 166
Dangerous builds = 0

undump D1

############ Add spring between top chain to supp particle and then equilibrium  ###########

#fix sp1 support spring couple slider1 ${K0} ${lenspr} NULL NULL 0                                 # Add spring

#dump 		D2 all custom 100000 add_${num}*.dump id type diameter mass xu yu zu

#fix add1 all print 10 "${p0} ${distance} ${slider_z}" file add_distance_${num}.txt screen no      # out put step, distance(spring length), z-position of top chain

#run 1000000

#undump D2

#unfix add1

########## Pulling the supporting particle with constant velocity #############

#fix m1 support move linear 0.1 0 0 units box                                                      # apply constant velocity to supporting particles along x-direction V=0.1m/s

#fix move1 all print 100 "${p0} ${distance} ${slider_z}" file move_distance_${num}.txt screen no

#dump 		1 all custom 50000 move_${num}_*.dump id type diameter mass xu yu zu

#run 1000000

clear
  using 1 OpenMP thread(s) per MPI task

next num

jump SELF startloop

include granular.in
### Simulation of contact between two chain

##################### Simulation setup ####################

units micro                              # units
dimension	3                            # dimension
boundary	p p p                        # boundary condition p: periodic
atom_style	sphere                       # atom style
#processors * * 1

####################### Parameter ##################################

variable ind equal ${num}
variable ind equal 4

#variable lat0 equal 1                    #
variable lat1 equal 3+(v_ind*0.01)        # Lattice distance of bottom chain
variable lat2 equal 3                    # Lattice distance of top chain
variable d1 equal 3                      # Diamter of particle at bottom chain
variable d2 equal 3                      # Diamter of particle at top chain
#variable d3 equal 1                      # Diamter of supporting particle

variable n2e1 equal 250*v_lat2             # Half length of top chain. 1500 is number of particles
variable n1e1 equal 1.5*v_n2e1*(v_lat1/v_lat2)             # Half length of bottom chain, which is 1.5 time larger than top chain
variable n1e2 equal -v_n1e1
variable n2e2 equal -v_n2e1
#variable lenspr equal -(v_n2e1+100)           # length of the spring connecting top chain and supporting particle
#variable lenspr1 equal -v_lenspr-0.1         # Position of supporting particle upper bound
#variable lenspr2 equal -v_lenspr+0.1         # Position of supporting particle lower bound

variable den equal 2.2 #grams/cm^3      # micrometer^3=10^-12 cm^3 Density of materials

variable V1 equal (1/6)*PI*(v_d1^3)     # Volume of particle 1
variable V2 equal (1/6)*PI*(v_d2^3)     # Volume of particle 2
#variable V3 equal (1/6)*PI*(v_d3^3)     # Volume of particle 3

variable mass1 equal v_den*v_V1  # Mass of particle 1 (picograms)
variable mass2 equal v_den*v_V2  # Mass of particle 2
#variable mass3 equal v_den*v_V3  # Mass of particle 3

# E GPa to picogram/(micrometer-microsecond^2)= 10^3 Pa= 10^-6 GPa
# Force unit(picogram-micrometer/microsecond^2)=10^-9 N= 1nN
# Spring stiffness (force/distance) 10^-3 N/m

variable K0 equal (1500/50)*(10^5)             # Spring stiffness conneting top chain and sup particle
variable E equal 100*(10^6)                    # Young's Modulus using for Hertz/material model
variable PR equal 0.3                          # Poisson's ratio using for Hertz/material model
variable Fn equal -1000                        # Force apply to each particles in top chain
variable dt equal 0.00001                      # Time step units microsecond
variable lgv equal 0.5                         #damping for langevin thermostat for slider


################### Creating the model #################################
lattice sc ${lat1}                                                               # Bottom chain type1
lattice sc 3.04                                                               
Lattice spacing in x,y,z = 3.04 3.04 3.04

region box block ${n1e2} ${n1e1} -100 100 -100 100 units box
region box block -1140 ${n1e1} -100 100 -100 100 units box
region box block -1140 1140 -100 100 -100 100 units box
region substrate block ${n1e2} ${n1e1} -0.5 0.5 0 0.5 units box
region substrate block -1140 ${n1e1} -0.5 0.5 0 0.5 units box
region substrate block -1140 1140 -0.5 0.5 0 0.5 units box

create_box 2 box
Created orthogonal box = (-1140 -100 -100) to (1140 100 100)
  2 by 1 by 1 MPI processor grid
create_atoms 1 region substrate
Created 750 atoms
  using lattice units in orthogonal box = (-1140 -100 -100) to (1140 100 100)
  create_atoms CPU = 0.001 seconds

lattice sc ${lat2}                                                             # Top chain type2
lattice sc 3                                                             
Lattice spacing in x,y,z = 3 3 3

region slider1 block ${n2e2} ${n2e1} -0.1 0.1 5.9 6.1 units box
region slider1 block -750 ${n2e1} -0.1 0.1 5.9 6.1 units box
region slider1 block -750 750 -0.1 0.1 5.9 6.1 units box

create_atoms 2 region slider1
Created 501 atoms
  using lattice units in orthogonal box = (-1140 -100 -100) to (1140 100 100)
  create_atoms CPU = 0.000 seconds

#lattice sc ${lat0}                                                             # Supporting particle type3

#region support block ${lenspr1} ${lenspr2} -0.1 0.1 7.9 8.1 units box

#create_atoms 3 region support

set type 1 diameter ${d1}                    # Set mass and diameter for each particles type
set type 1 diameter 3                    
Setting atom values ...
  750 settings made for diameter
set type 1 mass ${mass1}
set type 1 mass 31.101767270539
Setting atom values ...
  750 settings made for mass
set type 2 diameter ${d2}
set type 2 diameter 3
Setting atom values ...
  501 settings made for diameter
set type 2 mass ${mass2}
set type 2 mass 31.101767270539
Setting atom values ...
  501 settings made for mass
#set type 3 diameter ${d3}
#set type 3 mass ${mass3}

group substrate region substrate           # Define gorup
750 atoms in group substrate
group slider1 region slider1
501 atoms in group slider1
#group support region support
#group substrate_slider union substrate slider1

########################## Potential ###################################
pair_style granular
pair_coeff 1 1 hertz/material 0.00000001 0.001 ${PR} tangential mindlin NULL 0.1 0.01 damping viscoelastic              ########### set E between each particle in same type is small to neglect their interaction
pair_coeff 1 1 hertz/material 0.00000001 0.001 0.3 tangential mindlin NULL 0.1 0.01 damping viscoelastic              
pair_coeff 2 2 hertz/material 0.00000001 0.001 ${PR} tangential mindlin NULL 0.1 0.01 damping viscoelastic
pair_coeff 2 2 hertz/material 0.00000001 0.001 0.3 tangential mindlin NULL 0.1 0.01 damping viscoelastic
#pair_coeff 3 3 hertz/material ${E} 0.001 ${PR} tangential mindlin NULL 0.1 0.01 damping viscoelastic
pair_coeff 1 2 hertz/material ${E} 0.001 ${PR} tangential mindlin NULL 0.1 0.01 damping viscoelastic
pair_coeff 1 2 hertz/material 100000000 0.001 ${PR} tangential mindlin NULL 0.1 0.01 damping viscoelastic
pair_coeff 1 2 hertz/material 100000000 0.001 0.3 tangential mindlin NULL 0.1 0.01 damping viscoelastic
#pair_coeff 1 3 hertz/material 0.00000001 0.001 ${PR} tangential mindlin NULL 0.1 0.01 damping viscoelastic
#pair_coeff 2 3 hertz/material 0.00000001 0.001 ${PR} tangential mindlin NULL 0.1 0.01 damping viscoelastic
comm_modify     vel yes
neigh_modify    delay 0 every 1 check yes

### Compute properties ###

compute 1 slider1 com                      # Compute the center of mass of top chain
#compute 2 support com                      # Compute the center of mass of supporting particle

variable p0 equal "step"

variable slider_z equal "c_1[3]"          # output the position of top chain in z-direction

#variable distance equal "c_2[1]-c_1[1]"   # Distance between COM of top chain and supporting particle

thermo 100000
thermo_style custom step lx ly lz press pxx pyy pzz ke pe temp c_1[1] c_1[2] c_1[3] #c_2[1] c_2[2] c_2[3] v_distance

############### Fix ##################


############## Equilibrium the system with apply force ########################

fix force_slider1 slider1 setforce NULL 0 NULL                                # Fix top chain not to move in y-direction

fix f_sub substrate freeze                                                    # Freeze the bottom chain

fix rigid_top slider1 rigid/nve group 1 slider1 langevin 0 0 ${lgv} 6987532   # NVE+langevin
fix rigid_top slider1 rigid/nve group 1 slider1 langevin 0 0 0.5 6987532   
  1 rigid bodies with 501 atoms

fix add slider1 addforce 0 0 ${Fn} every 1                                    # Add force to top layer
fix add slider1 addforce 0 0 -1000 every 1                                    

timestep ${dt}
timestep 1e-05

# fix  nve_1 slider1 nve

dump 		D1 all custom 100000 Equi_${num}_*.dump id type diameter mass xu yu zu fx fy fz
dump 		D1 all custom 100000 Equi_4_*.dump id type diameter mass xu yu zu fx fy fz

run 3000000
Generated 0 of 1 mixed pair_coeff terms from geometric mixing rule
Neighbor list info ...
  update every 1 steps, delay 0 steps, check yes
  max neighbors/atom: 2000, page size: 100000
  master list distance cutoff = 3.1
  ghost atom cutoff = 3.1
  binsize = 1.55, bins = 1471 130 130
  1 neighbor lists, perpetual/occasional/extra = 1 0 0
  (1) pair granular, perpetual
      attributes: half, newton on, size, history
      pair build: half/size/bin/newton
      stencil: half/bin/3d
      bin: standard
Per MPI rank memory allocation (min/avg/max) = 64.36 | 64.36 | 64.36 Mbytes
   Step           Lx             Ly             Lz           Press           Pxx            Pyy            Pzz           KinEng         PotEng          Temp          c_1[1]         c_1[2]         c_1[3]    
         0   2280           200            200            0              0              0              0              0              0              0              0              0              6            
    100000   2280           200            200            0.0044810256   2.2143505e-36  0              0.013443077    294543.47      0              5.68898e+10    0              0              3.32403      
    200000   2280           200            200            0.001619417   -4.4286915e-36  0              0.0048582511   74062.21       0              1.4304796e+10  0              0              3.0699074    
    300000   2280           200            200            0.0001733611   2.9448871e-43  0              0.00052008331  1682.2412      0              3.2491762e+08  0              0              3.045129     
    400000   2280           200            200            0.03187122     0.0052687332   0              0.090344926    96.840976      0              18704417       0              0              2.9907268    
[...]
   2900000   2985           200            200            0.0038419028  -0.0010419097   0              0.012567618    5.3488474e-19  0              1.0331068e-13  0              0              2.9951569    
   3000000   2985           200            200            0.0038419028  -0.0010419097   0              0.012567618    2.8476859e-18  0              5.5001825e-13  0              0              2.9951569    
Loop time of 180.408 on 2 procs for 3000000 steps with 1251 atoms

Performance: 14367409.035 ns/day, 0.000 hours/ns, 16628.946 timesteps/s
99.9% CPU use with 2 MPI tasks x 1 OpenMP threads

MPI task timing breakdown:
Section |  min time  |  avg time  |  max time  |%varavg| %total
---------------------------------------------------------------
Pair    | 39.843     | 39.991     | 40.139     |   2.3 | 22.17
Neigh   | 3.7485     | 3.7488     | 3.7491     |   0.0 |  2.08
Comm    | 15.215     | 15.239     | 15.264     |   0.6 |  8.45
Output  | 0.21333    | 0.21335    | 0.21337    |   0.0 |  0.12
Modify  | 108.35     | 108.48     | 108.61     |   1.2 | 60.13
Other   |            | 12.73      |            |       |  7.06

Nlocal:          625.5 ave         626 max         625 min
Histogram: 1 0 0 0 0 0 0 0 0 1
Nghost:            2.5 ave           3 max           2 min
Histogram: 1 0 0 0 0 0 0 0 0 1
Neighs:          350.5 ave         351 max         350 min
Histogram: 1 0 0 0 0 0 0 0 0 1

Total # of neighbors = 701
Ave neighs/atom = 0.56035172
Neighbor list builds = 164
Dangerous builds = 0

undump D1

############ Add spring between top chain to supp particle and then equilibrium  ###########

#fix sp1 support spring couple slider1 ${K0} ${lenspr} NULL NULL 0                                 # Add spring

#dump 		D2 all custom 100000 add_${num}*.dump id type diameter mass xu yu zu

#fix add1 all print 10 "${p0} ${distance} ${slider_z}" file add_distance_${num}.txt screen no      # out put step, distance(spring length), z-position of top chain

#run 1000000

#undump D2

#unfix add1

########## Pulling the supporting particle with constant velocity #############

#fix m1 support move linear 0.1 0 0 units box                                                      # apply constant velocity to supporting particles along x-direction V=0.1m/s

#fix move1 all print 100 "${p0} ${distance} ${slider_z}" file move_distance_${num}.txt screen no

#dump 		1 all custom 50000 move_${num}_*.dump id type diameter mass xu yu zu

#run 1000000

clear
  using 1 OpenMP thread(s) per MPI task

next num

jump SELF startloop

include granular.in
### Simulation of contact between two chain

##################### Simulation setup ####################

units micro                              # units
dimension	3                            # dimension
boundary	p p p                        # boundary condition p: periodic
atom_style	sphere                       # atom style
#processors * * 1

####################### Parameter ##################################

variable ind equal ${num}
variable ind equal 99

#variable lat0 equal 1                    #
variable lat1 equal 3+(v_ind*0.01)        # Lattice distance of bottom chain
variable lat2 equal 3                    # Lattice distance of top chain
variable d1 equal 3                      # Diamter of particle at bottom chain
variable d2 equal 3                      # Diamter of particle at top chain
#variable d3 equal 1                      # Diamter of supporting particle

variable n2e1 equal 250*v_lat2             # Half length of top chain. 1500 is number of particles
variable n1e1 equal 1.5*v_n2e1*(v_lat1/v_lat2)             # Half length of bottom chain, which is 1.5 time larger than top chain
variable n1e2 equal -v_n1e1
variable n2e2 equal -v_n2e1
#variable lenspr equal -(v_n2e1+100)           # length of the spring connecting top chain and supporting particle
#variable lenspr1 equal -v_lenspr-0.1         # Position of supporting particle upper bound
#variable lenspr2 equal -v_lenspr+0.1         # Position of supporting particle lower bound

variable den equal 2.2 #grams/cm^3      # micrometer^3=10^-12 cm^3 Density of materials

variable V1 equal (1/6)*PI*(v_d1^3)     # Volume of particle 1
variable V2 equal (1/6)*PI*(v_d2^3)     # Volume of particle 2
#variable V3 equal (1/6)*PI*(v_d3^3)     # Volume of particle 3

variable mass1 equal v_den*v_V1  # Mass of particle 1 (picograms)
variable mass2 equal v_den*v_V2  # Mass of particle 2
#variable mass3 equal v_den*v_V3  # Mass of particle 3

# E GPa to picogram/(micrometer-microsecond^2)= 10^3 Pa= 10^-6 GPa
# Force unit(picogram-micrometer/microsecond^2)=10^-9 N= 1nN
# Spring stiffness (force/distance) 10^-3 N/m

variable K0 equal (1500/50)*(10^5)             # Spring stiffness conneting top chain and sup particle
variable E equal 100*(10^6)                    # Young's Modulus using for Hertz/material model
variable PR equal 0.3                          # Poisson's ratio using for Hertz/material model
variable Fn equal -1000                        # Force apply to each particles in top chain
variable dt equal 0.00001                      # Time step units microsecond
variable lgv equal 0.5                         #damping for langevin thermostat for slider


################### Creating the model #################################
lattice sc ${lat1}                                                               # Bottom chain type1
lattice sc 3.99                                                               
Lattice spacing in x,y,z = 3.99 3.99 3.99

region box block ${n1e2} ${n1e1} -100 100 -100 100 units box
region box block -1496.25 ${n1e1} -100 100 -100 100 units box
region box block -1496.25 1496.25 -100 100 -100 100 units box
region substrate block ${n1e2} ${n1e1} -0.5 0.5 0 0.5 units box
region substrate block -1496.25 ${n1e1} -0.5 0.5 0 0.5 units box
region substrate block -1496.25 1496.25 -0.5 0.5 0 0.5 units box

create_box 2 box
Created orthogonal box = (-1496.25 -100 -100) to (1496.25 100 100)
  2 by 1 by 1 MPI processor grid
create_atoms 1 region substrate
Created 750 atoms
  using lattice units in orthogonal box = (-1496.25 -100 -100) to (1496.25 100 100)
  create_atoms CPU = 0.000 seconds

lattice sc ${lat2}                                                             # Top chain type2
lattice sc 3                                                             
Lattice spacing in x,y,z = 3 3 3

region slider1 block ${n2e2} ${n2e1} -0.1 0.1 5.9 6.1 units box
region slider1 block -750 ${n2e1} -0.1 0.1 5.9 6.1 units box
region slider1 block -750 750 -0.1 0.1 5.9 6.1 units box

create_atoms 2 region slider1
Created 501 atoms
  using lattice units in orthogonal box = (-1496.25 -100 -100) to (1496.25 100 100)
  create_atoms CPU = 0.000 seconds

#lattice sc ${lat0}                                                             # Supporting particle type3

#region support block ${lenspr1} ${lenspr2} -0.1 0.1 7.9 8.1 units box

#create_atoms 3 region support

set type 1 diameter ${d1}                    # Set mass and diameter for each particles type
set type 1 diameter 3                    
Setting atom values ...
  750 settings made for diameter
set type 1 mass ${mass1}
set type 1 mass 31.101767270539
Setting atom values ...
  750 settings made for mass
set type 2 diameter ${d2}
set type 2 diameter 3
Setting atom values ...
  501 settings made for diameter
set type 2 mass ${mass2}
set type 2 mass 31.101767270539
Setting atom values ...
  501 settings made for mass
#set type 3 diameter ${d3}
#set type 3 mass ${mass3}

group substrate region substrate           # Define gorup
750 atoms in group substrate
group slider1 region slider1
501 atoms in group slider1
#group support region support
#group substrate_slider union substrate slider1

########################## Potential ###################################
pair_style granular
pair_coeff 1 1 hertz/material 0.00000001 0.001 ${PR} tangential mindlin NULL 0.1 0.01 damping viscoelastic              ########### set E between each particle in same type is small to neglect their interaction
pair_coeff 1 1 hertz/material 0.00000001 0.001 0.3 tangential mindlin NULL 0.1 0.01 damping viscoelastic              
pair_coeff 2 2 hertz/material 0.00000001 0.001 ${PR} tangential mindlin NULL 0.1 0.01 damping viscoelastic
pair_coeff 2 2 hertz/material 0.00000001 0.001 0.3 tangential mindlin NULL 0.1 0.01 damping viscoelastic
#pair_coeff 3 3 hertz/material ${E} 0.001 ${PR} tangential mindlin NULL 0.1 0.01 damping viscoelastic
pair_coeff 1 2 hertz/material ${E} 0.001 ${PR} tangential mindlin NULL 0.1 0.01 damping viscoelastic
pair_coeff 1 2 hertz/material 100000000 0.001 ${PR} tangential mindlin NULL 0.1 0.01 damping viscoelastic
pair_coeff 1 2 hertz/material 100000000 0.001 0.3 tangential mindlin NULL 0.1 0.01 damping viscoelastic
#pair_coeff 1 3 hertz/material 0.00000001 0.001 ${PR} tangential mindlin NULL 0.1 0.01 damping viscoelastic
#pair_coeff 2 3 hertz/material 0.00000001 0.001 ${PR} tangential mindlin NULL 0.1 0.01 damping viscoelastic
comm_modify     vel yes
neigh_modify    delay 0 every 1 check yes

### Compute properties ###

compute 1 slider1 com                      # Compute the center of mass of top chain
#compute 2 support com                      # Compute the center of mass of supporting particle

variable p0 equal "step"

variable slider_z equal "c_1[3]"          # output the position of top chain in z-direction

#variable distance equal "c_2[1]-c_1[1]"   # Distance between COM of top chain and supporting particle

thermo 100000
thermo_style custom step lx ly lz press pxx pyy pzz ke pe temp c_1[1] c_1[2] c_1[3] #c_2[1] c_2[2] c_2[3] v_distance

############### Fix ##################


############## Equilibrium the system with apply force ########################

fix force_slider1 slider1 setforce NULL 0 NULL                                # Fix top chain not to move in y-direction

fix f_sub substrate freeze                                                    # Freeze the bottom chain

fix rigid_top slider1 rigid/nve group 1 slider1 langevin 0 0 ${lgv} 6987532   # NVE+langevin
fix rigid_top slider1 rigid/nve group 1 slider1 langevin 0 0 0.5 6987532   
  1 rigid bodies with 501 atoms

fix add slider1 addforce 0 0 ${Fn} every 1                                    # Add force to top layer
fix add slider1 addforce 0 0 -1000 every 1                                    

timestep ${dt}
timestep 1e-05

# fix  nve_1 slider1 nve

dump 		D1 all custom 100000 Equi_${num}_*.dump id type diameter mass xu yu zu fx fy fz
dump 		D1 all custom 100000 Equi_99_*.dump id type diameter mass xu yu zu fx fy fz

run 3000000
Generated 0 of 1 mixed pair_coeff terms from geometric mixing rule
Neighbor list info ...
  update every 1 steps, delay 0 steps, check yes
  max neighbors/atom: 2000, page size: 100000
  master list distance cutoff = 3.1
  ghost atom cutoff = 3.1
  binsize = 1.55, bins = 1931 130 130
  1 neighbor lists, perpetual/occasional/extra = 1 0 0
  (1) pair granular, perpetual
      attributes: half, newton on, size, history
      pair build: half/size/bin/newton
      stencil: half/bin/3d
      bin: standard
Per MPI rank memory allocation (min/avg/max) = 80.35 | 80.35 | 80.35 Mbytes
   Step           Lx             Ly             Lz           Press           Pxx            Pyy            Pzz           KinEng         PotEng          Temp          c_1[1]         c_1[2]         c_1[3]    
         0   2992.5         200            200            0              0              0              0              0              0              0              0              0              6            
    100000   2992.5         200            200            0.0033973931  -2.1089008e-37  0              0.010192179    292412.61      0              5.6478235e+10  0              0              3.3269904    
    200000   2992.5         200            200            0.001195635    1.6871294e-36  0              0.0035869049   70522.97       0              1.3621207e+10  0              0              3.0751654    
    300000   2992.5         200            200            6.9727923e-05  4.217806e-37   0              0.00020918377  501.09511      0              96784359       0              0              3.0451438    
    400000   2992.5         200            200            0.00018236756  1.0544507e-37  0              0.00054710267  3129.0499      0              6.0436249e+08  0              0              3.0004819    
    500000   2992.5         200            200            0.00058060348 -0.00021660457  0              0.001958415    25.908011      0              5004020.5      0              0              2.9979613    
    600000   2992.5         200            200            0.0030442638   0.0013676124   0              0.0077651789   1.6959361      0              327562.74      0              0              2.9959374    
    700000   2992.5         200            200            0.0047840336   0.0033327548   0              0.011019346    4.3572759      0              841589.03      0              0              2.9952086    
    800000   2992.5         200            200            0.0053271519   0.0037176441   0              0.012263812    1.5688325      0              303013.22      0              0              2.994952     
    900000   2992.5         200            200            0.0054444093   0.0037528503   0              0.012580378    0.24590331     0              47495.164      0              0              2.9948876    
   1000000   2992.5         200            200            0.0054516264   0.003755205    0              0.012599674    0.01793874     0              3464.7903      0              0              2.9948831    
   1100000   2992.5         200            200            0.0054401461   0.0037520531   0              0.012568385    0.00022211954  0              42.90143       0              0              2.9948891    
   1200000   2992.5         200            200            0.0054321625   0.0037497975   0              0.01254669     8.0478307e-05  0              15.544038      0              0              2.9948934    
   1300000   2992.5         200            200            0.0054288327   0.0037488436   0              0.012537654    5.6228734e-05  0              10.860337      0              0              2.9948952    
   1400000   2992.5         200            200            0.0054278748   0.0037485657   0              0.012535059    1.1384924e-05  0              2.198949       0              0              2.9948957    
   1500000   2992.5         200            200            0.0054277387   0.0037485247   0              0.012534692    1.1038495e-06  0              0.21320377     0              0              2.9948958    
   1600000   2992.5         200            200            0.0054277849   0.0037485372   0              0.012534818    3.4877809e-08  0              0.0067364983   0              0              2.9948958    
   1700000   2992.5         200            200            0.0054278316   0.0037485503   0              0.012534944    7.6782846e-10  0              0.00014830275  0              0              2.9948957    
   1800000   2992.5         200            200            0.0054278539   0.0037485567   0              0.012535005    1.7786637e-09  0              0.00034354122  0              0              2.9948957    
   1900000   2992.5         200            200            0.0054278612   0.0037485588   0              0.012535025    4.8619008e-10  0              9.3905515e-05  0              0              2.9948957    
   2000000   2992.5         200            200            0.0054278627   0.0037485593   0              0.012535029    6.0651144e-11  0              1.1714507e-05  0              0              2.9948957    
   2100000   2992.5         200            200            0.0054278626   0.0037485592   0              0.012535028    3.1850463e-12  0              6.1517795e-07  0              0              2.9948957    
   2200000   2992.5         200            200            0.0054278623   0.0037485592   0              0.012535028    1.534826e-15   0              2.9644503e-10  0              0              2.9948957    
   2300000   2992.5         200            200            0.0054278622   0.0037485591   0              0.012535027    4.7061495e-14  0              9.0897247e-09  0              0              2.9948957    
   2400000   2992.5         200            200            0.0054278621   0.0037485591   0              0.012535027    1.9070133e-14  0              3.6833138e-09  0              0              2.9948957    
   2500000   2992.5         200            200            0.0054278621   0.0037485591   0              0.012535027    3.0421905e-15  0              5.8758596e-10  0              0              2.9948957    
   2600000   2992.5         200            200            0.0054278621   0.0037485591   0              0.012535027    2.4107739e-16  0              4.6563058e-11  0              0              2.9948957    
   2700000   2992.5         200            200            0.0054278621   0.0037485591   0              0.012535027    4.4163172e-18  0              8.529926e-13   0              0              2.9948957    
   2800000   2992.5         200            200            0.0054278621   0.0037485591   0              0.012535027    7.8324605e-19  0              1.5128059e-13  0              0              2.9948957    
   2900000   2992.5         200            200            0.0054278621   0.0037485591   0              0.012535027    7.2507988e-19  0              1.4004605e-13  0              0              2.9948957    
   3000000   2992.5         200            200            0.0054278621   0.0037485591   0              0.012535027    8.9653057e-20  0              1.7316101e-14  0              0              2.9948957    
Loop time of 180.219 on 2 procs for 3000000 steps with 1251 atoms

Performance: 14382538.205 ns/day, 0.000 hours/ns, 16646.456 timesteps/s
99.9% CPU use with 2 MPI tasks x 1 OpenMP threads

MPI task timing breakdown:
Section |  min time  |  avg time  |  max time  |%varavg| %total
---------------------------------------------------------------
Pair    | 39.776     | 39.782     | 39.787     |   0.1 | 22.07
Neigh   | 3.8031     | 3.8034     | 3.8037     |   0.0 |  2.11
Comm    | 14.681     | 14.786     | 14.892     |   2.7 |  8.20
Output  | 0.21341    | 0.21344    | 0.21347    |   0.0 |  0.12
Modify  | 108.79     | 108.82     | 108.84     |   0.2 | 60.38
Other   |            | 12.82      |            |       |  7.11

Nlocal:          625.5 ave         626 max         625 min
Histogram: 1 0 0 0 0 0 0 0 0 1
Nghost:            2.5 ave           3 max           2 min
Histogram: 1 0 0 0 0 0 0 0 0 1
Neighs:          352.5 ave         353 max         352 min
Histogram: 1 0 0 0 0 0 0 0 0 1

Total # of neighbors = 705
Ave neighs/atom = 0.56354916
Neighbor list builds = 164
Dangerous builds = 0

undump D1

############ Add spring between top chain to supp particle and then equilibrium  ###########

#fix sp1 support spring couple slider1 ${K0} ${lenspr} NULL NULL 0                                 # Add spring

#dump 		D2 all custom 100000 add_${num}*.dump id type diameter mass xu yu zu

#fix add1 all print 10 "${p0} ${distance} ${slider_z}" file add_distance_${num}.txt screen no      # out put step, distance(spring length), z-position of top chain

#run 1000000

#undump D2

#unfix add1

########## Pulling the supporting particle with constant velocity #############

#fix m1 support move linear 0.1 0 0 units box                                                      # apply constant velocity to supporting particles along x-direction V=0.1m/s

#fix move1 all print 100 "${p0} ${distance} ${slider_z}" file move_distance_${num}.txt screen no

#dump 		1 all custom 50000 move_${num}_*.dump id type diameter mass xu yu zu

#run 1000000

clear
  using 1 OpenMP thread(s) per MPI task

next num

jump SELF startloop
Total wall time: 5:05:30
