ITEM: TIMESTEP
2200000
ITEM: NUMBER OF ATOMS
51
ITEM: BOX BOUNDS pp pp pp
-6.3639610306789400e+01 6.3639610306789400e+01
-1.0000000000000000e+02 1.0000000000000000e+02
-1.0000000000000000e+02 1.0000000000000000e+02
ITEM: ATOMS id type diameter mass xu yu zu
1 1 3.54 51.1012 -63.6396 0 0
2 1 3.54 51.1012 -59.397 0 0
3 1 3.54 51.1012 -55.1543 0 0
4 1 3.54 51.1012 -50.9117 0 0
5 1 3.54 51.1012 -46.669 0 0
6 1 3.54 51.1012 -42.4264 0 0
7 1 3.54 51.1012 -38.1838 0 0
8 1 3.54 51.1012 -33.9411 0 0
9 1 3.54 51.1012 -29.6985 0 0
10 1 3.54 51.1012 -25.4558 0 0
11 1 3.54 51.1012 -21.2132 0 0
12 1 3.54 51.1012 -16.9706 0 0
13 1 3.54 51.1012 -12.7279 0 0
14 1 3.54 51.1012 -8.48528 0 0
15 1 3.54 51.1012 -4.24264 0 0
16 1 3.54 51.1012 0 0 0
17 1 3.54 51.1012 4.24264 0 0
18 1 3.54 51.1012 8.48528 0 0
19 1 3.54 51.1012 12.7279 0 0
20 1 3.54 51.1012 16.9706 0 0
21 1 3.54 51.1012 21.2132 0 0
22 1 3.54 51.1012 25.4558 0 0
23 1 3.54 51.1012 29.6985 0 0
24 1 3.54 51.1012 33.9411 0 0
25 1 3.54 51.1012 38.1838 0 0
26 1 3.54 51.1012 42.4264 0 0
27 1 3.54 51.1012 46.669 0 0
28 1 3.54 51.1012 50.9117 0 0
29 1 3.54 51.1012 55.1543 0 0
30 1 3.54 51.1012 59.397 0 0
31 2 3 31.1018 -30 0 3.26534
32 2 3 31.1018 -27 0 3.26534
33 2 3 31.1018 -24 0 3.26534
34 2 3 31.1018 -21 0 3.26534
35 2 3 31.1018 -18 0 3.26534
36 2 3 31.1018 -15 0 3.26534
37 2 3 31.1018 -12 0 3.26534
38 2 3 31.1018 -9 0 3.26534
39 2 3 31.1018 -6 0 3.26534
40 2 3 31.1018 -3 0 3.26534
41 2 3 31.1018 5.5825e-17 0 3.26534
42 2 3 31.1018 3 0 3.26534
43 2 3 31.1018 6 0 3.26534
44 2 3 31.1018 9 0 3.26534
45 2 3 31.1018 12 0 3.26534
46 2 3 31.1018 15 0 3.26534
47 2 3 31.1018 18 0 3.26534
48 2 3 31.1018 21 0 3.26534
49 2 3 31.1018 24 0 3.26534
50 2 3 31.1018 27 0 3.26534
51 2 3 31.1018 30 0 3.26534
