ITEM: TIMESTEP
200000
ITEM: NUMBER OF ATOMS
51
ITEM: BOX BOUNDS pp pp pp
-6.3639610306789400e+01 6.3639610306789400e+01
-1.0000000000000000e+02 1.0000000000000000e+02
-1.0000000000000000e+02 1.0000000000000000e+02
ITEM: ATOMS id type diameter mass xu yu zu
1 1 3.51 49.813 -63.6396 0 0
2 1 3.51 49.813 -59.397 0 0
3 1 3.51 49.813 -55.1543 0 0
4 1 3.51 49.813 -50.9117 0 0
5 1 3.51 49.813 -46.669 0 0
6 1 3.51 49.813 -42.4264 0 0
7 1 3.51 49.813 -38.1838 0 0
8 1 3.51 49.813 -33.9411 0 0
9 1 3.51 49.813 -29.6985 0 0
10 1 3.51 49.813 -25.4558 0 0
11 1 3.51 49.813 -21.2132 0 0
12 1 3.51 49.813 -16.9706 0 0
13 1 3.51 49.813 -12.7279 0 0
14 1 3.51 49.813 -8.48528 0 0
15 1 3.51 49.813 -4.24264 0 0
16 1 3.51 49.813 0 0 0
17 1 3.51 49.813 4.24264 0 0
18 1 3.51 49.813 8.48528 0 0
19 1 3.51 49.813 12.7279 0 0
20 1 3.51 49.813 16.9706 0 0
21 1 3.51 49.813 21.2132 0 0
22 1 3.51 49.813 25.4558 0 0
23 1 3.51 49.813 29.6985 0 0
24 1 3.51 49.813 33.9411 0 0
25 1 3.51 49.813 38.1838 0 0
26 1 3.51 49.813 42.4264 0 0
27 1 3.51 49.813 46.669 0 0
28 1 3.51 49.813 50.9117 0 0
29 1 3.51 49.813 55.1543 0 0
30 1 3.51 49.813 59.397 0 0
31 2 3 31.1018 -30 0 3.30388
32 2 3 31.1018 -27 0 3.30388
33 2 3 31.1018 -24 0 3.30388
34 2 3 31.1018 -21 0 3.30388
35 2 3 31.1018 -18 0 3.30388
36 2 3 31.1018 -15 0 3.30388
37 2 3 31.1018 -12 0 3.30388
38 2 3 31.1018 -9 0 3.30388
39 2 3 31.1018 -6 0 3.30388
40 2 3 31.1018 -3 0 3.30388
41 2 3 31.1018 5.99257e-20 0 3.30388
42 2 3 31.1018 3 0 3.30388
43 2 3 31.1018 6 0 3.30388
44 2 3 31.1018 9 0 3.30388
45 2 3 31.1018 12 0 3.30388
46 2 3 31.1018 15 0 3.30388
47 2 3 31.1018 18 0 3.30388
48 2 3 31.1018 21 0 3.30388
49 2 3 31.1018 24 0 3.30388
50 2 3 31.1018 27 0 3.30388
51 2 3 31.1018 30 0 3.30388
