ITEM: TIMESTEP
400000
ITEM: NUMBER OF ATOMS
51
ITEM: BOX BOUNDS pp pp pp
-6.3639610306789400e+01 6.3639610306789400e+01
-1.0000000000000000e+02 1.0000000000000000e+02
-1.0000000000000000e+02 1.0000000000000000e+02
ITEM: ATOMS id type diameter mass xu yu zu
1 1 3.58 52.8531 -63.6396 0 0
2 1 3.58 52.8531 -59.397 0 0
3 1 3.58 52.8531 -55.1543 0 0
4 1 3.58 52.8531 -50.9117 0 0
5 1 3.58 52.8531 -46.669 0 0
6 1 3.58 52.8531 -42.4264 0 0
7 1 3.58 52.8531 -38.1838 0 0
8 1 3.58 52.8531 -33.9411 0 0
9 1 3.58 52.8531 -29.6985 0 0
10 1 3.58 52.8531 -25.4558 0 0
11 1 3.58 52.8531 -21.2132 0 0
12 1 3.58 52.8531 -16.9706 0 0
13 1 3.58 52.8531 -12.7279 0 0
14 1 3.58 52.8531 -8.48528 0 0
15 1 3.58 52.8531 -4.24264 0 0
16 1 3.58 52.8531 0 0 0
17 1 3.58 52.8531 4.24264 0 0
18 1 3.58 52.8531 8.48528 0 0
19 1 3.58 52.8531 12.7279 0 0
20 1 3.58 52.8531 16.9706 0 0
21 1 3.58 52.8531 21.2132 0 0
22 1 3.58 52.8531 25.4558 0 0
23 1 3.58 52.8531 29.6985 0 0
24 1 3.58 52.8531 33.9411 0 0
25 1 3.58 52.8531 38.1838 0 0
26 1 3.58 52.8531 42.4264 0 0
27 1 3.58 52.8531 46.669 0 0
28 1 3.58 52.8531 50.9117 0 0
29 1 3.58 52.8531 55.1543 0 0
30 1 3.58 52.8531 59.397 0 0
31 2 3 31.1018 -30 0 3.28792
32 2 3 31.1018 -27 0 3.28792
33 2 3 31.1018 -24 0 3.28792
34 2 3 31.1018 -21 0 3.28792
35 2 3 31.1018 -18 0 3.28792
36 2 3 31.1018 -15 0 3.28792
37 2 3 31.1018 -12 0 3.28792
38 2 3 31.1018 -9 0 3.28792
39 2 3 31.1018 -6 0 3.28792
40 2 3 31.1018 -3 0 3.28792
41 2 3 31.1018 1.268e-17 0 3.28792
42 2 3 31.1018 3 0 3.28792
43 2 3 31.1018 6 0 3.28792
44 2 3 31.1018 9 0 3.28792
45 2 3 31.1018 12 0 3.28792
46 2 3 31.1018 15 0 3.28792
47 2 3 31.1018 18 0 3.28792
48 2 3 31.1018 21 0 3.28792
49 2 3 31.1018 24 0 3.28792
50 2 3 31.1018 27 0 3.28792
51 2 3 31.1018 30 0 3.28792
