LAMMPS (23 Jun 2022 - Update 1)
  using 1 OpenMP thread(s) per MPI task
variable num index 1 2 3 4 5 6 7 8 9 10 11 12 13 14 15 16 17 18 19 20 21 22 23 24 25 26 27 28 29 30 31 32 33 34 35 36 37 38 39 40

label startloop

include granular.in
### Simulation of contact between two chain

##################### Simulation setup ####################

units micro                              # units
dimension	3                            # dimension
boundary	p p p                        # boundary condition p: periodic
atom_style	sphere                       # atom style
#processors * * 1

####################### Parameter ##################################

variable ind equal ${num}
variable ind equal 1

variable lat1 equal 3 #*(2^(1/2))
variable lat2 equal 3
variable d1 equal 3                      # Diamter of particle at bottom chain
variable d2 equal 3                      # Diamter of particle at upper chain

variable n2e1 equal 1500*v_lat1              # Half length of top chain. 1500 is number of particles
variable n1e1 equal v_n2e1*(v_lat1/v_lat2)              # Half length of bottom chain, which is 1.5 time larger than top chain
variable n1e2 equal -v_n1e1
variable n2e2 equal -v_n2e1
#variable x_shift equal -0.25*v_d1

variable den equal 2.2 #grams/cm^3      # micrometer^3=10^-12 cm^3 Density of materials

variable V1 equal (1/6)*PI*(v_d1^3)     # Volume of particle 1
variable V2 equal (1/6)*PI*(v_d2^3)     # Volume of particle 2

variable mass1 equal v_den*v_V1  # Mass of particle 1 (picograms)
variable mass2 equal v_den*v_V2  # Mass of particle 2 (picograms)

# E GPa to picogram/(micrometer-microsecond^2)= 10^3 Pa= 10^-6 GPa
# Force unit(picogram-micrometer/microsecond^2)=10^-9 N= 1nN
# Spring stiffness (force/distance) 10^-3 N/m


variable E equal (10+(5*v_ind))*(10^6)                    # Young's Modulus using for Hertz/material model
variable PR equal 0.3                          # Poisson's ratio using for Hertz/material model
variable Fn equal -1000                        # Force apply to each particles in top chain
variable dt equal 0.00001                      # Time step units microsecond
variable lgv equal 0.5                         #damping for langevin thermostat for slider



################### Creating the model #################################
lattice sc ${lat1}                                                               # Bottom chain type1
lattice sc 3                                                               
Lattice spacing in x,y,z = 3 3 3

region box block ${n1e2} ${n1e1} -50 50 -50 50 units box
region box block -4500 ${n1e1} -50 50 -50 50 units box
region box block -4500 4500 -50 50 -50 50 units box
region substrate block ${n1e2} ${n1e1} -0.1 0.1 0 0.1 units box
region substrate block -4500 ${n1e1} -0.1 0.1 0 0.1 units box
region substrate block -4500 4500 -0.1 0.1 0 0.1 units box

create_box 2 box
Created orthogonal box = (-4500 -50 -50) to (4500 50 50)
  4 by 1 by 1 MPI processor grid
create_atoms 1 region substrate
Created 3000 atoms
  using lattice units in orthogonal box = (-4500 -50 -50) to (4500 50 50)
  create_atoms CPU = 0.001 seconds

lattice sc ${lat2}                                                             # Top chain type2
lattice sc 3                                                             
Lattice spacing in x,y,z = 3 3 3

region slider1 block ${n2e2} ${n2e1} -0.1 0.1 5.9 6.1 units box
region slider1 block -4500 ${n2e1} -0.1 0.1 5.9 6.1 units box
region slider1 block -4500 4500 -0.1 0.1 5.9 6.1 units box

create_atoms 2 region slider1
Created 3000 atoms
  using lattice units in orthogonal box = (-4500 -50 -50) to (4500 50 50)
  create_atoms CPU = 0.001 seconds


set type 1 diameter ${d1}                    # Set mass and diameter for each particles type
set type 1 diameter 3                    
Setting atom values ...
  3000 settings made for diameter
set type 1 mass ${mass1}
set type 1 mass 31.101767270539
Setting atom values ...
  3000 settings made for mass
set type 2 diameter ${d2}                    # Set mass and diameter for each particles type
set type 2 diameter 3                    
Setting atom values ...
  3000 settings made for diameter
set type 2 mass ${mass2}
set type 2 mass 31.101767270539
Setting atom values ...
  3000 settings made for mass


group substrate region substrate           # Define gorup
3000 atoms in group substrate
group slider1 region slider1
3000 atoms in group slider1
#displace_atoms slider1 move ${x_shift} 0.0 0.0
#group substrate_slider union substrate slider1

########################## Potential ###################################
pair_style granular
pair_coeff 1 1 hertz/material 0.00000001 0.001 ${PR} tangential mindlin NULL 0.1 0.01 damping viscoelastic
pair_coeff 1 1 hertz/material 0.00000001 0.001 0.3 tangential mindlin NULL 0.1 0.01 damping viscoelastic
pair_coeff 2 2 hertz/material 0.00000001 0.001 ${PR} tangential mindlin NULL 0.1 0.01 damping viscoelastic
pair_coeff 2 2 hertz/material 0.00000001 0.001 0.3 tangential mindlin NULL 0.1 0.01 damping viscoelastic
pair_coeff 1 2 hertz/material ${E} 0.001 ${PR} tangential mindlin NULL 0.1 0.01 damping viscoelastic
pair_coeff 1 2 hertz/material 15000000 0.001 ${PR} tangential mindlin NULL 0.1 0.01 damping viscoelastic
pair_coeff 1 2 hertz/material 15000000 0.001 0.3 tangential mindlin NULL 0.1 0.01 damping viscoelastic

comm_modify     vel yes
neigh_modify    delay 0 every 1 check yes

### Compute properties ###

compute 1 slider1 com                      # Compute the center of mass of top chain

variable p0 equal "step"

variable slider_z equal "c_1[3]"          # output the position of top chain in z-direction


thermo 100000
thermo_style custom step lx ly lz press pxx pyy pzz ke pe temp c_1[1] c_1[2] c_1[3]

############### Fix ##################


############## Equilibrium the system with apply force ########################

fix force_slider1 slider1 setforce NULL 0 NULL                                # Fix top chain not to move in y-direction

fix f_sub substrate freeze                                                    # Freeze the bottom chain

#fix nve_slider1 slider1 nve                   # Integrate motion for slider1 group
#fix lan_slider slider1 langevin 0 0 ${lgv} 6987532
fix rigid_top slider1 rigid/nve group 1 slider1 langevin 0 0 ${lgv} 6987532   # NVE+langevin
fix rigid_top slider1 rigid/nve group 1 slider1 langevin 0 0 0.5 6987532   
  1 rigid bodies with 3000 atoms

fix add slider1 addforce 0 0 ${Fn} every 1                                    # Add force to top layer
fix add slider1 addforce 0 0 -1000 every 1                                    

timestep ${dt}
timestep 1e-05

dump 		D1 all custom 100000 Equi_${num}_*.dump id type diameter mass xu yu zu fx fy fz
dump 		D1 all custom 100000 Equi_1_*.dump id type diameter mass xu yu zu fx fy fz
dump_modify D1 format 5 %.12g
dump_modify D1 format 7 %.12g

run 3000000
Generated 0 of 1 mixed pair_coeff terms from geometric mixing rule
Neighbor list info ...
  update every 1 steps, delay 0 steps, check yes
  max neighbors/atom: 2000, page size: 100000
  master list distance cutoff = 3.1
  ghost atom cutoff = 3.1
  binsize = 1.55, bins = 5807 65 65
  1 neighbor lists, perpetual/occasional/extra = 1 0 0
  (1) pair granular, perpetual
      attributes: half, newton on, size, history
      pair build: half/size/bin/newton
      stencil: half/bin/3d
      bin: standard
Per MPI rank memory allocation (min/avg/max) = 40.07 | 40.07 | 40.07 Mbytes
   Step           Lx             Ly             Lz           Press           Pxx            Pyy            Pzz           KinEng         PotEng          Temp          c_1[1]         c_1[2]         c_1[3]    
         0   9000           100            100            0              0              0              0              0              0              0             -1.5            0              6            
    100000   9000           100            100            0.027084716    3.3421514e-20  0              0.081254148    1754381.5      0              8.4712803e+13 -1.5            0              3.3243215    
    200000   9000           100            100            0.0099535331   7.8828669e-21  0              0.029860599    452878.11      0              2.1867863e+13 -1.5            0              3.0646376    
    300000   9000           100            100            0.0017281125   5.96542e-22    0              0.0051843375   25134.574      0              1.2136586e+12 -1.5            0              3.0407149    
    400000   9000           100            100           -0.00055445153 -5.2565082e-21  0             -0.0016633546   3641.4229      0              1.7583128e+11 -1.5            0              3.0075702    
    500000   9000           100            100           -0.00015226638 -1.8082515e-20  0             -0.00045679914  255.61498      0              1.2342732e+10 -1.5            0              3.000217     
    600000   9000           100            100            0.022060226   -1.1497841e-15  0              0.066180678    336.15708      0              1.6231822e+10 -1.5            0              2.9982989    
    700000   9000           100            100            0.032517005   -1.6713486e-15  0              0.097551014    71.670933      0              3.4607329e+09 -1.5            0              2.9978126    
    800000   9000           100            100            0.034548003   -1.7832492e-15  0              0.10364401     5.6298041      0              2.7184309e+08 -1.5            0              2.9977172    
    900000   9000           100            100            0.032656131   -1.683892e-15   0              0.097968393    0.18284771     0              8829061.7     -1.5            0              2.9978026    
   1000000   9000           100            100            0.033558342   -1.7306536e-15  0              0.10067503     0.00041536308  0              20056.397     -1.5            0              2.9977621    
   1100000   9000           100            100            0.033234421   -1.7140185e-15  0              0.099703263    0.0040536569   0              195736.58     -1.5            0              2.9977765    
   1200000   9000           100            100            0.033324034   -1.7185695e-15  0              0.099972103    0.0013299447   0              64218.27      -1.5            0              2.9977726    
   1300000   9000           100            100            0.033308037   -1.7177792e-15  0              0.09992411     0.00021473753  0              10368.907     -1.5            0              2.9977733    
   1400000   9000           100            100            0.033307081   -1.7177171e-15  0              0.099921244    2.1037976e-05  0              1015.8486     -1.5            0              2.9977733    
   1500000   9000           100            100            0.033309581   -1.7178496e-15  0              0.099928742    1.0979066e-06  0              53.013979     -1.5            0              2.9977732    
   1600000   9000           100            100            0.033308168   -1.7177761e-15  0              0.099924504    8.2837977e-09  0              0.39999494    -1.5            0              2.9977733    
   1700000   9000           100            100            0.033308732   -1.7178052e-15  0              0.099926195    4.8772089e-09  0              0.23550296    -1.5            0              2.9977732    
   1800000   9000           100            100            0.033308557   -1.7177962e-15  0              0.09992567     2.8688277e-09  0              0.13852542    -1.5            0              2.9977732    
   1900000   9000           100            100            0.033308596   -1.7177982e-15  0              0.099925788    5.9345125e-10  0              0.028655637   -1.5            0              2.9977732    
   2000000   9000           100            100            0.033308593   -1.7177981e-15  0              0.099925779    7.1742318e-11  0              0.0034641798  -1.5            0              2.9977732    
   2100000   9000           100            100            0.03330859    -1.7177979e-15  0              0.09992577     5.0980426e-12  0              0.00024616623 -1.5            0              2.9977732    
   2200000   9000           100            100            0.033308592   -1.717798e-15   0              0.099925777    1.3289806e-13  0              6.4171719e-06 -1.5            0              2.9977732    
   2300000   9000           100            100            0.033308591   -1.717798e-15   0              0.099925774    2.1275931e-15  0              1.0273386e-07 -1.5            0              2.9977732    
   2400000   9000           100            100            0.033308592   -1.717798e-15   0              0.099925775    5.0931036e-15  0              2.4592774e-07 -1.5            0              2.9977732    
   2500000   9000           100            100            0.033308592   -1.717798e-15   0              0.099925775    1.4277642e-15  0              6.8941622e-08 -1.5            0              2.9977732    
   2600000   9000           100            100            0.033308592   -1.717798e-15   0              0.099925775    1.2841505e-16  0              6.2007033e-09 -1.5            0              2.9977732    
   2700000   9000           100            100            0.033308592   -1.717798e-15   0              0.099925775    3.6156546e-18  0              1.7458702e-10 -1.5            0              2.9977732    
   2800000   9000           100            100            0.033308592   -1.717798e-15   0              0.099925775    1.5090843e-17  0              7.2868278e-10 -1.5            0              2.9977732    
   2900000   9000           100            100            0.033308592   -1.717798e-15   0              0.099925775    1.5982901e-18  0              7.7175708e-11 -1.5            0              2.9977732    
   3000000   9000           100            100            0.033308592   -1.717798e-15   0              0.099925775    5.8118727e-18  0              2.8063453e-10 -1.5            0              2.9977732    
Loop time of 714.45 on 4 procs for 3000000 steps with 6000 atoms

Performance: 3627965.571 ns/day, 0.000 hours/ns, 4199.034 timesteps/s
99.9% CPU use with 4 MPI tasks x 1 OpenMP threads

MPI task timing breakdown:
Section |  min time  |  avg time  |  max time  |%varavg| %total
---------------------------------------------------------------
Pair    | 316.97     | 320.12     | 325.07     |  16.8 | 44.81
Neigh   | 1.5235     | 1.5442     | 1.5646     |   1.6 |  0.22
Comm    | 36.284     | 39.777     | 43.029     |  45.9 |  5.57
Output  | 0.44571    | 0.44584    | 0.44602    |   0.0 |  0.06
Modify  | 309.02     | 310.68     | 312.99     |   9.0 | 43.49
Other   |            | 41.89      |            |       |  5.86

Nlocal:           1500 ave        1500 max        1500 min
Histogram: 4 0 0 0 0 0 0 0 0 0
Nghost:              6 ave           6 max           6 min
Histogram: 4 0 0 0 0 0 0 0 0 0
Neighs:           2250 ave        2250 max        2250 min
Histogram: 4 0 0 0 0 0 0 0 0 0

Total # of neighbors = 9000
Ave neighs/atom = 1.5
Neighbor list builds = 166
Dangerous builds = 0

undump D1


clear
  using 1 OpenMP thread(s) per MPI task

next num

jump SELF startloop

include granular.in
### Simulation of contact between two chain

##################### Simulation setup ####################

units micro                              # units
dimension	3                            # dimension
boundary	p p p                        # boundary condition p: periodic
atom_style	sphere                       # atom style
#processors * * 1

####################### Parameter ##################################

variable ind equal ${num}
variable ind equal 2

variable lat1 equal 3 #*(2^(1/2))
variable lat2 equal 3
variable d1 equal 3                      # Diamter of particle at bottom chain
variable d2 equal 3                      # Diamter of particle at upper chain

variable n2e1 equal 1500*v_lat1              # Half length of top chain. 1500 is number of particles
variable n1e1 equal v_n2e1*(v_lat1/v_lat2)              # Half length of bottom chain, which is 1.5 time larger than top chain
variable n1e2 equal -v_n1e1
variable n2e2 equal -v_n2e1
#variable x_shift equal -0.25*v_d1

variable den equal 2.2 #grams/cm^3      # micrometer^3=10^-12 cm^3 Density of materials

variable V1 equal (1/6)*PI*(v_d1^3)     # Volume of particle 1
variable V2 equal (1/6)*PI*(v_d2^3)     # Volume of particle 2

variable mass1 equal v_den*v_V1  # Mass of particle 1 (picograms)
variable mass2 equal v_den*v_V2  # Mass of particle 2 (picograms)

# E GPa to picogram/(micrometer-microsecond^2)= 10^3 Pa= 10^-6 GPa
# Force unit(picogram-micrometer/microsecond^2)=10^-9 N= 1nN
# Spring stiffness (force/distance) 10^-3 N/m


variable E equal (10+(5*v_ind))*(10^6)                    # Young's Modulus using for Hertz/material model
variable PR equal 0.3                          # Poisson's ratio using for Hertz/material model
variable Fn equal -1000                        # Force apply to each particles in top chain
variable dt equal 0.00001                      # Time step units microsecond
variable lgv equal 0.5                         #damping for langevin thermostat for slider



################### Creating the model #################################
lattice sc ${lat1}                                                               # Bottom chain type1
lattice sc 3                                                               
Lattice spacing in x,y,z = 3 3 3

region box block ${n1e2} ${n1e1} -50 50 -50 50 units box
region box block -4500 ${n1e1} -50 50 -50 50 units box
region box block -4500 4500 -50 50 -50 50 units box
region substrate block ${n1e2} ${n1e1} -0.1 0.1 0 0.1 units box
region substrate block -4500 ${n1e1} -0.1 0.1 0 0.1 units box
region substrate block -4500 4500 -0.1 0.1 0 0.1 units box

create_box 2 box
Created orthogonal box = (-4500 -50 -50) to (4500 50 50)
  4 by 1 by 1 MPI processor grid
create_atoms 1 region substrate
Created 3000 atoms
  using lattice units in orthogonal box = (-4500 -50 -50) to (4500 50 50)
  create_atoms CPU = 0.001 seconds

lattice sc ${lat2}                                                             # Top chain type2
lattice sc 3                                                             
Lattice spacing in x,y,z = 3 3 3

region slider1 block ${n2e2} ${n2e1} -0.1 0.1 5.9 6.1 units box
region slider1 block -4500 ${n2e1} -0.1 0.1 5.9 6.1 units box
region slider1 block -4500 4500 -0.1 0.1 5.9 6.1 units box

create_atoms 2 region slider1
Created 3000 atoms
  using lattice units in orthogonal box = (-4500 -50 -50) to (4500 50 50)
  create_atoms CPU = 0.001 seconds


set type 1 diameter ${d1}                    # Set mass and diameter for each particles type
set type 1 diameter 3                    
Setting atom values ...
  3000 settings made for diameter
set type 1 mass ${mass1}
set type 1 mass 31.101767270539
Setting atom values ...
  3000 settings made for mass
set type 2 diameter ${d2}                    # Set mass and diameter for each particles type
set type 2 diameter 3                    
Setting atom values ...
  3000 settings made for diameter
set type 2 mass ${mass2}
set type 2 mass 31.101767270539
Setting atom values ...
  3000 settings made for mass


group substrate region substrate           # Define gorup
3000 atoms in group substrate
group slider1 region slider1
3000 atoms in group slider1
#displace_atoms slider1 move ${x_shift} 0.0 0.0
#group substrate_slider union substrate slider1

########################## Potential ###################################
pair_style granular
pair_coeff 1 1 hertz/material 0.00000001 0.001 ${PR} tangential mindlin NULL 0.1 0.01 damping viscoelastic
pair_coeff 1 1 hertz/material 0.00000001 0.001 0.3 tangential mindlin NULL 0.1 0.01 damping viscoelastic
pair_coeff 2 2 hertz/material 0.00000001 0.001 ${PR} tangential mindlin NULL 0.1 0.01 damping viscoelastic
pair_coeff 2 2 hertz/material 0.00000001 0.001 0.3 tangential mindlin NULL 0.1 0.01 damping viscoelastic
pair_coeff 1 2 hertz/material ${E} 0.001 ${PR} tangential mindlin NULL 0.1 0.01 damping viscoelastic
pair_coeff 1 2 hertz/material 20000000 0.001 ${PR} tangential mindlin NULL 0.1 0.01 damping viscoelastic
pair_coeff 1 2 hertz/material 20000000 0.001 0.3 tangential mindlin NULL 0.1 0.01 damping viscoelastic

comm_modify     vel yes
neigh_modify    delay 0 every 1 check yes

### Compute properties ###

compute 1 slider1 com                      # Compute the center of mass of top chain

variable p0 equal "step"

variable slider_z equal "c_1[3]"          # output the position of top chain in z-direction


thermo 100000
thermo_style custom step lx ly lz press pxx pyy pzz ke pe temp c_1[1] c_1[2] c_1[3]

############### Fix ##################


############## Equilibrium the system with apply force ########################

fix force_slider1 slider1 setforce NULL 0 NULL                                # Fix top chain not to move in y-direction

fix f_sub substrate freeze                                                    # Freeze the bottom chain

#fix nve_slider1 slider1 nve                   # Integrate motion for slider1 group
#fix lan_slider slider1 langevin 0 0 ${lgv} 6987532
fix rigid_top slider1 rigid/nve group 1 slider1 langevin 0 0 ${lgv} 6987532   # NVE+langevin
fix rigid_top slider1 rigid/nve group 1 slider1 langevin 0 0 0.5 6987532   
  1 rigid bodies with 3000 atoms

fix add slider1 addforce 0 0 ${Fn} every 1                                    # Add force to top layer
fix add slider1 addforce 0 0 -1000 every 1                                    

timestep ${dt}
timestep 1e-05

dump 		D1 all custom 100000 Equi_${num}_*.dump id type diameter mass xu yu zu fx fy fz
dump 		D1 all custom 100000 Equi_2_*.dump id type diameter mass xu yu zu fx fy fz
dump_modify D1 format 5 %.12g
dump_modify D1 format 7 %.12g

run 3000000
Generated 0 of 1 mixed pair_coeff terms from geometric mixing rule
Neighbor list info ...
  update every 1 steps, delay 0 steps, check yes
  max neighbors/atom: 2000, page size: 100000
  master list distance cutoff = 3.1
  ghost atom cutoff = 3.1
  binsize = 1.55, bins = 5807 65 65
  1 neighbor lists, perpetual/occasional/extra = 1 0 0
  (1) pair granular, perpetual
      attributes: half, newton on, size, history
      pair build: half/size/bin/newton
      stencil: half/bin/3d
      bin: standard
Per MPI rank memory allocation (min/avg/max) = 40.07 | 40.07 | 40.07 Mbytes
   Step           Lx             Ly             Lz           Press           Pxx            Pyy            Pzz           KinEng         PotEng          Temp          c_1[1]         c_1[2]         c_1[3]    
         0   9000           100            100            0              0              0              0              0              0              0             -1.5            0              6            
    100000   9000           100            100            0.027208938    3.3321838e-20  0              0.081626815    1766185.3      0              8.5282767e+13 -1.5            0              3.3218441    
    200000   9000           100            100            0.010180797    8.2745097e-21  0              0.030542392    468977.95      0              2.2645267e+13 -1.5            0              3.0608599    
    300000   9000           100            100            0.0020533919   9.5809328e-22  0              0.0061601756   34266.396      0              1.6546016e+12 -1.5            0              3.0391561    
    400000   9000           100            100            6.5076859e-05 -4.0660297e-21  0              0.00019523058  46.119395      0              2.2269405e+09 -1.5            0              3.0096766    
    500000   9000           100            100            0.068547303   -3.5774879e-15  0              0.20564191     3738.2053      0              1.8050455e+11 -1.5            0              2.9970082    
    600000   9000           100            100            0.054915058   -2.8337398e-15  0              0.16474517     9.0149406      0              4.3529922e+08 -1.5            0              2.9974336    
    700000   9000           100            100            0.031815375   -1.6354224e-15  0              0.095446126    80.87182       0              3.9050108e+09 -1.5            0              2.9982208    
    800000   9000           100            100            0.030848297   -1.5916589e-15  0              0.092544891    0.045410978    0              2192733.6     -1.5            0              2.9982536    
    900000   9000           100            100            0.03320838    -1.7138895e-15  0              0.09962514     1.2280745      0              59299320      -1.5            0              2.9981653    
   1000000   9000           100            100            0.033600885   -1.7334648e-15  0              0.10080265     0.012886669    0              622251.15     -1.5            0              2.9981512    
   1100000   9000           100            100            0.033362138   -1.721006e-15   0              0.10008641     0.0143207      0              691495.34     -1.5            0              2.9981601    
   1200000   9000           100            100            0.033284406   -1.7170594e-15  0              0.099853219    0.00084705239  0              40901.128     -1.5            0              2.9981629    
   1300000   9000           100            100            0.033303283   -1.7180586e-15  0              0.099909849    0.00011542635  0              5573.5252     -1.5            0              2.9981622    
   1400000   9000           100            100            0.033315123   -1.718665e-15   0              0.099945368    2.4059563e-05  0              1161.7502     -1.5            0              2.9981618    
   1500000   9000           100            100            0.033314359   -1.718622e-15   0              0.099943078    4.4917779e-07  0              21.689188     -1.5            0              2.9981618    
   1600000   9000           100            100            0.033312828   -1.718543e-15   0              0.099938484    4.6238535e-07  0              22.326934     -1.5            0              2.9981619    
   1700000   9000           100            100            0.033312723   -1.7185381e-15  0              0.09993817     3.9346642e-11  0              0.0018999085  -1.5            0              2.9981619    
   1800000   9000           100            100            0.033312895   -1.718547e-15   0              0.099938686    6.6452447e-09  0              0.32087509    -1.5            0              2.9981618    
   1900000   9000           100            100            0.03331293    -1.7185487e-15  0              0.09993879     1.2629985e-10  0              0.006098568   -1.5            0              2.9981618    
   2000000   9000           100            100            0.033312914   -1.7185479e-15  0              0.099938741    7.0993303e-11  0              0.0034280125  -1.5            0              2.9981618    
   2100000   9000           100            100            0.033312907   -1.7185476e-15  0              0.099938722    5.9646205e-12  0              0.00028801018 -1.5            0              2.9981618    
   2200000   9000           100            100            0.033312909   -1.7185476e-15  0              0.099938726    4.9828139e-13  0              2.4060225e-05 -1.5            0              2.9981618    
   2300000   9000           100            100            0.03331291    -1.7185477e-15  0              0.099938729    1.4948212e-13  0              7.2179564e-06 -1.5            0              2.9981618    
   2400000   9000           100            100            0.03331291    -1.7185477e-15  0              0.099938729    1.312895e-15   0              6.3394999e-08 -1.5            0              2.9981618    
   2500000   9000           100            100            0.033312909   -1.7185477e-15  0              0.099938728    2.6391838e-15  0              1.2743674e-07 -1.5            0              2.9981618    
   2600000   9000           100            100            0.033312909   -1.7185477e-15  0              0.099938728    7.1804917e-18  0              3.4672025e-10 -1.5            0              2.9981618    
   2700000   9000           100            100            0.033312909   -1.7185477e-15  0              0.099938728    2.3826842e-17  0              1.1505129e-09 -1.5            0              2.9981618    
   2800000   9000           100            100            0.033312909   -1.7185477e-15  0              0.099938728    1.9600103e-19  0              9.4641882e-12 -1.5            0              2.9981618    
   2900000   9000           100            100            0.033312909   -1.7185477e-15  0              0.099938728    1.2425591e-17  0              5.9998734e-10 -1.5            0              2.9981618    
   3000000   9000           100            100            0.033312909   -1.7185477e-15  0              0.099938728    5.6181936e-20  0              2.7128246e-12 -1.5            0              2.9981618    
Loop time of 708.7 on 4 procs for 3000000 steps with 6000 atoms

Performance: 3657401.037 ns/day, 0.000 hours/ns, 4233.103 timesteps/s
99.9% CPU use with 4 MPI tasks x 1 OpenMP threads

MPI task timing breakdown:
Section |  min time  |  avg time  |  max time  |%varavg| %total
---------------------------------------------------------------
Pair    | 315.76     | 319.2      | 324.7      |  18.9 | 45.04
Neigh   | 1.5435     | 1.5649     | 1.5865     |   1.7 |  0.22
Comm    | 36.866     | 40.065     | 42.1       |  31.8 |  5.65
Output  | 0.44351    | 0.4436     | 0.44374    |   0.0 |  0.06
Modify  | 303.4      | 305.66     | 309.17     |  12.4 | 43.13
Other   |            | 41.76      |            |       |  5.89

Nlocal:           1500 ave        1500 max        1500 min
Histogram: 4 0 0 0 0 0 0 0 0 0
Nghost:              6 ave           6 max           6 min
Histogram: 4 0 0 0 0 0 0 0 0 0
Neighs:           2250 ave        2250 max        2250 min
Histogram: 4 0 0 0 0 0 0 0 0 0

Total # of neighbors = 9000
Ave neighs/atom = 1.5
Neighbor list builds = 168
Dangerous builds = 0

undump D1


clear
  using 1 OpenMP thread(s) per MPI task

next num

jump SELF startloop

include granular.in
### Simulation of contact between two chain

##################### Simulation setup ####################

units micro                              # units
dimension	3                            # dimension
boundary	p p p                        # boundary condition p: periodic
atom_style	sphere                       # atom style
#processors * * 1

####################### Parameter ##################################

variable ind equal ${num}
variable ind equal 3

variable lat1 equal 3 #*(2^(1/2))
variable lat2 equal 3
variable d1 equal 3                      # Diamter of particle at bottom chain
variable d2 equal 3                      # Diamter of particle at upper chain

variable n2e1 equal 1500*v_lat1              # Half length of top chain. 1500 is number of particles
variable n1e1 equal v_n2e1*(v_lat1/v_lat2)              # Half length of bottom chain, which is 1.5 time larger than top chain
variable n1e2 equal -v_n1e1
variable n2e2 equal -v_n2e1
#variable x_shift equal -0.25*v_d1

variable den equal 2.2 #grams/cm^3      # micrometer^3=10^-12 cm^3 Density of materials

variable V1 equal (1/6)*PI*(v_d1^3)     # Volume of particle 1
variable V2 equal (1/6)*PI*(v_d2^3)     # Volume of particle 2

variable mass1 equal v_den*v_V1  # Mass of particle 1 (picograms)
variable mass2 equal v_den*v_V2  # Mass of particle 2 (picograms)

# E GPa to picogram/(micrometer-microsecond^2)= 10^3 Pa= 10^-6 GPa
# Force unit(picogram-micrometer/microsecond^2)=10^-9 N= 1nN
# Spring stiffness (force/distance) 10^-3 N/m


variable E equal (10+(5*v_ind))*(10^6)                    # Young's Modulus using for Hertz/material model
variable PR equal 0.3                          # Poisson's ratio using for Hertz/material model
variable Fn equal -1000                        # Force apply to each particles in top chain
variable dt equal 0.00001                      # Time step units microsecond
variable lgv equal 0.5                         #damping for langevin thermostat for slider



################### Creating the model #################################
lattice sc ${lat1}                                                               # Bottom chain type1
lattice sc 3                                                               
Lattice spacing in x,y,z = 3 3 3

region box block ${n1e2} ${n1e1} -50 50 -50 50 units box
region box block -4500 ${n1e1} -50 50 -50 50 units box
region box block -4500 4500 -50 50 -50 50 units box
region substrate block ${n1e2} ${n1e1} -0.1 0.1 0 0.1 units box
region substrate block -4500 ${n1e1} -0.1 0.1 0 0.1 units box
region substrate block -4500 4500 -0.1 0.1 0 0.1 units box

create_box 2 box
Created orthogonal box = (-4500 -50 -50) to (4500 50 50)
  4 by 1 by 1 MPI processor grid
create_atoms 1 region substrate
Created 3000 atoms
  using lattice units in orthogonal box = (-4500 -50 -50) to (4500 50 50)
  create_atoms CPU = 0.001 seconds

lattice sc ${lat2}                                                             # Top chain type2
lattice sc 3                                                             
Lattice spacing in x,y,z = 3 3 3

region slider1 block ${n2e2} ${n2e1} -0.1 0.1 5.9 6.1 units box
region slider1 block -4500 ${n2e1} -0.1 0.1 5.9 6.1 units box
region slider1 block -4500 4500 -0.1 0.1 5.9 6.1 units box

create_atoms 2 region slider1
Created 3000 atoms
  using lattice units in orthogonal box = (-4500 -50 -50) to (4500 50 50)
  create_atoms CPU = 0.001 seconds


set type 1 diameter ${d1}                    # Set mass and diameter for each particles type
set type 1 diameter 3                    
Setting atom values ...
  3000 settings made for diameter
set type 1 mass ${mass1}
set type 1 mass 31.101767270539
Setting atom values ...
  3000 settings made for mass
set type 2 diameter ${d2}                    # Set mass and diameter for each particles type
set type 2 diameter 3                    
Setting atom values ...
  3000 settings made for diameter
set type 2 mass ${mass2}
set type 2 mass 31.101767270539
Setting atom values ...
  3000 settings made for mass


group substrate region substrate           # Define gorup
3000 atoms in group substrate
group slider1 region slider1
3000 atoms in group slider1
#displace_atoms slider1 move ${x_shift} 0.0 0.0
#group substrate_slider union substrate slider1

########################## Potential ###################################
pair_style granular
pair_coeff 1 1 hertz/material 0.00000001 0.001 ${PR} tangential mindlin NULL 0.1 0.01 damping viscoelastic
pair_coeff 1 1 hertz/material 0.00000001 0.001 0.3 tangential mindlin NULL 0.1 0.01 damping viscoelastic
pair_coeff 2 2 hertz/material 0.00000001 0.001 ${PR} tangential mindlin NULL 0.1 0.01 damping viscoelastic
pair_coeff 2 2 hertz/material 0.00000001 0.001 0.3 tangential mindlin NULL 0.1 0.01 damping viscoelastic
pair_coeff 1 2 hertz/material ${E} 0.001 ${PR} tangential mindlin NULL 0.1 0.01 damping viscoelastic
pair_coeff 1 2 hertz/material 25000000 0.001 ${PR} tangential mindlin NULL 0.1 0.01 damping viscoelastic
pair_coeff 1 2 hertz/material 25000000 0.001 0.3 tangential mindlin NULL 0.1 0.01 damping viscoelastic

comm_modify     vel yes
neigh_modify    delay 0 every 1 check yes

### Compute properties ###

compute 1 slider1 com                      # Compute the center of mass of top chain

variable p0 equal "step"

variable slider_z equal "c_1[3]"          # output the position of top chain in z-direction


thermo 100000
thermo_style custom step lx ly lz press pxx pyy pzz ke pe temp c_1[1] c_1[2] c_1[3]

############### Fix ##################


############## Equilibrium the system with apply force ########################

fix force_slider1 slider1 setforce NULL 0 NULL                                # Fix top chain not to move in y-direction

fix f_sub substrate freeze                                                    # Freeze the bottom chain

#fix nve_slider1 slider1 nve                   # Integrate motion for slider1 group
#fix lan_slider slider1 langevin 0 0 ${lgv} 6987532
fix rigid_top slider1 rigid/nve group 1 slider1 langevin 0 0 ${lgv} 6987532   # NVE+langevin
fix rigid_top slider1 rigid/nve group 1 slider1 langevin 0 0 0.5 6987532   
  1 rigid bodies with 3000 atoms

fix add slider1 addforce 0 0 ${Fn} every 1                                    # Add force to top layer
fix add slider1 addforce 0 0 -1000 every 1                                    

timestep ${dt}
timestep 1e-05

dump 		D1 all custom 100000 Equi_${num}_*.dump id type diameter mass xu yu zu fx fy fz
dump 		D1 all custom 100000 Equi_3_*.dump id type diameter mass xu yu zu fx fy fz
dump_modify D1 format 5 %.12g
dump_modify D1 format 7 %.12g

run 3000000
Generated 0 of 1 mixed pair_coeff terms from geometric mixing rule
Neighbor list info ...
  update every 1 steps, delay 0 steps, check yes
  max neighbors/atom: 2000, page size: 100000
  master list distance cutoff = 3.1
  ghost atom cutoff = 3.1
  binsize = 1.55, bins = 5807 65 65
  1 neighbor lists, perpetual/occasional/extra = 1 0 0
  (1) pair granular, perpetual
      attributes: half, newton on, size, history
      pair build: half/size/bin/newton
      stencil: half/bin/3d
      bin: standard
Per MPI rank memory allocation (min/avg/max) = 40.07 | 40.07 | 40.07 Mbytes
   Step           Lx             Ly             Lz           Press           Pxx            Pyy            Pzz           KinEng         PotEng          Temp          c_1[1]         c_1[2]         c_1[3]    
         0   9000           100            100            0              0              0              0              0              0              0             -1.5            0              6            
    100000   9000           100            100            0.02729591     3.3463665e-20  0              0.081887731    1774481.5      0              8.568336e+13  -1.5            0              3.3200563    
    200000   9000           100            100            0.010342412    8.3885003e-21  0              0.031027236    480539.39      0              2.3203527e+13 -1.5            0              3.058064     
    300000   9000           100            100            0.0022886203   1.8468952e-21  0              0.0068658609   41552.828      0              2.0064374e+12 -1.5            0              3.0377309    
    400000   9000           100            100            0.00052500727 -3.3742965e-21  0              0.0015750218   2753.082       0              1.3293648e+11 -1.5            0              3.0094125    
    500000   9000           100            100            0.00025414709 -9.2834648e-21  0              0.00076244128  676.74342      0              3.2677518e+10 -1.5            0              3.0008139    
    600000   9000           100            100            0.058011388   -2.9922733e-15  0              0.17403417     8.2375783      0              3.9776318e+08 -1.5            0              2.9977062    
    700000   9000           100            100            0.029612146   -1.5213604e-15  0              0.088836439    74.289671      0              3.5871823e+09 -1.5            0              2.9985385    
    800000   9000           100            100            0.030719852   -1.5849572e-15  0              0.092159556    1.8399456      0              88844386      -1.5            0              2.9984989    
    900000   9000           100            100            0.03359779    -1.73314e-15    0              0.10079337     1.2957819      0              62568672      -1.5            0              2.9984066    
   1000000   9000           100            100            0.033659035   -1.7355043e-15  0              0.10097711     0.004954167    0              239218.99     -1.5            0              2.9984051    
   1100000   9000           100            100            0.033311227   -1.7175309e-15  0              0.09993368     0.021017962    0              1014882.2     -1.5            0              2.9984161    
   1200000   9000           100            100            0.033273494   -1.7156785e-15  0              0.099820481    1.8384165e-05  0              887.70551     -1.5            0              2.9984173    
   1300000   9000           100            100            0.033312524   -1.7177041e-15  0              0.099937573    0.00029969674  0              14471.283     -1.5            0              2.998416     
   1400000   9000           100            100            0.033320603   -1.7181105e-15  0              0.09996181     4.2469007e-06  0              205.06764     -1.5            0              2.9984158    
   1500000   9000           100            100            0.033316557   -1.7178993e-15  0              0.09994967     3.7237226e-06  0              179.80524     -1.5            0              2.9984159    
   1600000   9000           100            100            0.033315211   -1.717831e-15   0              0.099945634    1.7881506e-07  0              8.6343392     -1.5            0              2.9984159    
   1700000   9000           100            100            0.033315586   -1.7178507e-15  0              0.099946757    3.9180214e-08  0              1.8918723     -1.5            0              2.9984159    
   1800000   9000           100            100            0.033315783   -1.7178608e-15  0              0.099947349    4.7864474e-09  0              0.23112042    -1.5            0              2.9984159    
   1900000   9000           100            100            0.033315755   -1.7178593e-15  0              0.099947265    3.2441765e-10  0              0.015664967   -1.5            0              2.9984159    
   2000000   9000           100            100            0.033315728   -1.7178579e-15  0              0.099947185    1.0086046e-10  0              0.0048701905  -1.5            0              2.9984159    
   2100000   9000           100            100            0.033315729   -1.717858e-15   0              0.099947188    1.7037939e-12  0              8.2270107e-05 -1.5            0              2.9984159    
   2200000   9000           100            100            0.033315733   -1.7178581e-15  0              0.099947198    1.7992754e-12  0              8.6880568e-05 -1.5            0              2.9984159    
   2300000   9000           100            100            0.033315733   -1.7178581e-15  0              0.099947199    1.8849028e-15  0              9.1015209e-08 -1.5            0              2.9984159    
   2400000   9000           100            100            0.033315733   -1.7178581e-15  0              0.099947198    2.7981681e-14  0              1.3511352e-06 -1.5            0              2.9984159    
   2500000   9000           100            100            0.033315732   -1.7178581e-15  0              0.099947197    4.2742658e-17  0              2.06389e-09   -1.5            0              2.9984159    
   2600000   9000           100            100            0.033315733   -1.7178581e-15  0              0.099947198    4.0944169e-16  0              1.9770474e-08 -1.5            0              2.9984159    
   2700000   9000           100            100            0.033315733   -1.7178581e-15  0              0.099947198    3.4700981e-17  0              1.6755862e-09 -1.5            0              2.9984159    
   2800000   9000           100            100            0.033315733   -1.7178581e-15  0              0.099947198    2.1029957e-17  0              1.0154614e-09 -1.5            0              2.9984159    
   2900000   9000           100            100            0.033315733   -1.7178581e-15  0              0.099947198    4.0925793e-18  0              1.9761601e-10 -1.5            0              2.9984159    
   3000000   9000           100            100            0.033315733   -1.7178581e-15  0              0.099947198    5.5568543e-18  0              2.6832061e-10 -1.5            0              2.9984159    
Loop time of 711.813 on 4 procs for 3000000 steps with 6000 atoms

Performance: 3641407.443 ns/day, 0.000 hours/ns, 4214.592 timesteps/s
99.9% CPU use with 4 MPI tasks x 1 OpenMP threads

MPI task timing breakdown:
Section |  min time  |  avg time  |  max time  |%varavg| %total
---------------------------------------------------------------
Pair    | 320.86     | 323.77     | 327.39     |  13.6 | 45.49
Neigh   | 1.5436     | 1.5647     | 1.5861     |   1.7 |  0.22
Comm    | 37.131     | 39.821     | 42.509     |  36.2 |  5.59
Output  | 0.44463    | 0.44472    | 0.44484    |   0.0 |  0.06
Modify  | 304.01     | 304.74     | 306.22     |   5.1 | 42.81
Other   |            | 41.47      |            |       |  5.83

Nlocal:           1500 ave        1500 max        1500 min
Histogram: 4 0 0 0 0 0 0 0 0 0
Nghost:              6 ave           6 max           6 min
Histogram: 4 0 0 0 0 0 0 0 0 0
Neighs:           2250 ave        2250 max        2250 min
Histogram: 4 0 0 0 0 0 0 0 0 0

Total # of neighbors = 9000
Ave neighs/atom = 1.5
Neighbor list builds = 168
Dangerous builds = 0

undump D1


clear
  using 1 OpenMP thread(s) per MPI task

next num

jump SELF startloop

include granular.in
### Simulation of contact between two chain

##################### Simulation setup ####################

units micro                              # units
dimension	3                            # dimension
boundary	p p p                        # boundary condition p: periodic
atom_style	sphere                       # atom style
#processors * * 1

####################### Parameter ##################################

variable ind equal ${num}
variable ind equal 4

variable lat1 equal 3 #*(2^(1/2))
variable lat2 equal 3
variable d1 equal 3                      # Diamter of particle at bottom chain
variable d2 equal 3                      # Diamter of particle at upper chain

variable n2e1 equal 1500*v_lat1              # Half length of top chain. 1500 is number of particles
variable n1e1 equal v_n2e1*(v_lat1/v_lat2)              # Half length of bottom chain, which is 1.5 time larger than top chain
variable n1e2 equal -v_n1e1
variable n2e2 equal -v_n2e1
#variable x_shift equal -0.25*v_d1

variable den equal 2.2 #grams/cm^3      # micrometer^3=10^-12 cm^3 Density of materials

variable V1 equal (1/6)*PI*(v_d1^3)     # Volume of particle 1
variable V2 equal (1/6)*PI*(v_d2^3)     # Volume of particle 2

variable mass1 equal v_den*v_V1  # Mass of particle 1 (picograms)
variable mass2 equal v_den*v_V2  # Mass of particle 2 (picograms)

# E GPa to picogram/(micrometer-microsecond^2)= 10^3 Pa= 10^-6 GPa
# Force unit(picogram-micrometer/microsecond^2)=10^-9 N= 1nN
# Spring stiffness (force/distance) 10^-3 N/m


variable E equal (10+(5*v_ind))*(10^6)                    # Young's Modulus using for Hertz/material model
variable PR equal 0.3                          # Poisson's ratio using for Hertz/material model
variable Fn equal -1000                        # Force apply to each particles in top chain
variable dt equal 0.00001                      # Time step units microsecond
variable lgv equal 0.5                         #damping for langevin thermostat for slider



################### Creating the model #################################
lattice sc ${lat1}                                                               # Bottom chain type1
lattice sc 3                                                               
Lattice spacing in x,y,z = 3 3 3

region box block ${n1e2} ${n1e1} -50 50 -50 50 units box
region box block -4500 ${n1e1} -50 50 -50 50 units box
region box block -4500 4500 -50 50 -50 50 units box
region substrate block ${n1e2} ${n1e1} -0.1 0.1 0 0.1 units box
region substrate block -4500 ${n1e1} -0.1 0.1 0 0.1 units box
region substrate block -4500 4500 -0.1 0.1 0 0.1 units box

create_box 2 box
Created orthogonal box = (-4500 -50 -50) to (4500 50 50)
  4 by 1 by 1 MPI processor grid
create_atoms 1 region substrate
Created 3000 atoms
  using lattice units in orthogonal box = (-4500 -50 -50) to (4500 50 50)
  create_atoms CPU = 0.001 seconds

lattice sc ${lat2}                                                             # Top chain type2
lattice sc 3                                                             
Lattice spacing in x,y,z = 3 3 3

region slider1 block ${n2e2} ${n2e1} -0.1 0.1 5.9 6.1 units box
region slider1 block -4500 ${n2e1} -0.1 0.1 5.9 6.1 units box
region slider1 block -4500 4500 -0.1 0.1 5.9 6.1 units box

create_atoms 2 region slider1
Created 3000 atoms
  using lattice units in orthogonal box = (-4500 -50 -50) to (4500 50 50)
  create_atoms CPU = 0.001 seconds


set type 1 diameter ${d1}                    # Set mass and diameter for each particles type
set type 1 diameter 3                    
Setting atom values ...
  3000 settings made for diameter
set type 1 mass ${mass1}
set type 1 mass 31.101767270539
Setting atom values ...
  3000 settings made for mass
set type 2 diameter ${d2}                    # Set mass and diameter for each particles type
set type 2 diameter 3                    
Setting atom values ...
  3000 settings made for diameter
set type 2 mass ${mass2}
set type 2 mass 31.101767270539
Setting atom values ...
  3000 settings made for mass


group substrate region substrate           # Define gorup
3000 atoms in group substrate
group slider1 region slider1
3000 atoms in group slider1
#displace_atoms slider1 move ${x_shift} 0.0 0.0
#group substrate_slider union substrate slider1

########################## Potential ###################################
pair_style granular
pair_coeff 1 1 hertz/material 0.00000001 0.001 ${PR} tangential mindlin NULL 0.1 0.01 damping viscoelastic
pair_coeff 1 1 hertz/material 0.00000001 0.001 0.3 tangential mindlin NULL 0.1 0.01 damping viscoelastic
pair_coeff 2 2 hertz/material 0.00000001 0.001 ${PR} tangential mindlin NULL 0.1 0.01 damping viscoelastic
pair_coeff 2 2 hertz/material 0.00000001 0.001 0.3 tangential mindlin NULL 0.1 0.01 damping viscoelastic
pair_coeff 1 2 hertz/material ${E} 0.001 ${PR} tangential mindlin NULL 0.1 0.01 damping viscoelastic
pair_coeff 1 2 hertz/material 30000000 0.001 ${PR} tangential mindlin NULL 0.1 0.01 damping viscoelastic
pair_coeff 1 2 hertz/material 30000000 0.001 0.3 tangential mindlin NULL 0.1 0.01 damping viscoelastic

comm_modify     vel yes
neigh_modify    delay 0 every 1 check yes

### Compute properties ###

compute 1 slider1 com                      # Compute the center of mass of top chain

variable p0 equal "step"

variable slider_z equal "c_1[3]"          # output the position of top chain in z-direction


thermo 100000
thermo_style custom step lx ly lz press pxx pyy pzz ke pe temp c_1[1] c_1[2] c_1[3]

############### Fix ##################


############## Equilibrium the system with apply force ########################

fix force_slider1 slider1 setforce NULL 0 NULL                                # Fix top chain not to move in y-direction

fix f_sub substrate freeze                                                    # Freeze the bottom chain

#fix nve_slider1 slider1 nve                   # Integrate motion for slider1 group
#fix lan_slider slider1 langevin 0 0 ${lgv} 6987532
fix rigid_top slider1 rigid/nve group 1 slider1 langevin 0 0 ${lgv} 6987532   # NVE+langevin
fix rigid_top slider1 rigid/nve group 1 slider1 langevin 0 0 0.5 6987532   
  1 rigid bodies with 3000 atoms

fix add slider1 addforce 0 0 ${Fn} every 1                                    # Add force to top layer
fix add slider1 addforce 0 0 -1000 every 1                                    

timestep ${dt}
timestep 1e-05

dump 		D1 all custom 100000 Equi_${num}_*.dump id type diameter mass xu yu zu fx fy fz
dump 		D1 all custom 100000 Equi_4_*.dump id type diameter mass xu yu zu fx fy fz
dump_modify D1 format 5 %.12g
dump_modify D1 format 7 %.12g

run 3000000
Generated 0 of 1 mixed pair_coeff terms from geometric mixing rule
Neighbor list info ...
  update every 1 steps, delay 0 steps, check yes
  max neighbors/atom: 2000, page size: 100000
  master list distance cutoff = 3.1
  ghost atom cutoff = 3.1
  binsize = 1.55, bins = 5807 65 65
  1 neighbor lists, perpetual/occasional/extra = 1 0 0
  (1) pair granular, perpetual
      attributes: half, newton on, size, history
      pair build: half/size/bin/newton
      stencil: half/bin/3d
      bin: standard
Per MPI rank memory allocation (min/avg/max) = 40.07 | 40.07 | 40.07 Mbytes
   Step           Lx             Ly             Lz           Press           Pxx            Pyy            Pzz           KinEng         PotEng          Temp          c_1[1]         c_1[2]         c_1[3]    
         0   9000           100            100            0              0              0              0              0              0              0             -1.5            0              6            
    100000   9000           100            100            0.027361429    3.364031e-20   0              0.082084288    1780749.1      0              8.5986e+13    -1.5            0              3.3186792    
    200000   9000           100            100            0.010465593    8.6550899e-21  0              0.03139678     489413.94      0              2.3632048e+13 -1.5            0              3.0558711    
    300000   9000           100            100            0.0024701032   1.8421503e-21  0              0.0074103096   47542.135      0              2.2956396e+12 -1.5            0              3.0364679    
    400000   9000           100            100            0.00088478675 -3.1096908e-21  0              0.0026543602   7440.1886      0              3.5926008e+11 -1.5            0              3.0083064    
    500000   9000           100            100            0.1002794     -5.1349985e-15  0              0.30083819     1984.6933      0              9.5833738e+10 -1.5            0              2.997084     
    600000   9000           100            100            0.013182177   -6.7270551e-16  0              0.039546532    217.52925      0              1.0503709e+10 -1.5            0              2.9992498    
    700000   9000           100            100            0.042324771   -2.1830146e-15  0              0.12697431     6.7936555      0              3.2804131e+08 -1.5            0              2.9983552    
    800000   9000           100            100            0.030301992   -1.5655297e-15  0              0.090905977    1.0359107      0              50020418      -1.5            0              2.9986829    
    900000   9000           100            100            0.034403117   -1.776145e-15   0              0.10320935     0.089157345    0              4305089.1     -1.5            0              2.998567     
   1000000   9000           100            100            0.032934169   -1.7006494e-15  0              0.098802506    0.0058998517   0              284882.72     -1.5            0              2.998608     
   1100000   9000           100            100            0.033453607   -1.7273715e-15  0              0.10036082     0.00029124964  0              14063.403     -1.5            0              2.9985934    
   1200000   9000           100            100            0.033269942   -1.717914e-15   0              0.099809826    6.1237941e-06  0              295.6961      -1.5            0              2.9985986    
   1300000   9000           100            100            0.03333451    -1.7212419e-15  0              0.10000353     1.3238801e-07  0              6.3925434     -1.5            0              2.9985968    
   1400000   9000           100            100            0.033311896   -1.7200753e-15  0              0.099935687    3.1176465e-07  0              15.053999     -1.5            0              2.9985974    
   1500000   9000           100            100            0.033319781   -1.7204825e-15  0              0.099959343    1.1958131e-07  0              5.7741537     -1.5            0              2.9985972    
   1600000   9000           100            100            0.033317043   -1.7203409e-15  0              0.099951129    3.0021274e-08  0              1.4496199     -1.5            0              2.9985972    
   1700000   9000           100            100            0.033317989   -1.7203899e-15  0              0.099953968    6.1953742e-09  0              0.29915245    -1.5            0              2.9985972    
   1800000   9000           100            100            0.033317664   -1.720373e-15   0              0.099952991    1.140313e-09   0              0.055061633   -1.5            0              2.9985972    
   1900000   9000           100            100            0.033317775   -1.7203788e-15  0              0.099953326    1.9464124e-10  0              0.0093985287  -1.5            0              2.9985972    
   2000000   9000           100            100            0.033317737   -1.7203769e-15  0              0.099953212    3.1472836e-11  0              0.0015197106  -1.5            0              2.9985972    
   2100000   9000           100            100            0.03331775    -1.7203775e-15  0              0.099953251    4.8864547e-12  0              0.00023594941 -1.5            0              2.9985972    
   2200000   9000           100            100            0.033317746   -1.7203773e-15  0              0.099953238    7.332467e-13   0              3.5405859e-05 -1.5            0              2.9985972    
   2300000   9000           100            100            0.033317747   -1.7203774e-15  0              0.099953242    1.0812886e-13  0              5.2211557e-06 -1.5            0              2.9985972    
   2400000   9000           100            100            0.033317747   -1.7203773e-15  0              0.099953241    1.5434521e-14  0              7.452778e-07  -1.5            0              2.9985972    
   2500000   9000           100            100            0.033317747   -1.7203774e-15  0              0.099953241    2.1170116e-15  0              1.0222292e-07 -1.5            0              2.9985972    
   2600000   9000           100            100            0.033317747   -1.7203774e-15  0              0.099953241    2.4626102e-16  0              1.1891063e-08 -1.5            0              2.9985972    
   2700000   9000           100            100            0.033317747   -1.7203774e-15  0              0.099953241    5.4700913e-18  0              2.6413113e-10 -1.5            0              2.9985972    
   2800000   9000           100            100            0.033317747   -1.7203774e-15  0              0.099953241    5.9479241e-18  0              2.8720397e-10 -1.5            0              2.9985972    
   2900000   9000           100            100            0.033317747   -1.7203774e-15  0              0.099953241    1.1172219e-17  0              5.3946648e-10 -1.5            0              2.9985972    
   3000000   9000           100            100            0.033317747   -1.7203774e-15  0              0.099953241    1.1595195e-17  0              5.5989047e-10 -1.5            0              2.9985972    
Loop time of 711.383 on 4 procs for 3000000 steps with 6000 atoms

Performance: 3643606.649 ns/day, 0.000 hours/ns, 4217.137 timesteps/s
99.9% CPU use with 4 MPI tasks x 1 OpenMP threads

MPI task timing breakdown:
Section |  min time  |  avg time  |  max time  |%varavg| %total
---------------------------------------------------------------
Pair    | 314.38     | 319.72     | 322.8      |  18.8 | 44.94
Neigh   | 1.6034     | 1.6204     | 1.6362     |   1.2 |  0.23
Comm    | 35.901     | 39.219     | 44.462     |  56.1 |  5.51
Output  | 0.44936    | 0.44956    | 0.44999    |   0.0 |  0.06
Modify  | 304.71     | 307.67     | 310.15     |  12.7 | 43.25
Other   |            | 42.71      |            |       |  6.00

Nlocal:           1500 ave        1500 max        1500 min
Histogram: 4 0 0 0 0 0 0 0 0 0
Nghost:              6 ave           6 max           6 min
Histogram: 4 0 0 0 0 0 0 0 0 0
Neighs:           2250 ave        2250 max        2250 min
Histogram: 4 0 0 0 0 0 0 0 0 0

Total # of neighbors = 9000
Ave neighs/atom = 1.5
Neighbor list builds = 168
Dangerous builds = 0

undump D1


clear
  using 1 OpenMP thread(s) per MPI task

next num

jump SELF startloop

include granular.in
### Simulation of contact between two chain

##################### Simulation setup ####################

units micro                              # units
dimension	3                            # dimension
boundary	p p p                        # boundary condition p: periodic
atom_style	sphere                       # atom style
#processors * * 1

####################### Parameter ##################################

variable ind equal ${num}
variable ind equal 5

variable lat1 equal 3 #*(2^(1/2))
variable lat2 equal 3
variable d1 equal 3                      # Diamter of particle at bottom chain
variable d2 equal 3                      # Diamter of particle at upper chain

variable n2e1 equal 1500*v_lat1              # Half length of top chain. 1500 is number of particles
variable n1e1 equal v_n2e1*(v_lat1/v_lat2)              # Half length of bottom chain, which is 1.5 time larger than top chain
variable n1e2 equal -v_n1e1
variable n2e2 equal -v_n2e1
#variable x_shift equal -0.25*v_d1

variable den equal 2.2 #grams/cm^3      # micrometer^3=10^-12 cm^3 Density of materials

variable V1 equal (1/6)*PI*(v_d1^3)     # Volume of particle 1
variable V2 equal (1/6)*PI*(v_d2^3)     # Volume of particle 2

variable mass1 equal v_den*v_V1  # Mass of particle 1 (picograms)
variable mass2 equal v_den*v_V2  # Mass of particle 2 (picograms)

# E GPa to picogram/(micrometer-microsecond^2)= 10^3 Pa= 10^-6 GPa
# Force unit(picogram-micrometer/microsecond^2)=10^-9 N= 1nN
# Spring stiffness (force/distance) 10^-3 N/m


variable E equal (10+(5*v_ind))*(10^6)                    # Young's Modulus using for Hertz/material model
variable PR equal 0.3                          # Poisson's ratio using for Hertz/material model
variable Fn equal -1000                        # Force apply to each particles in top chain
variable dt equal 0.00001                      # Time step units microsecond
variable lgv equal 0.5                         #damping for langevin thermostat for slider



################### Creating the model #################################
lattice sc ${lat1}                                                               # Bottom chain type1
lattice sc 3                                                               
Lattice spacing in x,y,z = 3 3 3

region box block ${n1e2} ${n1e1} -50 50 -50 50 units box
region box block -4500 ${n1e1} -50 50 -50 50 units box
region box block -4500 4500 -50 50 -50 50 units box
region substrate block ${n1e2} ${n1e1} -0.1 0.1 0 0.1 units box
region substrate block -4500 ${n1e1} -0.1 0.1 0 0.1 units box
region substrate block -4500 4500 -0.1 0.1 0 0.1 units box

create_box 2 box
Created orthogonal box = (-4500 -50 -50) to (4500 50 50)
  4 by 1 by 1 MPI processor grid
create_atoms 1 region substrate
Created 3000 atoms
  using lattice units in orthogonal box = (-4500 -50 -50) to (4500 50 50)
  create_atoms CPU = 0.001 seconds

lattice sc ${lat2}                                                             # Top chain type2
lattice sc 3                                                             
Lattice spacing in x,y,z = 3 3 3

region slider1 block ${n2e2} ${n2e1} -0.1 0.1 5.9 6.1 units box
region slider1 block -4500 ${n2e1} -0.1 0.1 5.9 6.1 units box
region slider1 block -4500 4500 -0.1 0.1 5.9 6.1 units box

create_atoms 2 region slider1
Created 3000 atoms
  using lattice units in orthogonal box = (-4500 -50 -50) to (4500 50 50)
  create_atoms CPU = 0.001 seconds


set type 1 diameter ${d1}                    # Set mass and diameter for each particles type
set type 1 diameter 3                    
Setting atom values ...
  3000 settings made for diameter
set type 1 mass ${mass1}
set type 1 mass 31.101767270539
Setting atom values ...
  3000 settings made for mass
set type 2 diameter ${d2}                    # Set mass and diameter for each particles type
set type 2 diameter 3                    
Setting atom values ...
  3000 settings made for diameter
set type 2 mass ${mass2}
set type 2 mass 31.101767270539
Setting atom values ...
  3000 settings made for mass


group substrate region substrate           # Define gorup
3000 atoms in group substrate
group slider1 region slider1
3000 atoms in group slider1
#displace_atoms slider1 move ${x_shift} 0.0 0.0
#group substrate_slider union substrate slider1

########################## Potential ###################################
pair_style granular
pair_coeff 1 1 hertz/material 0.00000001 0.001 ${PR} tangential mindlin NULL 0.1 0.01 damping viscoelastic
pair_coeff 1 1 hertz/material 0.00000001 0.001 0.3 tangential mindlin NULL 0.1 0.01 damping viscoelastic
pair_coeff 2 2 hertz/material 0.00000001 0.001 ${PR} tangential mindlin NULL 0.1 0.01 damping viscoelastic
pair_coeff 2 2 hertz/material 0.00000001 0.001 0.3 tangential mindlin NULL 0.1 0.01 damping viscoelastic
pair_coeff 1 2 hertz/material ${E} 0.001 ${PR} tangential mindlin NULL 0.1 0.01 damping viscoelastic
pair_coeff 1 2 hertz/material 35000000 0.001 ${PR} tangential mindlin NULL 0.1 0.01 damping viscoelastic
pair_coeff 1 2 hertz/material 35000000 0.001 0.3 tangential mindlin NULL 0.1 0.01 damping viscoelastic

comm_modify     vel yes
neigh_modify    delay 0 every 1 check yes

### Compute properties ###

compute 1 slider1 com                      # Compute the center of mass of top chain

variable p0 equal "step"

variable slider_z equal "c_1[3]"          # output the position of top chain in z-direction


thermo 100000
thermo_style custom step lx ly lz press pxx pyy pzz ke pe temp c_1[1] c_1[2] c_1[3]

############### Fix ##################


############## Equilibrium the system with apply force ########################

fix force_slider1 slider1 setforce NULL 0 NULL                                # Fix top chain not to move in y-direction

fix f_sub substrate freeze                                                    # Freeze the bottom chain

#fix nve_slider1 slider1 nve                   # Integrate motion for slider1 group
#fix lan_slider slider1 langevin 0 0 ${lgv} 6987532
fix rigid_top slider1 rigid/nve group 1 slider1 langevin 0 0 ${lgv} 6987532   # NVE+langevin
fix rigid_top slider1 rigid/nve group 1 slider1 langevin 0 0 0.5 6987532   
  1 rigid bodies with 3000 atoms

fix add slider1 addforce 0 0 ${Fn} every 1                                    # Add force to top layer
fix add slider1 addforce 0 0 -1000 every 1                                    

timestep ${dt}
timestep 1e-05

dump 		D1 all custom 100000 Equi_${num}_*.dump id type diameter mass xu yu zu fx fy fz
dump 		D1 all custom 100000 Equi_5_*.dump id type diameter mass xu yu zu fx fy fz
dump_modify D1 format 5 %.12g
dump_modify D1 format 7 %.12g

run 3000000
Generated 0 of 1 mixed pair_coeff terms from geometric mixing rule
Neighbor list info ...
  update every 1 steps, delay 0 steps, check yes
  max neighbors/atom: 2000, page size: 100000
  master list distance cutoff = 3.1
  ghost atom cutoff = 3.1
  binsize = 1.55, bins = 5807 65 65
  1 neighbor lists, perpetual/occasional/extra = 1 0 0
  (1) pair granular, perpetual
      attributes: half, newton on, size, history
      pair build: half/size/bin/newton
      stencil: half/bin/3d
      bin: standard
Per MPI rank memory allocation (min/avg/max) = 40.07 | 40.07 | 40.07 Mbytes
   Step           Lx             Ly             Lz           Press           Pxx            Pyy            Pzz           KinEng         PotEng          Temp          c_1[1]         c_1[2]         c_1[3]    
         0   9000           100            100            0              0              0              0              0              0              0             -1.5            0              6            
    100000   9000           100            100            0.027413218    3.4223472e-20  0              0.082239653    1785714.4      0              8.6225757e+13 -1.5            0              3.3175718    
    200000   9000           100            100            0.010563859    8.5732752e-21  0              0.031691578    496532.13      0              2.3975759e+13 -1.5            0              3.0540833    
    300000   9000           100            100            0.0026162509   2.1740176e-21  0              0.0078487528   52587.858      0              2.5392795e+12 -1.5            0              3.0353507    
    400000   9000           100            100            0.0011769467  -2.5032543e-21  0              0.0035308401   12684.159      0              6.1247265e+11 -1.5            0              3.0068933    
    500000   9000           100            100            0.017793207   -9.7535907e-16  0              0.053379622    6239.1928      0              3.0126829e+11 -1.5            0              2.9991439    
    600000   9000           100            100            0.053627042   -2.7508574e-15  0              0.16088113     481.18288      0              2.3234599e+10 -1.5            0              2.9982663    
    700000   9000           100            100            0.034000199   -1.747398e-15   0              0.1020006      111.11561      0              5.3653749e+09 -1.5            0              2.9987197    
    800000   9000           100            100            0.034594025   -1.7826726e-15  0              0.10378208     11.986135      0              5.7876757e+08 -1.5            0              2.998703     
    900000   9000           100            100            0.034182557   -1.763122e-15   0              0.10254767     0.86340446     0              41690711      -1.5            0              2.9987127    
   1000000   9000           100            100            0.033719503   -1.739748e-15   0              0.10115851     0.028224848    0              1362876.9     -1.5            0              2.9987242    
   1100000   9000           100            100            0.033469783   -1.7269882e-15  0              0.10040935     4.5752156e-05  0              2209.2079     -1.5            0              2.9987304    
   1200000   9000           100            100            0.033366566   -1.7216791e-15  0              0.1000997      0.00062791488  0              30319.762     -1.5            0              2.998733     
   1300000   9000           100            100            0.033331078   -1.7198433e-15  0              0.099993234    0.0002327775   0              11239.992     -1.5            0              2.9987339    
   1400000   9000           100            100            0.033321018   -1.7193191e-15  0              0.099963054    4.4978541e-05  0              2171.8528     -1.5            0              2.9987342    
   1500000   9000           100            100            0.033318935   -1.719209e-15   0              0.099956806    5.8787947e-06  0              283.86596     -1.5            0              2.9987342    
   1600000   9000           100            100            0.033318839   -1.7192029e-15  0              0.099956517    5.3236956e-07  0              25.706221     -1.5            0              2.9987342    
   1700000   9000           100            100            0.033319034   -1.7192126e-15  0              0.099957102    2.8703429e-08  0              1.3859859     -1.5            0              2.9987342    
   1800000   9000           100            100            0.033319171   -1.7192196e-15  0              0.099957514    3.5259473e-10  0              0.017025538   -1.5            0              2.9987342    
   1900000   9000           100            100            0.033319235   -1.7192228e-15  0              0.099957706    7.8223214e-11  0              0.003777119   -1.5            0              2.9987342    
   2000000   9000           100            100            0.03331926    -1.7192241e-15  0              0.099957779    6.3947624e-11  0              0.0030878019  -1.5            0              2.9987342    
   2100000   9000           100            100            0.033319267   -1.7192245e-15  0              0.099957801    1.6363079e-11  0              0.00079011455 -1.5            0              2.9987342    
   2200000   9000           100            100            0.033319269   -1.7192246e-15  0              0.099957807    2.5929975e-12  0              0.00012520657 -1.5            0              2.9987342    
   2300000   9000           100            100            0.033319269   -1.7192246e-15  0              0.099957808    2.8688089e-13  0              1.3852452e-05 -1.5            0              2.9987342    
   2400000   9000           100            100            0.033319269   -1.7192246e-15  0              0.099957808    2.0969911e-14  0              1.012562e-06  -1.5            0              2.9987342    
   2500000   9000           100            100            0.033319269   -1.7192246e-15  0              0.099957808    8.3923062e-16  0              4.0523443e-08 -1.5            0              2.9987342    
   2600000   9000           100            100            0.033319269   -1.7192246e-15  0              0.099957808    6.3225525e-17  0              3.0529343e-09 -1.5            0              2.9987342    
   2700000   9000           100            100            0.033319269   -1.7192246e-15  0              0.099957808    4.0741652e-17  0              1.9672686e-09 -1.5            0              2.9987342    
   2800000   9000           100            100            0.033319269   -1.7192246e-15  0              0.099957808    1.3434202e-17  0              6.4868952e-10 -1.5            0              2.9987342    
   2900000   9000           100            100            0.033319269   -1.7192246e-15  0              0.099957808    8.4478193e-18  0              4.0791496e-10 -1.5            0              2.9987342    
   3000000   9000           100            100            0.033319269   -1.7192246e-15  0              0.099957808    1.9050468e-20  0              9.1987891e-13 -1.5            0              2.9987342    
Loop time of 716.933 on 4 procs for 3000000 steps with 6000 atoms

Performance: 3615401.412 ns/day, 0.000 hours/ns, 4184.492 timesteps/s
100.0% CPU use with 4 MPI tasks x 1 OpenMP threads

MPI task timing breakdown:
Section |  min time  |  avg time  |  max time  |%varavg| %total
---------------------------------------------------------------
Pair    | 313.61     | 320.5      | 332.27     |  40.0 | 44.70
Neigh   | 1.5991     | 1.6145     | 1.6309     |   1.2 |  0.23
Comm    | 35.774     | 44.146     | 53.381     |  99.2 |  6.16
Output  | 0.4455     | 0.44566    | 0.44597    |   0.0 |  0.06
Modify  | 305.84     | 309.21     | 316.7      |  24.8 | 43.13
Other   |            | 41.02      |            |       |  5.72

Nlocal:           1500 ave        1500 max        1500 min
Histogram: 4 0 0 0 0 0 0 0 0 0
Nghost:              6 ave           6 max           6 min
Histogram: 4 0 0 0 0 0 0 0 0 0
Neighs:           2250 ave        2250 max        2250 min
Histogram: 4 0 0 0 0 0 0 0 0 0

Total # of neighbors = 9000
Ave neighs/atom = 1.5
Neighbor list builds = 168
Dangerous builds = 0

undump D1


clear
  using 1 OpenMP thread(s) per MPI task

next num

jump SELF startloop

include granular.in
### Simulation of contact between two chain

##################### Simulation setup ####################

units micro                              # units
dimension	3                            # dimension
boundary	p p p                        # boundary condition p: periodic
atom_style	sphere                       # atom style
#processors * * 1

####################### Parameter ##################################

variable ind equal ${num}
variable ind equal 6

variable lat1 equal 3 #*(2^(1/2))
variable lat2 equal 3
variable d1 equal 3                      # Diamter of particle at bottom chain
variable d2 equal 3                      # Diamter of particle at upper chain

variable n2e1 equal 1500*v_lat1              # Half length of top chain. 1500 is number of particles
variable n1e1 equal v_n2e1*(v_lat1/v_lat2)              # Half length of bottom chain, which is 1.5 time larger than top chain
variable n1e2 equal -v_n1e1
variable n2e2 equal -v_n2e1
#variable x_shift equal -0.25*v_d1

variable den equal 2.2 #grams/cm^3      # micrometer^3=10^-12 cm^3 Density of materials

variable V1 equal (1/6)*PI*(v_d1^3)     # Volume of particle 1
variable V2 equal (1/6)*PI*(v_d2^3)     # Volume of particle 2

variable mass1 equal v_den*v_V1  # Mass of particle 1 (picograms)
variable mass2 equal v_den*v_V2  # Mass of particle 2 (picograms)

# E GPa to picogram/(micrometer-microsecond^2)= 10^3 Pa= 10^-6 GPa
# Force unit(picogram-micrometer/microsecond^2)=10^-9 N= 1nN
# Spring stiffness (force/distance) 10^-3 N/m


variable E equal (10+(5*v_ind))*(10^6)                    # Young's Modulus using for Hertz/material model
variable PR equal 0.3                          # Poisson's ratio using for Hertz/material model
variable Fn equal -1000                        # Force apply to each particles in top chain
variable dt equal 0.00001                      # Time step units microsecond
variable lgv equal 0.5                         #damping for langevin thermostat for slider



################### Creating the model #################################
lattice sc ${lat1}                                                               # Bottom chain type1
lattice sc 3                                                               
Lattice spacing in x,y,z = 3 3 3

region box block ${n1e2} ${n1e1} -50 50 -50 50 units box
region box block -4500 ${n1e1} -50 50 -50 50 units box
region box block -4500 4500 -50 50 -50 50 units box
region substrate block ${n1e2} ${n1e1} -0.1 0.1 0 0.1 units box
region substrate block -4500 ${n1e1} -0.1 0.1 0 0.1 units box
region substrate block -4500 4500 -0.1 0.1 0 0.1 units box

create_box 2 box
Created orthogonal box = (-4500 -50 -50) to (4500 50 50)
  4 by 1 by 1 MPI processor grid
create_atoms 1 region substrate
Created 3000 atoms
  using lattice units in orthogonal box = (-4500 -50 -50) to (4500 50 50)
  create_atoms CPU = 0.001 seconds

lattice sc ${lat2}                                                             # Top chain type2
lattice sc 3                                                             
Lattice spacing in x,y,z = 3 3 3

region slider1 block ${n2e2} ${n2e1} -0.1 0.1 5.9 6.1 units box
region slider1 block -4500 ${n2e1} -0.1 0.1 5.9 6.1 units box
region slider1 block -4500 4500 -0.1 0.1 5.9 6.1 units box

create_atoms 2 region slider1
Created 3000 atoms
  using lattice units in orthogonal box = (-4500 -50 -50) to (4500 50 50)
  create_atoms CPU = 0.001 seconds


set type 1 diameter ${d1}                    # Set mass and diameter for each particles type
set type 1 diameter 3                    
Setting atom values ...
  3000 settings made for diameter
set type 1 mass ${mass1}
set type 1 mass 31.101767270539
Setting atom values ...
  3000 settings made for mass
set type 2 diameter ${d2}                    # Set mass and diameter for each particles type
set type 2 diameter 3                    
Setting atom values ...
  3000 settings made for diameter
set type 2 mass ${mass2}
set type 2 mass 31.101767270539
Setting atom values ...
  3000 settings made for mass


group substrate region substrate           # Define gorup
3000 atoms in group substrate
group slider1 region slider1
3000 atoms in group slider1
#displace_atoms slider1 move ${x_shift} 0.0 0.0
#group substrate_slider union substrate slider1

########################## Potential ###################################
[...]
   1400000   9000           100            100            0.033309171   -1.717782e-15   0              0.099927513    4.4186978e-07  0              21.33631      -1.5            0              2.9996106    
   1500000   9000           100            100            0.033321894   -1.7184383e-15  0              0.099965682    6.1946568e-08  0              2.9911781     -1.5            0              2.9996105    
   1600000   9000           100            100            0.033326456   -1.7186735e-15  0              0.099979367    8.6533067e-09  0              0.41783721    -1.5            0              2.9996105    
   1700000   9000           100            100            0.033328091   -1.7187579e-15  0              0.099984273    1.2047301e-09  0              0.058172107   -1.5            0              2.9996105    
   1800000   9000           100            100            0.033328677   -1.7187881e-15  0              0.099986032    1.6716531e-10  0              0.0080718147  -1.5            0              2.9996105    
   1900000   9000           100            100            0.033328888   -1.718799e-15   0              0.099986663    2.3144647e-11  0              0.0011175722  -1.5            0              2.9996104    
   2000000   9000           100            100            0.033328963   -1.7188029e-15  0              0.099986889    3.1927102e-12  0              0.00015416455 -1.5            0              2.9996104    
   2100000   9000           100            100            0.03332899    -1.7188043e-15  0              0.09998697     4.3514994e-13  0              2.1011833e-05 -1.5            0              2.9996104    
   2200000   9000           100            100            0.033329      -1.7188048e-15  0              0.099986999    6.0158751e-14  0              2.9048508e-06 -1.5            0              2.9996104    
   2300000   9000           100            100            0.033329003   -1.7188049e-15  0              0.099987009    8.2651725e-15  0              3.990956e-07  -1.5            0              2.9996104    
   2400000   9000           100            100            0.033329004   -1.718805e-15   0              0.099987013    1.0640033e-15  0              5.1376911e-08 -1.5            0              2.9996104    
   2500000   9000           100            100            0.033329005   -1.718805e-15   0              0.099987014    1.6700549e-16  0              8.0640974e-09 -1.5            0              2.9996104    
   2600000   9000           100            100            0.033329005   -1.718805e-15   0              0.099987015    7.8689371e-17  0              3.7996281e-09 -1.5            0              2.9996104    
   2700000   9000           100            100            0.033329005   -1.718805e-15   0              0.099987015    6.7402014e-17  0              3.254602e-09  -1.5            0              2.9996104    
   2800000   9000           100            100            0.033329005   -1.718805e-15   0              0.099987015    8.3946467e-18  0              4.0534745e-10 -1.5            0              2.9996104    
   2900000   9000           100            100            0.033329005   -1.718805e-15   0              0.099987015    1.2026981e-17  0              5.8073986e-10 -1.5            0              2.9996104    
   3000000   9000           100            100            0.033329005   -1.7188051e-15  0              0.099987015    5.36724e-18    0              2.5916481e-10 -1.5            0              2.9996104    
Loop time of 661.249 on 4 procs for 3000000 steps with 6000 atoms

Performance: 3919856.028 ns/day, 0.000 hours/ns, 4536.870 timesteps/s
100.0% CPU use with 4 MPI tasks x 1 OpenMP threads

MPI task timing breakdown:
Section |  min time  |  avg time  |  max time  |%varavg| %total
---------------------------------------------------------------
Pair    | 265.28     | 272.01     | 278.82     |  34.0 | 41.14
Neigh   | 1.664      | 1.6786     | 1.6928     |   1.1 |  0.25
Comm    | 34.927     | 40.419     | 46.59      |  84.3 |  6.11
Output  | 0.43499    | 0.43515    | 0.43547    |   0.0 |  0.07
Modify  | 302.22     | 304.11     | 305.14     |   6.4 | 45.99
Other   |            | 42.6       |            |       |  6.44

Nlocal:           1500 ave        1500 max        1500 min
Histogram: 4 0 0 0 0 0 0 0 0 0
Nghost:              6 ave           6 max           6 min
Histogram: 4 0 0 0 0 0 0 0 0 0
Neighs:           2250 ave        2250 max        2250 min
Histogram: 4 0 0 0 0 0 0 0 0 0

Total # of neighbors = 9000
Ave neighs/atom = 1.5
Neighbor list builds = 174
Dangerous builds = 0

undump D1


clear
  using 1 OpenMP thread(s) per MPI task

next num

jump SELF startloop

include granular.in
### Simulation of contact between two chain

##################### Simulation setup ####################

units micro                              # units
dimension	3                            # dimension
boundary	p p p                        # boundary condition p: periodic
atom_style	sphere                       # atom style
#processors * * 1

####################### Parameter ##################################

variable ind equal ${num}
variable ind equal 40

variable lat1 equal 3 #*(2^(1/2))
variable lat2 equal 3
variable d1 equal 3                      # Diamter of particle at bottom chain
variable d2 equal 3                      # Diamter of particle at upper chain

variable n2e1 equal 1500*v_lat1              # Half length of top chain. 1500 is number of particles
variable n1e1 equal v_n2e1*(v_lat1/v_lat2)              # Half length of bottom chain, which is 1.5 time larger than top chain
variable n1e2 equal -v_n1e1
variable n2e2 equal -v_n2e1
#variable x_shift equal -0.25*v_d1

variable den equal 2.2 #grams/cm^3      # micrometer^3=10^-12 cm^3 Density of materials

variable V1 equal (1/6)*PI*(v_d1^3)     # Volume of particle 1
variable V2 equal (1/6)*PI*(v_d2^3)     # Volume of particle 2

variable mass1 equal v_den*v_V1  # Mass of particle 1 (picograms)
variable mass2 equal v_den*v_V2  # Mass of particle 2 (picograms)

# E GPa to picogram/(micrometer-microsecond^2)= 10^3 Pa= 10^-6 GPa
# Force unit(picogram-micrometer/microsecond^2)=10^-9 N= 1nN
# Spring stiffness (force/distance) 10^-3 N/m


variable E equal (10+(5*v_ind))*(10^6)                    # Young's Modulus using for Hertz/material model
variable PR equal 0.3                          # Poisson's ratio using for Hertz/material model
variable Fn equal -1000                        # Force apply to each particles in top chain
variable dt equal 0.00001                      # Time step units microsecond
variable lgv equal 0.5                         #damping for langevin thermostat for slider



################### Creating the model #################################
lattice sc ${lat1}                                                               # Bottom chain type1
lattice sc 3                                                               
Lattice spacing in x,y,z = 3 3 3

region box block ${n1e2} ${n1e1} -50 50 -50 50 units box
region box block -4500 ${n1e1} -50 50 -50 50 units box
region box block -4500 4500 -50 50 -50 50 units box
region substrate block ${n1e2} ${n1e1} -0.1 0.1 0 0.1 units box
region substrate block -4500 ${n1e1} -0.1 0.1 0 0.1 units box
region substrate block -4500 4500 -0.1 0.1 0 0.1 units box

create_box 2 box
Created orthogonal box = (-4500 -50 -50) to (4500 50 50)
  4 by 1 by 1 MPI processor grid
create_atoms 1 region substrate
Created 3000 atoms
  using lattice units in orthogonal box = (-4500 -50 -50) to (4500 50 50)
  create_atoms CPU = 0.001 seconds

lattice sc ${lat2}                                                             # Top chain type2
lattice sc 3                                                             
Lattice spacing in x,y,z = 3 3 3

region slider1 block ${n2e2} ${n2e1} -0.1 0.1 5.9 6.1 units box
region slider1 block -4500 ${n2e1} -0.1 0.1 5.9 6.1 units box
region slider1 block -4500 4500 -0.1 0.1 5.9 6.1 units box

create_atoms 2 region slider1
Created 3000 atoms
  using lattice units in orthogonal box = (-4500 -50 -50) to (4500 50 50)
  create_atoms CPU = 0.001 seconds


set type 1 diameter ${d1}                    # Set mass and diameter for each particles type
set type 1 diameter 3                    
Setting atom values ...
  3000 settings made for diameter
set type 1 mass ${mass1}
set type 1 mass 31.101767270539
Setting atom values ...
  3000 settings made for mass
set type 2 diameter ${d2}                    # Set mass and diameter for each particles type
set type 2 diameter 3                    
Setting atom values ...
  3000 settings made for diameter
set type 2 mass ${mass2}
set type 2 mass 31.101767270539
Setting atom values ...
  3000 settings made for mass


group substrate region substrate           # Define gorup
3000 atoms in group substrate
group slider1 region slider1
3000 atoms in group slider1
#displace_atoms slider1 move ${x_shift} 0.0 0.0
#group substrate_slider union substrate slider1

########################## Potential ###################################
pair_style granular
pair_coeff 1 1 hertz/material 0.00000001 0.001 ${PR} tangential mindlin NULL 0.1 0.01 damping viscoelastic
pair_coeff 1 1 hertz/material 0.00000001 0.001 0.3 tangential mindlin NULL 0.1 0.01 damping viscoelastic
pair_coeff 2 2 hertz/material 0.00000001 0.001 ${PR} tangential mindlin NULL 0.1 0.01 damping viscoelastic
pair_coeff 2 2 hertz/material 0.00000001 0.001 0.3 tangential mindlin NULL 0.1 0.01 damping viscoelastic
pair_coeff 1 2 hertz/material ${E} 0.001 ${PR} tangential mindlin NULL 0.1 0.01 damping viscoelastic
pair_coeff 1 2 hertz/material 210000000 0.001 ${PR} tangential mindlin NULL 0.1 0.01 damping viscoelastic
pair_coeff 1 2 hertz/material 210000000 0.001 0.3 tangential mindlin NULL 0.1 0.01 damping viscoelastic

comm_modify     vel yes
neigh_modify    delay 0 every 1 check yes

### Compute properties ###

compute 1 slider1 com                      # Compute the center of mass of top chain

variable p0 equal "step"

variable slider_z equal "c_1[3]"          # output the position of top chain in z-direction


thermo 100000
thermo_style custom step lx ly lz press pxx pyy pzz ke pe temp c_1[1] c_1[2] c_1[3]

############### Fix ##################


############## Equilibrium the system with apply force ########################

fix force_slider1 slider1 setforce NULL 0 NULL                                # Fix top chain not to move in y-direction

fix f_sub substrate freeze                                                    # Freeze the bottom chain

#fix nve_slider1 slider1 nve                   # Integrate motion for slider1 group
#fix lan_slider slider1 langevin 0 0 ${lgv} 6987532
fix rigid_top slider1 rigid/nve group 1 slider1 langevin 0 0 ${lgv} 6987532   # NVE+langevin
fix rigid_top slider1 rigid/nve group 1 slider1 langevin 0 0 0.5 6987532   
  1 rigid bodies with 3000 atoms

fix add slider1 addforce 0 0 ${Fn} every 1                                    # Add force to top layer
fix add slider1 addforce 0 0 -1000 every 1                                    

timestep ${dt}
timestep 1e-05

dump 		D1 all custom 100000 Equi_${num}_*.dump id type diameter mass xu yu zu fx fy fz
dump 		D1 all custom 100000 Equi_40_*.dump id type diameter mass xu yu zu fx fy fz
dump_modify D1 format 5 %.12g
dump_modify D1 format 7 %.12g

run 3000000
Generated 0 of 1 mixed pair_coeff terms from geometric mixing rule
Neighbor list info ...
  update every 1 steps, delay 0 steps, check yes
  max neighbors/atom: 2000, page size: 100000
  master list distance cutoff = 3.1
  ghost atom cutoff = 3.1
  binsize = 1.55, bins = 5807 65 65
  1 neighbor lists, perpetual/occasional/extra = 1 0 0
  (1) pair granular, perpetual
      attributes: half, newton on, size, history
      pair build: half/size/bin/newton
      stencil: half/bin/3d
      bin: standard
Per MPI rank memory allocation (min/avg/max) = 40.07 | 40.07 | 40.07 Mbytes
   Step           Lx             Ly             Lz           Press           Pxx            Pyy            Pzz           KinEng         PotEng          Temp          c_1[1]         c_1[2]         c_1[3]    
         0   9000           100            100            0              0              0              0              0              0              0             -1.5            0              6            
    100000   9000           100            100            0.027830038    3.5057801e-20  0              0.083490115    1826063.7      0              8.8174079e+13 -1.5            0              3.3079869    
    200000   9000           100            100            0.011387385    1.01044e-20    0              0.034162156    557532.04      0              2.6921227e+13 -1.5            0              3.0377223    
    300000   9000           100            100            0.0038905821   3.2957213e-21  0              0.011671746    104099.05      0              5.0265708e+12 -1.5            0              3.0220933    
    400000   9000           100            100           -0.0011003606  -7.4761446e-22  0             -0.0033010817   16024.795      0              7.7377998e+11 -1.5            0              3.0078002    
    500000   9000           100            100           -0.00025479914 -3.1547134e-21  0             -0.00076439741  729.67071      0              3.5233187e+10 -1.5            0              3.0025662    
    600000   9000           100            100           -0.0001794966  -5.2973521e-21  0             -0.00053848979  357.3134       0              1.7253385e+10 -1.5            0              3.0002196    
    700000   9000           100            100            0.033995984   -1.7649993e-15  0              0.10198795     238.9547       0              1.1538267e+10 -1.5            0              2.9996104    
    800000   9000           100            100            0.026034264   -1.3459303e-15  0              0.078102791    11.66357       0              5.6319204e+08 -1.5            0              2.9996746    
    900000   9000           100            100            0.034509627   -1.7792724e-15  0              0.10352888     3.5129488      0              1.6962772e+08 -1.5            0              2.9996078    
   1000000   9000           100            100            0.033283008   -1.7178681e-15  0              0.099849025    0.51168408     0              24707393      -1.5            0              2.999617     
   1100000   9000           100            100            0.033211431   -1.7134939e-15  0              0.099634294    0.061015027    0              2946197.3     -1.5            0              2.9996176    
   1200000   9000           100            100            0.033414019   -1.7241708e-15  0              0.10024206     0.0059640594   0              287983.09     -1.5            0              2.999616     
   1300000   9000           100            100            0.033285956   -1.7174974e-15  0              0.099857867    0.00044513856  0              21494.148     -1.5            0              2.999617     
   1400000   9000           100            100            0.033347679   -1.7206983e-15  0              0.10004304     2.0464146e-05  0              988.14036     -1.5            0              2.9996165    
   1500000   9000           100            100            0.033321877   -1.7193643e-15  0              0.099965632    1.4768144e-07  0              7.131008      -1.5            0              2.9996167    
   1600000   9000           100            100            0.033331611   -1.7198663e-15  0              0.099994832    1.0149512e-07  0              4.9008363     -1.5            0              2.9996166    
   1700000   9000           100            100            0.033328262   -1.719694e-15   0              0.099984787    7.1631466e-08  0              3.4588271     -1.5            0              2.9996167    
   1800000   9000           100            100            0.033329304   -1.7197475e-15  0              0.099987911    2.0262403e-08  0              0.9783989     -1.5            0              2.9996167    
   1900000   9000           100            100            0.033329021   -1.719733e-15   0              0.099987063    3.9786284e-09  0              0.19211373    -1.5            0              2.9996167    
   2000000   9000           100            100            0.033329081   -1.719736e-15   0              0.099987242    6.1987981e-10  0              0.029931777   -1.5            0              2.9996167    
   2100000   9000           100            100            0.033329076   -1.7197358e-15  0              0.099987228    7.9885596e-11  0              0.0038573895  -1.5            0              2.9996167    
   2200000   9000           100            100            0.033329072   -1.7197356e-15  0              0.099987215    8.540221e-12   0              0.00041237671 -1.5            0              2.9996167    
   2300000   9000           100            100            0.033329075   -1.7197358e-15  0              0.099987226    7.2297136e-13  0              3.49097e-05   -1.5            0              2.9996167    
   2400000   9000           100            100            0.033329073   -1.7197357e-15  0              0.09998722     4.1747028e-14  0              2.0158146e-06 -1.5            0              2.9996167    
   2500000   9000           100            100            0.033329074   -1.7197357e-15  0              0.099987223    1.0179988e-15  0              4.9155518e-08 -1.5            0              2.9996167    
   2600000   9000           100            100            0.033329074   -1.7197357e-15  0              0.099987222    2.0158361e-19  0              9.7337509e-12 -1.5            0              2.9996167    
   2700000   9000           100            100            0.033329074   -1.7197357e-15  0              0.099987222    2.060641e-16   0              9.9500979e-09 -1.5            0              2.9996167    
   2800000   9000           100            100            0.033329074   -1.7197357e-15  0              0.099987222    3.5036821e-17  0              1.6918027e-09 -1.5            0              2.9996167    
   2900000   9000           100            100            0.033329074   -1.7197357e-15  0              0.099987222    2.124537e-17   0              1.0258629e-09 -1.5            0              2.9996167    
   3000000   9000           100            100            0.033329074   -1.7197357e-15  0              0.099987222    6.7781717e-20  0              3.2729365e-12 -1.5            0              2.9996167    
Loop time of 663.065 on 4 procs for 3000000 steps with 6000 atoms

Performance: 3909119.086 ns/day, 0.000 hours/ns, 4524.443 timesteps/s
100.0% CPU use with 4 MPI tasks x 1 OpenMP threads

MPI task timing breakdown:
Section |  min time  |  avg time  |  max time  |%varavg| %total
---------------------------------------------------------------
Pair    | 265.67     | 272.42     | 279.97     |  35.3 | 41.08
Neigh   | 1.6224     | 1.6377     | 1.6541     |   1.2 |  0.25
Comm    | 33.1       | 40.145     | 47.48      | 105.1 |  6.05
Output  | 0.43386    | 0.43418    | 0.43489    |   0.1 |  0.07
Modify  | 304.04     | 305.89     | 309.08     |  11.0 | 46.13
Other   |            | 42.54      |            |       |  6.42

Nlocal:           1500 ave        1500 max        1500 min
Histogram: 4 0 0 0 0 0 0 0 0 0
Nghost:              6 ave           6 max           6 min
Histogram: 4 0 0 0 0 0 0 0 0 0
Neighs:           2250 ave        2250 max        2250 min
Histogram: 4 0 0 0 0 0 0 0 0 0

Total # of neighbors = 9000
Ave neighs/atom = 1.5
Neighbor list builds = 174
Dangerous builds = 0

undump D1


clear
  using 1 OpenMP thread(s) per MPI task

next num

jump SELF startloop
Total wall time: 7:33:30
