LAMMPS (23 Jun 2022 - Update 1)
  using 1 OpenMP thread(s) per MPI task
Lattice spacing in x,y,z = 4 4 4
Created orthogonal box = (-1500 -100 -100) to (1500 100 100)
  2 by 1 by 1 MPI processor grid
Created 750 atoms
  using lattice units in orthogonal box = (-1500 -100 -100) to (1500 100 100)
  create_atoms CPU = 0.001 seconds
Lattice spacing in x,y,z = 3 3 3
Created 501 atoms
  using lattice units in orthogonal box = (-1500 -100 -100) to (1500 100 100)
  create_atoms CPU = 0.000 seconds
Setting atom values ...
  750 settings made for diameter
Setting atom values ...
  750 settings made for mass
Setting atom values ...
  501 settings made for diameter
Setting atom values ...
  501 settings made for mass
750 atoms in group substrate
501 atoms in group slider1
  1 rigid bodies with 501 atoms
Generated 0 of 1 mixed pair_coeff terms from geometric mixing rule
Neighbor list info ...
  update every 1 steps, delay 0 steps, check yes
  max neighbors/atom: 2000, page size: 100000
  master list distance cutoff = 3.1
  ghost atom cutoff = 3.1
  binsize = 1.55, bins = 1936 130 130
  1 neighbor lists, perpetual/occasional/extra = 1 0 0
  (1) pair granular, perpetual
      attributes: half, newton on, size, history
      pair build: half/size/bin/newton
      stencil: half/bin/3d
      bin: standard
Setting up Verlet run ...
  Unit style    : micro
  Current step  : 0
  Time step     : 1e-05
Per MPI rank memory allocation (min/avg/max) = 80.49 | 80.49 | 80.49 Mbytes
   Step           Lx             Ly             Lz           Press           Pxx            Pyy            Pzz           KinEng         PotEng          Temp          c_1[1]         c_1[2]         c_1[3]    
         0   3000           200            200            0              0              0              0              0              0              0              0              0              6            
    100000   3000           200            200            0.0034161726   5.1748693e-42  0              0.010248518    295686.94      0              5.7110657e+10  0              0              3.3255478    
    200000   3000           200            200            0.0012523064  -1.6828967e-36  0              0.0037569193   75991.877      0              1.4677503e+10  0              0              3.0707333    
    300000   3000           200            200            0.00019026192 -8.4145139e-37  0              0.00057078575  3312.193       0              6.3973579e+08  0              0              3.0462833    
    400000   3000           200            200           -9.6352554e-05  1.6577096e-45  0             -0.00028905766  1219.7761      0              2.3559449e+08  0              0              3.0083341    
    500000   3000           200            200            0.0026877149  -1.0518142e-37  0              0.0080631447   1096.2463      0              2.1173524e+08  0              0              2.9988477    
    600000   3000           200            200            0.00604939    -8.4145155e-37  0              0.01814817     115.93128      0              22391627       0              0              2.9979753    
    700000   3000           200            200            0.0030362812  -4.2072581e-37  0              0.0091088437   1.2782834      0              246894.93      0              0              2.9987159    
    800000   3000           200            200            0.0043216072   4.2072583e-37  0              0.012964822    2.6561278      0              513019.63      0              0              2.9983751    
    900000   3000           200            200            0.004326122    1.3147682e-37  0              0.012978366    0.050972379    0              9845.095       0              0              2.9983753    
   1000000   3000           200            200            0.0041524192   1.3147682e-38  0              0.012457258    0.04797784     0              9266.7128      0              0              2.9984192    
   1100000   3000           200            200            0.0041520578   4.4702118e-37  0              0.012456173    0.00081893486  0              158.17373      0              0              2.9984191    
   1200000   3000           200            200            0.0041753537   1.3147682e-38  0              0.012526061    0.00088640517  0              171.20533      0              0              2.9984131    
   1300000   3000           200            200            0.0041756098   1.3147682e-38  0              0.012526829    1.3011265e-05  0              2.5130696      0              0              2.9984131    
   1400000   3000           200            200            0.0041724711  -2.6295364e-38  0              0.012517413    1.6338396e-05  0              3.1556906      0              0              2.9984139    
   1500000   3000           200            200            0.0041724103   2.1036291e-37  0              0.012517231    2.041221e-07   0              0.039425302    0              0              2.9984139    
   1600000   3000           200            200            0.0041728326  -2.6295364e-38  0              0.012518498    3.0085398e-07  0              0.058108648    0              0              2.9984138    
   1700000   3000           200            200            0.0041728444  -2.2351059e-37  0              0.012518533    3.162623e-09   0              0.00061084699  0              0              2.9984138    
   1800000   3000           200            200            0.0041727876   9.6500427e-49  0              0.012518363    5.5333894e-09  0              0.0010687503   0              0              2.9984138    
   1900000   3000           200            200            0.0041727855  -1.3147682e-38  0              0.012518357    4.8276111e-11  0              9.3243225e-06  0              0              2.9984138    
   2000000   3000           200            200            0.0041727932   2.6295364e-37  0              0.01251838     1.0165762e-10  0              1.963473e-05   0              0              2.9984138    
   2100000   3000           200            200            0.0041727935  -1.3147682e-38  0              0.012518381    7.2368869e-13  0              1.3977735e-07  0              0              2.9984138    
   2200000   3000           200            200            0.0041727925   2.1036291e-37  0              0.012518377    1.866327e-12   0              3.60473e-07    0              0              2.9984138    
   2300000   3000           200            200            0.0041727924   1.3147682e-37  0              0.012518377    1.0575105e-14  0              2.0425359e-09  0              0              2.9984138    
   2400000   3000           200            200            0.0041727926   5.2590727e-38  0              0.012518378    3.4108713e-14  0              6.5879506e-09  0              0              2.9984138    
   2500000   3000           200            200            0.0041727926   7.8886091e-38  0              0.012518378    1.6812087e-16  0              3.2471821e-11  0              0              2.9984138    
   2600000   3000           200            200            0.0041727926  -2.4980595e-37  0              0.012518378    6.2681687e-16  0              1.2106697e-10  0              0              2.9984138    
   2700000   3000           200            200            0.0041727926   7.8886091e-38  0              0.012518378    5.0636314e-18  0              9.7801854e-13  0              0              2.9984138    
   2800000   3000           200            200            0.0041727926   1.3948662e-48  0              0.012518378    6.1983094e-18  0              1.1971767e-12  0              0              2.9984138    
   2900000   3000           200            200            0.0041727926   2.6295364e-38  0              0.012518378    2.1523693e-19  0              4.1572084e-14  0              0              2.9984138    
   3000000   3000           200            200            0.0041727926   5.2590727e-38  0              0.012518378    3.7817902e-18  0              7.3043645e-13  0              0              2.9984138    
Loop time of 195.292 on 2 procs for 3000000 steps with 1251 atoms

Performance: 13272406.879 ns/day, 0.000 hours/ns, 15361.582 timesteps/s
99.9% CPU use with 2 MPI tasks x 1 OpenMP threads

MPI task timing breakdown:
Section |  min time  |  avg time  |  max time  |%varavg| %total
---------------------------------------------------------------
Pair    | 49.612     | 49.708     | 49.805     |   1.4 | 25.45
Neigh   | 3.8822     | 3.8832     | 3.8842     |   0.0 |  1.99
Comm    | 15.206     | 15.265     | 15.325     |   1.5 |  7.82
Output  | 0.21123    | 0.21127    | 0.21132    |   0.0 |  0.11
Modify  | 113.03     | 113.33     | 113.64     |   2.9 | 58.03
Other   |            | 12.89      |            |       |  6.60

Nlocal:          625.5 ave         626 max         625 min
Histogram: 1 0 0 0 0 0 0 0 0 1
Nghost:            2.5 ave           3 max           2 min
Histogram: 1 0 0 0 0 0 0 0 0 1
Neighs:          312.5 ave         313 max         312 min
Histogram: 1 0 0 0 0 0 0 0 0 1

Total # of neighbors = 625
Ave neighs/atom = 0.49960032
Neighbor list builds = 168
Dangerous builds = 0
  using 1 OpenMP thread(s) per MPI task
Lattice spacing in x,y,z = 4.01 4.01 4.01
Created orthogonal box = (-1503.75 -100 -100) to (1503.75 100 100)
  2 by 1 by 1 MPI processor grid
Created 750 atoms
  using lattice units in orthogonal box = (-1503.75 -100 -100) to (1503.75 100 100)
  create_atoms CPU = 0.001 seconds
Lattice spacing in x,y,z = 3 3 3
Created 501 atoms
  using lattice units in orthogonal box = (-1503.75 -100 -100) to (1503.75 100 100)
  create_atoms CPU = 0.000 seconds
Setting atom values ...
  750 settings made for diameter
Setting atom values ...
  750 settings made for mass
Setting atom values ...
  501 settings made for diameter
Setting atom values ...
  501 settings made for mass
750 atoms in group substrate
501 atoms in group slider1
  1 rigid bodies with 501 atoms
Generated 0 of 1 mixed pair_coeff terms from geometric mixing rule
Neighbor list info ...
  update every 1 steps, delay 0 steps, check yes
  max neighbors/atom: 2000, page size: 100000
  master list distance cutoff = 3.1
  ghost atom cutoff = 3.1
  binsize = 1.55, bins = 1941 130 130
  1 neighbor lists, perpetual/occasional/extra = 1 0 0
  (1) pair granular, perpetual
      attributes: half, newton on, size, history
      pair build: half/size/bin/newton
      stencil: half/bin/3d
      bin: standard
Setting up Verlet run ...
  Unit style    : micro
  Current step  : 0
  Time step     : 1e-05
Per MPI rank memory allocation (min/avg/max) = 80.7 | 80.7 | 80.7 Mbytes
   Step           Lx             Ly             Lz           Press           Pxx            Pyy            Pzz           KinEng         PotEng          Temp          c_1[1]         c_1[2]         c_1[3]    
         0   3007.5         200            200            0              0              0              0              0              0              0              0              0              6            
    100000   3007.5         200            200            0.0033800501  -1.0072193e-35  0              0.01014015     292363.01      0              5.6468653e+10  0              0              3.3270393    
    200000   3007.5         200            200            0.0011887551  -4.196764e-37   0              0.0035662653   70438.855      0              1.3604961e+10  0              0              3.075266     
    300000   3007.5         200            200            6.7630899e-05  1.6787179e-36  0              0.0002028927   477.10822      0              92151393       0              0              3.0451149    
    400000   3007.5         200            200            0.00017531918  3.3574352e-36  0              0.00052595753  2937.8004      0              5.6742348e+08  0              0              3.000825     
    500000   3007.5         200            200            0.00078905197  0.00051396754  0              0.0018531884   3.0653656      0              592062.13      0              0              2.9979754    
    600000   3007.5         200            200            0.0028488151  -0.001081037    0              0.0096274823   70.340324      0              13585930       0              0              2.9954437    
    700000   3007.5         200            200            0.0030356773  -0.0016094198   0              0.010716452    1.1324957      0              218736.66      0              0              2.9952179    
    800000   3007.5         200            200            0.0033457617  -0.0019165608   0              0.011953846    0.77839853     0              150344.32      0              0              2.994964     
    900000   3007.5         200            200            0.003502838   -0.0020137123   0              0.012522226    0.24449072     0              47222.327      0              0              2.9948497    
   1000000   3007.5         200            200            0.003513623   -0.0020201634   0              0.012561032    0.003201324    0              618.32192      0              0              2.9948413    
   1100000   3007.5         200            200            0.0034941053  -0.0020145963   0              0.012496912    0.0021875708   0              422.51986      0              0              2.9948538    
   1200000   3007.5         200            200            0.0034856689  -0.0020120707   0              0.012469077    0.00058490694  0              112.97225      0              0              2.9948593    
   1300000   3007.5         200            200            0.0034853114  -0.0020119439   0              0.012467878    5.0344004e-06  0              0.97237271     0              0              2.9948596    
   1400000   3007.5         200            200            0.0034863233  -0.0020122424   0              0.012471212    6.1152569e-06  0              1.1811355      0              0              2.994859     
   1500000   3007.5         200            200            0.0034867299  -0.0020123651   0              0.012472555    1.3884734e-06  0              0.26817764     0              0              2.9948587    
   1600000   3007.5         200            200            0.0034867371  -0.0020123682   0              0.01247258     6.8861538e-09  0              0.0013300309   0              0              2.9948587    
   1700000   3007.5         200            200            0.0034866847  -0.0020123527   0              0.012472407    1.6848919e-08  0              0.0032542961   0              0              2.9948587    
   1800000   3007.5         200            200            0.0034866652  -0.0020123468   0              0.012472343    3.2660559e-09  0              0.0006308246   0              0              2.9948587    
   1900000   3007.5         200            200            0.0034866654  -0.0020123468   0              0.012472343    7.2487597e-12  0              1.4000667e-06  0              0              2.9948587    
   2000000   3007.5         200            200            0.0034866681  -0.0020123476   0              0.012472352    4.5793394e-11  0              8.8447964e-06  0              0              2.9948587    
   2100000   3007.5         200            200            0.003486669   -0.0020123479   0              0.012472355    7.6097905e-12  0              1.4697982e-06  0              0              2.9948587    
   2200000   3007.5         200            200            0.003486669   -0.0020123479   0              0.012472355    3.9331709e-15  0              7.5967499e-10  0              0              2.9948587    
   2300000   3007.5         200            200            0.0034866688  -0.0020123479   0              0.012472354    1.2296044e-13  0              2.3749278e-08  0              0              2.9948587    
   2400000   3007.5         200            200            0.0034866688  -0.0020123479   0              0.012472354    1.7557635e-14  0              3.3911815e-09  0              0              2.9948587    
   2500000   3007.5         200            200            0.0034866688  -0.0020123479   0              0.012472354    6.1185163e-20  0              1.181765e-14   0              0              2.9948587    
   2600000   3007.5         200            200            0.0034866688  -0.0020123479   0              0.012472354    3.2185312e-16  0              6.216454e-11   0              0              2.9948587    
   2700000   3007.5         200            200            0.0034866688  -0.0020123479   0              0.012472354    4.0054515e-17  0              7.7363567e-12  0              0              2.9948587    
   2800000   3007.5         200            200            0.0034866688  -0.0020123479   0              0.012472354    1.7712904e-19  0              3.421171e-14   0              0              2.9948587    
   2900000   3007.5         200            200            0.0034866688  -0.0020123479   0              0.012472354    1.0760481e-18  0              2.0783405e-13  0              0              2.9948587    
   3000000   3007.5         200            200            0.0034866688  -0.0020123479   0              0.012472354    2.543251e-19   0              4.9121795e-14  0              0              2.9948587    
Loop time of 184.944 on 2 procs for 3000000 steps with 1251 atoms

Performance: 14015081.620 ns/day, 0.000 hours/ns, 16221.159 timesteps/s
99.9% CPU use with 2 MPI tasks x 1 OpenMP threads

MPI task timing breakdown:
Section |  min time  |  avg time  |  max time  |%varavg| %total
---------------------------------------------------------------
Pair    | 43.564     | 43.958     | 44.351     |   5.9 | 23.77
Neigh   | 3.7843     | 3.7844     | 3.7844     |   0.0 |  2.05
Comm    | 14.908     | 15.327     | 15.746     |  10.7 |  8.29
Output  | 0.21837    | 0.21843    | 0.2185     |   0.0 |  0.12
Modify  | 108.68     | 108.76     | 108.85     |   0.8 | 58.81
Other   |            | 12.89      |            |       |  6.97

Nlocal:          625.5 ave         626 max         625 min
Histogram: 1 0 0 0 0 0 0 0 0 1
Nghost:            2.5 ave           3 max           2 min
Histogram: 1 0 0 0 0 0 0 0 0 1
Neighs:          350.5 ave         351 max         350 min
Histogram: 1 0 0 0 0 0 0 0 0 1

Total # of neighbors = 701
Ave neighs/atom = 0.56035172
Neighbor list builds = 164
Dangerous builds = 0
  using 1 OpenMP thread(s) per MPI task
Lattice spacing in x,y,z = 4.02 4.02 4.02
Created orthogonal box = (-1507.5 -100 -100) to (1507.5 100 100)
  2 by 1 by 1 MPI processor grid
Created 750 atoms
  using lattice units in orthogonal box = (-1507.5 -100 -100) to (1507.5 100 100)
  create_atoms CPU = 0.001 seconds
Lattice spacing in x,y,z = 3 3 3
Created 501 atoms
  using lattice units in orthogonal box = (-1507.5 -100 -100) to (1507.5 100 100)
  create_atoms CPU = 0.000 seconds
Setting atom values ...
  750 settings made for diameter
Setting atom values ...
  750 settings made for mass
Setting atom values ...
  501 settings made for diameter
Setting atom values ...
  501 settings made for mass
750 atoms in group substrate
501 atoms in group slider1
  1 rigid bodies with 501 atoms
Generated 0 of 1 mixed pair_coeff terms from geometric mixing rule
Neighbor list info ...
  update every 1 steps, delay 0 steps, check yes
  max neighbors/atom: 2000, page size: 100000
  master list distance cutoff = 3.1
  ghost atom cutoff = 3.1
  binsize = 1.55, bins = 1946 130 130
  1 neighbor lists, perpetual/occasional/extra = 1 0 0
  (1) pair granular, perpetual
      attributes: half, newton on, size, history
      pair build: half/size/bin/newton
      stencil: half/bin/3d
      bin: standard
Setting up Verlet run ...
  Unit style    : micro
  Current step  : 0
  Time step     : 1e-05
Per MPI rank memory allocation (min/avg/max) = 80.84 | 80.84 | 80.84 Mbytes
   Step           Lx             Ly             Lz           Press           Pxx            Pyy            Pzz           KinEng         PotEng          Temp          c_1[1]         c_1[2]         c_1[3]    
         0   3015           200            200            0              0              0              0              0              0              0              0              0              6            
    100000   3015           200            200            0.0033712884  -1.3396183e-35  0              0.010113865    292303.69      0              5.6457196e+10  0              0              3.3273282    
    200000   3015           200            200            0.0011835045   8.3726572e-37  0              0.0035505136   70216.597      0              1.3562033e+10  0              0              3.0760116    
    300000   3015           200            200            6.2767024e-05 -1.6745245e-36  0              0.00018830107  415.1526       0              80184932       0              0              3.0455083    
    400000   3015           200            200            0.0001706967  -2.0931629e-36  0              0.00051209011  2809.4667      0              5.4263637e+08  0              0              3.0013791    
    500000   3015           200            200            0.00080203511  0.00010861446  0              0.0022974909   126.66596      0              24464983       0              0              2.9979731    
    600000   3015           200            200            0.0028998613   0.00081515174  0              0.0078844322   9.2544763      0              1787462.2      0              0              2.9961689    
    700000   3015           200            200            0.0039273145   0.0011415165   0              0.010640427    0.17328038     0              33468.357      0              0              2.9955387    
    800000   3015           200            200            0.0043130202   0.0011707626   0              0.011768298    0.0078519493   0              1516.5701      0              0              2.9953002    
    900000   3015           200            200            0.0044597648   0.0011803664   0              0.012198928    0.012334927    0              2382.438       0              0              2.9952117    
   1000000   3015           200            200            0.0045135472   0.0011836913   0              0.01235695     0.0046532611   0              898.75729      0              0              2.9951796    
   1100000   3015           200            200            0.0045327272   0.0011848506   0              0.012413331    0.001191344    0              230.10295      0              0              2.9951682    
   1200000   3015           200            200            0.0045393861   0.001185249    0              0.012432909    0.00025134098  0              48.545426      0              0              2.9951642    
   1300000   3015           200            200            0.0045416311   0.0011853825   0              0.012439511    4.6962401e-05  0              9.0705851      0              0              2.9951629    
   1400000   3015           200            200            0.0045423622   0.0011854258   0              0.012441661    8.0440688e-06  0              1.5536772      0              0              2.9951625    
   1500000   3015           200            200            0.00454259     0.0011854392   0              0.012442331    1.286991e-06   0              0.24857675     0              0              2.9951623    
   1600000   3015           200            200            0.0045426567   0.0011854431   0              0.012442527    1.9441701e-07  0              0.037550807    0              0              2.9951623    
   1700000   3015           200            200            0.0045426744   0.0011854441   0              0.012442579    2.7901437e-08  0              0.0053890422   0              0              2.9951623    
   1800000   3015           200            200            0.0045426783   0.0011854443   0              0.01244259     3.815692e-09   0              0.00073698444  0              0              2.9951623    
   1900000   3015           200            200            0.0045426787   0.0011854443   0              0.012442592    4.9755325e-10  0              9.6100263e-05  0              0              2.9951623    
   2000000   3015           200            200            0.0045426784   0.0011854443   0              0.012442591    6.1753689e-11  0              1.1927459e-05  0              0              2.9951623    
   2100000   3015           200            200            0.0045426782   0.0011854443   0              0.01244259     7.2623072e-12  0              1.4026833e-06  0              0              2.9951623    
   2200000   3015           200            200            0.0045426781   0.0011854443   0              0.01244259     8.0279529e-13  0              1.5505645e-07  0              0              2.9951623    
   2300000   3015           200            200            0.004542678    0.0011854443   0              0.01244259     8.2405693e-14  0              1.5916304e-08  0              0              2.9951623    
   2400000   3015           200            200            0.004542678    0.0011854443   0              0.01244259     7.6439353e-15  0              1.4763931e-09  0              0              2.9951623    
   2500000   3015           200            200            0.004542678    0.0011854443   0              0.01244259     6.0304382e-16  0              1.1647531e-10  0              0              2.9951623    
   2600000   3015           200            200            0.004542678    0.0011854443   0              0.01244259     3.1726339e-17  0              6.1278055e-12  0              0              2.9951623    
   2700000   3015           200            200            0.004542678    0.0011854443   0              0.01244259     4.6295134e-19  0              8.9417053e-14  0              0              2.9951623    
   2800000   3015           200            200            0.004542678    0.0011854443   0              0.01244259     1.4194033e-19  0              2.7415163e-14  0              0              2.9951623    
   2900000   3015           200            200            0.004542678    0.0011854443   0              0.01244259     3.4984972e-19  0              6.7571964e-14  0              0              2.9951623    
   3000000   3015           200            200            0.004542678    0.0011854443   0              0.01244259     2.5701754e-19  0              4.9641829e-14  0              0              2.9951623    
Loop time of 184.374 on 2 procs for 3000000 steps with 1251 atoms

Performance: 14058355.611 ns/day, 0.000 hours/ns, 16271.245 timesteps/s
99.9% CPU use with 2 MPI tasks x 1 OpenMP threads

MPI task timing breakdown:
Section |  min time  |  avg time  |  max time  |%varavg| %total
---------------------------------------------------------------
Pair    | 41.679     | 41.919     | 42.159     |   3.7 | 22.74
Neigh   | 3.7266     | 3.7268     | 3.727      |   0.0 |  2.02
Comm    | 14.583     | 14.797     | 15.01      |   5.6 |  8.03
Output  | 0.21417    | 0.21421    | 0.21426    |   0.0 |  0.12
Modify  | 109.99     | 110.55     | 111.1      |   5.3 | 59.96
Other   |            | 13.17      |            |       |  7.14

Nlocal:          625.5 ave         626 max         625 min
Histogram: 1 0 0 0 0 0 0 0 0 1
Nghost:            2.5 ave           3 max           2 min
Histogram: 1 0 0 0 0 0 0 0 0 1
Neighs:          352.5 ave         353 max         352 min
Histogram: 1 0 0 0 0 0 0 0 0 1

Total # of neighbors = 705
Ave neighs/atom = 0.56354916
Neighbor list builds = 164
Dangerous builds = 0
  using 1 OpenMP thread(s) per MPI task
Lattice spacing in x,y,z = 4.03 4.03 4.03
Created orthogonal box = (-1511.25 -100 -100) to (1511.25 100 100)
  2 by 1 by 1 MPI processor grid
Created 750 atoms
  using lattice units in orthogonal box = (-1511.25 -100 -100) to (1511.25 100 100)
  create_atoms CPU = 0.001 seconds
Lattice spacing in x,y,z = 3 3 3
Created 501 atoms
  using lattice units in orthogonal box = (-1511.25 -100 -100) to (1511.25 100 100)
  create_atoms CPU = 0.000 seconds
Setting atom values ...
  750 settings made for diameter
Setting atom values ...
  750 settings made for mass
Setting atom values ...
  501 settings made for diameter
Setting atom values ...
  501 settings made for mass
750 atoms in group substrate
501 atoms in group slider1
  1 rigid bodies with 501 atoms
Generated 0 of 1 mixed pair_coeff terms from geometric mixing rule
Neighbor list info ...
  update every 1 steps, delay 0 steps, check yes
  max neighbors/atom: 2000, page size: 100000
  master list distance cutoff = 3.1
  ghost atom cutoff = 3.1
  binsize = 1.55, bins = 1950 130 130
  1 neighbor lists, perpetual/occasional/extra = 1 0 0
  (1) pair granular, perpetual
      attributes: half, newton on, size, history
      pair build: half/size/bin/newton
      stencil: half/bin/3d
      bin: standard
Setting up Verlet run ...
  Unit style    : micro
  Current step  : 0
  Time step     : 1e-05
Per MPI rank memory allocation (min/avg/max) = 81.05 | 81.05 | 81.05 Mbytes
   Step           Lx             Ly             Lz           Press           Pxx            Pyy            Pzz           KinEng         PotEng          Temp          c_1[1]         c_1[2]         c_1[3]    
         0   3022.5         200            200            0              0              0              0              0              0              0              0              0              6            
    100000   3022.5         200            200            0.0033638274   3.3200867e-42  0              0.010091482    292410.2       0              5.6477769e+10  0              0              3.3273245    
    200000   3022.5         200            200            0.0011826896  -6.6814793e-36  0              0.0035480688   70409.526      0              1.3599296e+10  0              0              3.0758901    
    300000   3022.5         200            200            6.843254e-05   3.3407557e-36  0              0.00020529762  492.57705      0              95139132       0              0              3.0456114    
    400000   3022.5         200            200            0.00018990683 -8.3518575e-37  0              0.00056972049  3430.8349      0              6.6265095e+08  0              0              3.0002644    
    500000   3022.5         200            200            0.002268525    0.00011125851  0              0.0066943164   631.68408      0              1.2200705e+08  0              0              2.9965891    
    600000   3022.5         200            200            0.0065048009   0.0018100022   0              0.017704401    12.577793      0              2429346.5      0              0              2.9943508    
    700000   3022.5         200            200            0.0038075712   0.00085553221  0              0.010567181    0.66190875     0              127844.82      0              0              2.9956291    
    800000   3022.5         200            200            0.0047957257   0.0012667575   0              0.013120419    0.036474012    0              7044.798       0              0              2.9951313    
    900000   3022.5         200            200            0.0044658382   0.0012170792   0              0.012180435    0.051424682    0              9932.4553      0              0              2.9953096    
   1000000   3022.5         200            200            0.0045699631   0.0012308862   0              0.012479003    0.017792606    0              3436.5651      0              0              2.9952519    
   1100000   3022.5         200            200            0.0045414118   0.0012272407   0              0.012396995    0.0038509637   0              743.79701      0              0              2.9952679    
   1200000   3022.5         200            200            0.0045472152   0.0012280105   0              0.012413635    0.00063398313  0              122.45111      0              0              2.9952645    
   1300000   3022.5         200            200            0.0045470392   0.0012279752   0              0.012413142    8.3404132e-05  0              16.109148      0              0              2.9952647    
   1400000   3022.5         200            200            0.0045463787   0.0012278962   0              0.01241124     8.7158234e-06  0              1.6834237      0              0              2.995265     
   1500000   3022.5         200            200            0.0045468621   0.0012279559   0              0.01241263     6.7287129e-07  0              0.12996219     0              0              2.9952648    
   1600000   3022.5         200            200            0.004546615    0.001227925    0              0.01241192     2.9540931e-08  0              0.0057057034   0              0              2.9952649    
   1700000   3022.5         200            200            0.0045467216   0.0012279385   0              0.012412226    7.6946011e-11  0              1.486179e-05   0              0              2.9952648    
   1800000   3022.5         200            200            0.0045466808   0.0012279333   0              0.012412109    2.9286895e-10  0              5.6566373e-05  0              0              2.9952649    
   1900000   3022.5         200            200            0.0045466948   0.0012279351   0              0.012412149    1.713589e-10   0              3.3097232e-05  0              0              2.9952649    
   2000000   3022.5         200            200            0.0045466906   0.0012279345   0              0.012412137    4.6176015e-11  0              8.9186981e-06  0              0              2.9952649    
   2100000   3022.5         200            200            0.0045466916   0.0012279347   0              0.01241214     8.754839e-12   0              1.6909594e-06  0              0              2.9952649    
   2200000   3022.5         200            200            0.0045466915   0.0012279347   0              0.01241214     1.3010285e-12  0              2.5128805e-07  0              0              2.9952649    
   2300000   3022.5         200            200            0.0045466914   0.0012279346   0              0.01241214     1.5522529e-13  0              2.9981095e-08  0              0              2.9952649    
   2400000   3022.5         200            200            0.0045466915   0.0012279347   0              0.01241214     1.4349642e-14  0              2.7715713e-09  0              0              2.9952649    
   2500000   3022.5         200            200            0.0045466915   0.0012279347   0              0.01241214     8.9832791e-16  0              1.7350816e-10  0              0              2.9952649    
   2600000   3022.5         200            200            0.0045466915   0.0012279347   0              0.01241214     2.8693777e-17  0              5.5420792e-12  0              0              2.9952649    
   2700000   3022.5         200            200            0.0045466915   0.0012279347   0              0.01241214     1.8523158e-20  0              3.577668e-15   0              0              2.9952649    
   2800000   3022.5         200            200            0.0045466915   0.0012279347   0              0.01241214     6.2177406e-19  0              1.2009298e-13  0              0              2.9952649    
   2900000   3022.5         200            200            0.0045466915   0.0012279347   0              0.01241214     3.2801677e-20  0              6.3355023e-15  0              0              2.9952649    
   3000000   3022.5         200            200            0.0045466915   0.0012279347   0              0.01241214     3.3375357e-18  0              6.4463061e-13  0              0              2.9952649    
Loop time of 183.393 on 2 procs for 3000000 steps with 1251 atoms

Performance: 14133575.024 ns/day, 0.000 hours/ns, 16358.304 timesteps/s
99.9% CPU use with 2 MPI tasks x 1 OpenMP threads

MPI task timing breakdown:
Section |  min time  |  avg time  |  max time  |%varavg| %total
---------------------------------------------------------------
Pair    | 42.211     | 42.27      | 42.33      |   0.9 | 23.05
Neigh   | 3.7875     | 3.7876     | 3.7877     |   0.0 |  2.07
Comm    | 14.99      | 15.081     | 15.173     |   2.4 |  8.22
Output  | 0.21384    | 0.21389    | 0.21393    |   0.0 |  0.12
Modify  | 109.12     | 109.21     | 109.3      |   0.9 | 59.55
Other   |            | 12.83      |            |       |  7.00

Nlocal:          625.5 ave         626 max         625 min
Histogram: 1 0 0 0 0 0 0 0 0 1
Nghost:            2.5 ave           3 max           2 min
Histogram: 1 0 0 0 0 0 0 0 0 1
Neighs:          348.5 ave         349 max         348 min
Histogram: 1 0 0 0 0 0 0 0 0 1

Total # of neighbors = 697
Ave neighs/atom = 0.55715428
Neighbor list builds = 164
Dangerous builds = 0
  using 1 OpenMP thread(s) per MPI task
Lattice spacing in x,y,z = 4.04 4.04 4.04
Created orthogonal box = (-1515 -100 -100) to (1515 100 100)
  2 by 1 by 1 MPI processor grid
Created 750 atoms
  using lattice units in orthogonal box = (-1515 -100 -100) to (1515 100 100)
  create_atoms CPU = 0.001 seconds
Lattice spacing in x,y,z = 3 3 3
Created 501 atoms
  using lattice units in orthogonal box = (-1515 -100 -100) to (1515 100 100)
  create_atoms CPU = 0.000 seconds
Setting atom values ...
  750 settings made for diameter
Setting atom values ...
  750 settings made for mass
Setting atom values ...
  501 settings made for diameter
Setting atom values ...
  501 settings made for mass
750 atoms in group substrate
501 atoms in group slider1
  1 rigid bodies with 501 atoms
Generated 0 of 1 mixed pair_coeff terms from geometric mixing rule
Neighbor list info ...
  update every 1 steps, delay 0 steps, check yes
  max neighbors/atom: 2000, page size: 100000
  master list distance cutoff = 3.1
  ghost atom cutoff = 3.1
  binsize = 1.55, bins = 1955 130 130
  1 neighbor lists, perpetual/occasional/extra = 1 0 0
  (1) pair granular, perpetual
      attributes: half, newton on, size, history
      pair build: half/size/bin/newton
      stencil: half/bin/3d
      bin: standard
Setting up Verlet run ...
  Unit style    : micro
  Current step  : 0
  Time step     : 1e-05
Per MPI rank memory allocation (min/avg/max) = 81.19 | 81.19 | 81.19 Mbytes
   Step           Lx             Ly             Lz           Press           Pxx            Pyy            Pzz           KinEng         PotEng          Temp          c_1[1]         c_1[2]         c_1[3]    
         0   3030           200            200            0              0              0              0              0              0              0              0              0              6            
    100000   3030           200            200            0.0033563094   1.6662527e-36  0              0.010068928    292511.84      0              5.6497399e+10  0              0              3.327221     
    200000   3030           200            200            0.0011820205  -4.1655998e-37  0              0.0035460615   70619.938      0              1.3639936e+10  0              0              3.0755707    
    300000   3030           200            200            7.2112042e-05 -4.9987105e-36  0              0.00021633613  547.26319      0              1.0570152e+08  0              0              3.045629     
    400000   3030           200            200            0.00022755504  2.3261163e-06  0              0.00068033901  3783.4848      0              7.3076376e+08  0              0              2.9996128    
    500000   3030           200            200            0.0035884867  -0.00062698409  0              0.011392444    793.33784      0              1.5322978e+08  0              0              2.995552     
    600000   3030           200            200            0.0054305509   0.00017789299  0              0.01611376     59.628019      0              11516895       0              0              2.9946532    
    700000   3030           200            200            0.0040963428  -0.00079132988  0              0.013080358    12.89546       0              2490702.4      0              0              2.9951904    
    800000   3030           200            200            0.0036464809  -0.00090794365  0              0.011847386    0.85593929     0              165320.98      0              0              2.9954146    
    900000   3030           200            200            0.0037645815  -0.00084269151  0              0.012136436    0.037986438    0              7336.9165      0              0              2.9953581    
   1000000   3030           200            200            0.0038444699  -0.00083981502  0              0.012373225    0.035462091    0              6849.3499      0              0              2.9953138    
   1100000   3030           200            200            0.0038575265  -0.00083949751  0              0.012412077    0.0012955526   0              250.23039      0              0              2.9953069    
   1200000   3030           200            200            0.0038510597  -0.00083965971  0              0.012392839    0.00018208484  0              35.168901      0              0              2.9953105    
   1300000   3030           200            200            0.0038471558  -0.00083975969  0              0.012381227    8.7219382e-05  0              16.846047      0              0              2.9953127    
   1400000   3030           200            200            0.0038467332  -0.00083977012  0              0.01237997     1.6356883e-06  0              0.31592613     0              0              2.9953129    
   1500000   3030           200            200            0.0038471201  -0.00083975983  0              0.01238112     7.0004354e-07  0              0.13521039     0              0              2.9953127    
   1600000   3030           200            200            0.0038473057  -0.00083975502  0              0.012381672    2.0302271e-07  0              0.03921296     0              0              2.9953126    
   1700000   3030           200            200            0.003847315   -0.0008397548   0              0.0123817      1.3405774e-09  0              0.00025892674  0              0              2.9953126    
   1800000   3030           200            200            0.0038472931  -0.00083975538  0              0.012381635    2.3716375e-09  0              0.00045807155  0              0              2.9953126    
   1900000   3030           200            200            0.0038472845  -0.00083975561  0              0.012381609    4.4589955e-10  0              8.6123573e-05  0              0              2.9953126    
   2000000   3030           200            200            0.0038472846  -0.0008397556   0              0.01238161     1.8888934e-13  0              3.6483161e-08  0              0              2.9953126    
   2100000   3030           200            200            0.0038472858  -0.00083975557  0              0.012381613    7.331047e-12   0              1.4159601e-06  0              0              2.9953126    
   2200000   3030           200            200            0.0038472862  -0.00083975556  0              0.012381614    9.1717382e-13  0              1.7714817e-07  0              0              2.9953126    
   2300000   3030           200            200            0.0038472862  -0.00083975556  0              0.012381614    2.2160564e-15  0              4.2802173e-10  0              0              2.9953126    
   2400000   3030           200            200            0.0038472861  -0.00083975556  0              0.012381614    2.1029062e-14  0              4.0616725e-09  0              0              2.9953126    
   2500000   3030           200            200            0.0038472861  -0.00083975556  0              0.012381614    1.7616739e-15  0              3.4025971e-10  0              0              2.9953126    
   2600000   3030           200            200            0.0038472861  -0.00083975556  0              0.012381614    3.8643383e-17  0              7.4638026e-12  0              0              2.9953126    
   2700000   3030           200            200            0.0038472861  -0.00083975556  0              0.012381614    5.7570602e-17  0              1.1119513e-11  0              0              2.9953126    
   2800000   3030           200            200            0.0038472861  -0.00083975556  0              0.012381614    2.0196535e-18  0              3.9008735e-13  0              0              2.9953126    
   2900000   3030           200            200            0.0038472861  -0.00083975556  0              0.012381614    2.8211664e-18  0              5.4489613e-13  0              0              2.9953126    
   3000000   3030           200            200            0.0038472861  -0.00083975556  0              0.012381614    4.4672903e-20  0              8.6283785e-15  0              0              2.9953126    
Loop time of 187.283 on 2 procs for 3000000 steps with 1251 atoms

Performance: 13840000.040 ns/day, 0.000 hours/ns, 16018.519 timesteps/s
99.9% CPU use with 2 MPI tasks x 1 OpenMP threads

MPI task timing breakdown:
Section |  min time  |  avg time  |  max time  |%varavg| %total
---------------------------------------------------------------
Pair    | 42.198     | 42.684     | 43.171     |   7.4 | 22.79
Neigh   | 3.8006     | 3.8014     | 3.8022     |   0.0 |  2.03
Comm    | 14.9       | 15.575     | 16.249     |  17.1 |  8.32
Output  | 0.2141     | 0.21413    | 0.21417    |   0.0 |  0.11
Modify  | 110        | 111.25     | 112.5      |  11.8 | 59.40
Other   |            | 13.76      |            |       |  7.35

Nlocal:          625.5 ave         626 max         625 min
Histogram: 1 0 0 0 0 0 0 0 0 1
Nghost:            2.5 ave           3 max           2 min
Histogram: 1 0 0 0 0 0 0 0 0 1
Neighs:          346.5 ave         347 max         346 min
Histogram: 1 0 0 0 0 0 0 0 0 1

Total # of neighbors = 693
Ave neighs/atom = 0.55395683
Neighbor list builds = 164
Dangerous builds = 0
  using 1 OpenMP thread(s) per MPI task
Lattice spacing in x,y,z = 4.05 4.05 4.05
Created orthogonal box = (-1518.75 -100 -100) to (1518.75 100 100)
  2 by 1 by 1 MPI processor grid
Created 750 atoms
  using lattice units in orthogonal box = (-1518.75 -100 -100) to (1518.75 100 100)
  create_atoms CPU = 0.001 seconds
Lattice spacing in x,y,z = 3 3 3
Created 501 atoms
  using lattice units in orthogonal box = (-1518.75 -100 -100) to (1518.75 100 100)
  create_atoms CPU = 0.000 seconds
Setting atom values ...
  750 settings made for diameter
Setting atom values ...
  750 settings made for mass
Setting atom values ...
  501 settings made for diameter
Setting atom values ...
  501 settings made for mass
750 atoms in group substrate
501 atoms in group slider1
  1 rigid bodies with 501 atoms
Generated 0 of 1 mixed pair_coeff terms from geometric mixing rule
Neighbor list info ...
  update every 1 steps, delay 0 steps, check yes
  max neighbors/atom: 2000, page size: 100000
  master list distance cutoff = 3.1
  ghost atom cutoff = 3.1
  binsize = 1.55, bins = 1960 130 130
  1 neighbor lists, perpetual/occasional/extra = 1 0 0
  (1) pair granular, perpetual
      attributes: half, newton on, size, history
      pair build: half/size/bin/newton
      stencil: half/bin/3d
      bin: standard
Setting up Verlet run ...
  Unit style    : micro
  Current step  : 0
  Time step     : 1e-05
Per MPI rank memory allocation (min/avg/max) = 81.33 | 81.33 | 81.33 Mbytes
   Step           Lx             Ly             Lz           Press           Pxx            Pyy            Pzz           KinEng         PotEng          Temp          c_1[1]         c_1[2]         c_1[3]    
         0   3037.5         200            200            0              0              0              0              0              0              0              0              0              6            
    100000   3037.5         200            200            0.0033478956   4.1553177e-37  0              0.010043687    292490.79      0              5.6493333e+10  0              0              3.3273196    
    200000   3037.5         200            200            0.0011791638  -1.6621254e-36  0              0.0035374913   70624.07       0              1.3640734e+10  0              0              3.0756329    
    300000   3037.5         200            200            6.9506354e-05 -4.1553146e-37  0              0.00020851906  512.33023      0              98954373       0              0              3.045768     
    400000   3037.5         200            200            0.00074785928 -1.038829e-37   0              0.0022435778   4275.6481      0              8.2582298e+08  0              0              2.9985731    
    500000   3037.5         200            200            0.0091214336   0.0015322947   0              0.025832006    350.97256      0              67788836       0              0              2.9933124    
    600000   3037.5         200            200            0.0054046507   0.00062332657  0              0.015590626    83.866891      0              16198528       0              0              2.9946356    
    700000   3037.5         200            200            0.0043238975   0.00037932525  0              0.012592367    15.021968      0              2901428.3      0              0              2.99509      
    800000   3037.5         200            200            0.004355693    0.00044135749  0              0.012625722    1.7740575      0              342651.56      0              0              2.9950808    
    900000   3037.5         200            200            0.0043239233   0.00044005307  0              0.012531717    0.16503393     0              31875.591      0              0              2.9950948    
   1000000   3037.5         200            200            0.0042927797   0.00043865362  0              0.012439686    0.010428449    0              2014.21        0              0              2.9951094    
   1100000   3037.5         200            200            0.0042752502   0.00043783584  0              0.012387915    0.00026063177  0              50.339902      0              0              2.9951177    
   1200000   3037.5         200            200            0.004267274    0.00043745634  0              0.012364366    6.5431021e-06  0              1.2637719      0              0              2.9951216    
   1300000   3037.5         200            200            0.0042640961   0.00043730347  0              0.012354985    1.565919e-05   0              3.024505       0              0              2.9951231    
   1400000   3037.5         200            200            0.0042629636   0.00043724859  0              0.012351642    5.787248e-06   0              1.117782       0              0              2.9951237    
   1500000   3037.5         200            200            0.0042626052   0.0004372311   0              0.012350585    1.2954184e-06  0              0.25020447     0              0              2.9951238    
   1600000   3037.5         200            200            0.004262509    0.00043722635  0              0.012350301    2.1757757e-07  0              0.042024168    0              0              2.9951239    
   1700000   3037.5         200            200            0.0042624906   0.00043722542  0              0.012350246    2.9106422e-08  0              0.0056217799   0              0              2.9951239    
   1800000   3037.5         200            200            0.0042624907   0.0004372254   0              0.012350247    3.0942029e-09  0              0.00059763193  0              0              2.9951239    
   1900000   3037.5         200            200            0.0042624933   0.00043722552  0              0.012350254    2.4447248e-10  0              4.7218805e-05  0              0              2.9951239    
   2000000   3037.5         200            200            0.0042624951   0.00043722561  0              0.01235026     1.1286531e-11  0              2.1799447e-06  0              0              2.9951239    
   2100000   3037.5         200            200            0.0042624959   0.00043722565  0              0.012350262    5.0186446e-14  0              9.6932954e-09  0              0              2.9951239    
   2200000   3037.5         200            200            0.0042624963   0.00043722567  0              0.012350263    8.8561724e-14  0              1.7105315e-08  0              0              2.9951239    
   2300000   3037.5         200            200            0.0042624965   0.00043722568  0              0.012350264    5.6094516e-14  0              1.0834414e-08  0              0              2.9951239    
   2400000   3037.5         200            200            0.0042624965   0.00043722568  0              0.012350264    1.5570563e-14  0              3.007387e-09   0              0              2.9951239    
   2500000   3037.5         200            200            0.0042624965   0.00043722568  0              0.012350264    2.9896113e-15  0              5.7743053e-10  0              0              2.9951239    
   2600000   3037.5         200            200            0.0042624965   0.00043722568  0              0.012350264    4.5006007e-16  0              8.692716e-11   0              0              2.9951239    
   2700000   3037.5         200            200            0.0042624965   0.00043722568  0              0.012350264    5.6496576e-17  0              1.091207e-11   0              0              2.9951239    
   2800000   3037.5         200            200            0.0042624965   0.00043722568  0              0.012350264    4.3319325e-18  0              8.3669407e-13  0              0              2.9951239    
   2900000   3037.5         200            200            0.0042624965   0.00043722568  0              0.012350264    8.3911331e-19  0              1.6207111e-13  0              0              2.9951239    
   3000000   3037.5         200            200            0.0042624965   0.00043722568  0              0.012350264    2.7247535e-18  0              5.2627438e-13  0              0              2.9951239    
Loop time of 187.213 on 2 procs for 3000000 steps with 1251 atoms

Performance: 13845196.412 ns/day, 0.000 hours/ns, 16024.533 timesteps/s
99.9% CPU use with 2 MPI tasks x 1 OpenMP threads

MPI task timing breakdown:
Section |  min time  |  avg time  |  max time  |%varavg| %total
---------------------------------------------------------------
Pair    | 43.04      | 43.215     | 43.39      |   2.7 | 23.08
Neigh   | 3.819      | 3.8198     | 3.8207     |   0.0 |  2.04
Comm    | 15.081     | 15.097     | 15.114     |   0.4 |  8.06
Output  | 0.21403    | 0.21409    | 0.21416    |   0.0 |  0.11
Modify  | 109.56     | 110.86     | 112.16     |  12.4 | 59.22
Other   |            | 14.01      |            |       |  7.48

Nlocal:          625.5 ave         626 max         625 min
Histogram: 1 0 0 0 0 0 0 0 0 1
Nghost:            2.5 ave           3 max           2 min
Histogram: 1 0 0 0 0 0 0 0 0 1
Neighs:          351.5 ave         352 max         351 min
Histogram: 1 0 0 0 0 0 0 0 0 1

Total # of neighbors = 703
Ave neighs/atom = 0.56195044
Neighbor list builds = 164
Dangerous builds = 0
  using 1 OpenMP thread(s) per MPI task
Lattice spacing in x,y,z = 4.06 4.06 4.06
Created orthogonal box = (-1522.5 -100 -100) to (1522.5 100 100)
  2 by 1 by 1 MPI processor grid
Created 750 atoms
  using lattice units in orthogonal box = (-1522.5 -100 -100) to (1522.5 100 100)
  create_atoms CPU = 0.001 seconds
Lattice spacing in x,y,z = 3 3 3
Created 501 atoms
  using lattice units in orthogonal box = (-1522.5 -100 -100) to (1522.5 100 100)
  create_atoms CPU = 0.000 seconds
Setting atom values ...
  750 settings made for diameter
Setting atom values ...
  750 settings made for mass
Setting atom values ...
  501 settings made for diameter
Setting atom values ...
  501 settings made for mass
750 atoms in group substrate
501 atoms in group slider1
  1 rigid bodies with 501 atoms
Generated 0 of 1 mixed pair_coeff terms from geometric mixing rule
Neighbor list info ...
  update every 1 steps, delay 0 steps, check yes
  max neighbors/atom: 2000, page size: 100000
  master list distance cutoff = 3.1
  ghost atom cutoff = 3.1
  binsize = 1.55, bins = 1965 130 130
  1 neighbor lists, perpetual/occasional/extra = 1 0 0
  (1) pair granular, perpetual
      attributes: half, newton on, size, history
      pair build: half/size/bin/newton
      stencil: half/bin/3d
      bin: standard
Setting up Verlet run ...
  Unit style    : micro
  Current step  : 0
  Time step     : 1e-05
Per MPI rank memory allocation (min/avg/max) = 81.54 | 81.54 | 81.54 Mbytes
   Step           Lx             Ly             Lz           Press           Pxx            Pyy            Pzz           KinEng         PotEng          Temp          c_1[1]         c_1[2]         c_1[3]    
         0   3045           200            200            0              0              0              0              0              0              0              0              0              6            
    100000   3045           200            200            0.0033395593  -8.2901593e-36  0              0.010018678    292477.69      0              5.6490804e+10  0              0              3.3273584    
    200000   3045           200            200            0.001175457   -8.2901434e-37  0              0.0035263709   70547.594      0              1.3625963e+10  0              0              3.0758038    
    300000   3045           200            200            7.0931964e-05  4.1450873e-37  0              0.00021279589  535.22887      0              1.0337715e+08  0              0              3.0457266    
    400000   3045           200            200            0.00029859322  5.2491436e-06  0              0.00089053052  3935.4465      0              7.6011451e+08  0              0              2.9993519    
    500000   3045           200            200            0.0039439691   5.1030091e-05  0              0.011780877    794.19449      0              1.5339524e+08  0              0              2.9954965    
    600000   3045           200            200            0.0055852847  -0.00072867786  0              0.017484532    15.670813      0              3026749.9      0              0              2.9944379    
    700000   3045           200            200            0.003720541    0.00020855748  0              0.010953066    6.8427914      0              1321655.6      0              0              2.9956146    
    800000   3045           200            200            0.0040559364  -1.1664351e-05  0              0.012179474    1.8806005      0              363229.87      0              0              2.9953667    
    900000   3045           200            200            0.004184981   -1.4005668e-05  0              0.012568949    0.027932931    0              5395.1251      0              0              2.9952955    
   1000000   3045           200            200            0.0040819501  -4.5467717e-06  0              0.012250397    0.016058934    0              3101.7139      0              0              2.9953557    
   1100000   3045           200            200            0.0041018578  -6.5430937e-06  0              0.012312117    0.0045275353   0              874.4739       0              0              2.9953437    
   1200000   3045           200            200            0.0041087025  -7.1759141e-06  0              0.012333284    4.3391263e-05  0              8.3808353      0              0              2.9953398    
   1300000   3045           200            200            0.0041035992  -6.6888231e-06  0              0.012317486    4.581022e-05   0              8.8480464      0              0              2.9953428    
   1400000   3045           200            200            0.0041044735  -6.7753944e-06  0              0.012320196    1.0724038e-05  0              2.0713017      0              0              2.9953422    
   1500000   3045           200            200            0.0041048546  -6.8108326e-06  0              0.012321375    5.7494308e-08  0              0.011104778    0              0              2.995342     
   1600000   3045           200            200            0.0041046022  -6.7866639e-06  0              0.012320593    1.2803866e-07  0              0.024730114    0              0              2.9953422    
   1700000   3045           200            200            0.0041046397  -6.7903952e-06  0              0.012320709    2.5116326e-08  0              0.0048511099   0              0              2.9953421    
   1800000   3045           200            200            0.0041046605  -6.7923452e-06  0              0.012320774    5.6504386e-11  0              1.0913578e-05  0              0              2.9953421    
   1900000   3045           200            200            0.0041046481  -6.7911541e-06  0              0.012320736    3.5182205e-10  0              6.795291e-05   0              0              2.9953421    
   2000000   3045           200            200            0.0041046497  -6.7913104e-06  0              0.01232074     5.8140912e-11  0              1.1229666e-05  0              0              2.9953421    
   2100000   3045           200            200            0.0041046508  -6.7914162e-06  0              0.012320744    2.3612101e-14  0              4.5605754e-09  0              0              2.9953421    
   2200000   3045           200            200            0.0041046502  -6.7913578e-06  0              0.012320742    9.5201665e-13  0              1.8387791e-07  0              0              2.9953421    
   2300000   3045           200            200            0.0041046503  -6.7913641e-06  0              0.012320742    1.3272126e-13  0              2.5634538e-08  0              0              2.9953421    
   2400000   3045           200            200            0.0041046503  -6.7913698e-06  0              0.012320742    1.1819941e-17  0              2.2829707e-12  0              0              2.9953421    
   2500000   3045           200            200            0.0041046503  -6.791367e-06   0              0.012320742    2.5471348e-15  0              4.919681e-10   0              0              2.9953421    
   2600000   3045           200            200            0.0041046503  -6.7913672e-06  0              0.012320742    3.1242508e-16  0              6.0343557e-11  0              0              2.9953421    
   2700000   3045           200            200            0.0041046503  -6.7913674e-06  0              0.012320742    1.4480842e-19  0              2.7969122e-14  0              0              2.9953421    
   2800000   3045           200            200            0.0041046503  -6.7913674e-06  0              0.012320742    4.6391317e-18  0              8.9602827e-13  0              0              2.9953421    
   2900000   3045           200            200            0.0041046503  -6.7913673e-06  0              0.012320742    3.7667874e-18  0              7.2753873e-13  0              0              2.9953421    
   3000000   3045           200            200            0.0041046503  -6.7913668e-06  0              0.012320742    9.308612e-22   0              1.7979182e-16  0              0              2.9953421    
Loop time of 187.278 on 2 procs for 3000000 steps with 1251 atoms

Performance: 13840416.551 ns/day, 0.000 hours/ns, 16019.001 timesteps/s
99.9% CPU use with 2 MPI tasks x 1 OpenMP threads

MPI task timing breakdown:
Section |  min time  |  avg time  |  max time  |%varavg| %total
---------------------------------------------------------------
Pair    | 42.527     | 42.656     | 42.786     |   2.0 | 22.78
Neigh   | 3.8148     | 3.8156     | 3.8165     |   0.0 |  2.04
Comm    | 14.983     | 15.273     | 15.562     |   7.4 |  8.16
Output  | 0.21393    | 0.21401    | 0.21409    |   0.0 |  0.11
Modify  | 111.77     | 112.23     | 112.69     |   4.3 | 59.93
Other   |            | 13.09      |            |       |  6.99

Nlocal:          625.5 ave         626 max         625 min
Histogram: 1 0 0 0 0 0 0 0 0 1
Nghost:            2.5 ave           3 max           2 min
Histogram: 1 0 0 0 0 0 0 0 0 1
Neighs:          347.5 ave         348 max         347 min
Histogram: 1 0 0 0 0 0 0 0 0 1

Total # of neighbors = 695
Ave neighs/atom = 0.55555556
Neighbor list builds = 164
Dangerous builds = 0
  using 1 OpenMP thread(s) per MPI task
Lattice spacing in x,y,z = 4.07 4.07 4.07
Created orthogonal box = (-1526.25 -100 -100) to (1526.25 100 100)
  2 by 1 by 1 MPI processor grid
Created 750 atoms
  using lattice units in orthogonal box = (-1526.25 -100 -100) to (1526.25 100 100)
  create_atoms CPU = 0.001 seconds
Lattice spacing in x,y,z = 3 3 3
Created 501 atoms
  using lattice units in orthogonal box = (-1526.25 -100 -100) to (1526.25 100 100)
  create_atoms CPU = 0.000 seconds
Setting atom values ...
  750 settings made for diameter
Setting atom values ...
  750 settings made for mass
Setting atom values ...
  501 settings made for diameter
Setting atom values ...
  501 settings made for mass
750 atoms in group substrate
501 atoms in group slider1
  1 rigid bodies with 501 atoms
Generated 0 of 1 mixed pair_coeff terms from geometric mixing rule
Neighbor list info ...
  update every 1 steps, delay 0 steps, check yes
  max neighbors/atom: 2000, page size: 100000
  master list distance cutoff = 3.1
  ghost atom cutoff = 3.1
  binsize = 1.55, bins = 1970 130 130
  1 neighbor lists, perpetual/occasional/extra = 1 0 0
  (1) pair granular, perpetual
      attributes: half, newton on, size, history
      pair build: half/size/bin/newton
      stencil: half/bin/3d
      bin: standard
Setting up Verlet run ...
  Unit style    : micro
  Current step  : 0
  Time step     : 1e-05
Per MPI rank memory allocation (min/avg/max) = 81.68 | 81.68 | 81.68 Mbytes
   Step           Lx             Ly             Lz           Press           Pxx            Pyy            Pzz           KinEng         PotEng          Temp          c_1[1]         c_1[2]         c_1[3]    
         0   3052.5         200            200            0              0              0              0              0              0              0              0              0              6            
    100000   3052.5         200            200            0.0033302278   3.3079353e-36  0              0.0099906833   292341.24      0              5.646445e+10   0              0              3.3274034    
    200000   3052.5         200            200            0.0011700902   1.3231689e-35  0              0.0035102706   70319.24       0              1.3581858e+10  0              0              3.0759747    
    300000   3052.5         200            200            6.7407473e-05  4.134902e-37   0              0.00020222242  487.69973      0              94197099       0              0              3.0454932    
    400000   3052.5         200            200            0.00017721908  1.0751189e-44  0              0.00053165723  3078.5781      0              5.9461407e+08  0              0              3.0008894    
    500000   3052.5         200            200            0.00074116062  0.00046317372  0              0.0017603081   19.432341      0              3753272.9      0              0              2.9982904    
    600000   3052.5         200            200            0.0035364806   0.0020780995   0              0.0085313424   40.705471      0              7862086        0              0              2.9960296    
    700000   3052.5         200            200            0.0041469243   0.0018442725   0              0.0105965      1.7621157      0              340345.05      0              0              2.9955665    
    800000   3052.5         200            200            0.0044347699   0.0016809395   0              0.01162337     0.0194076      0              3748.4941      0              0              2.9953508    
    900000   3052.5         200            200            0.0045675211   0.0016297929   0              0.01207277     0.057228002    0              11053.342      0              0              2.9952581    
   1000000   3052.5         200            200            0.0046189518   0.0016275379   0              0.012229317    0.01898392     0              3666.6623      0              0              2.995226     
   1100000   3052.5         200            200            0.004634751    0.0016269546   0              0.012277298    0.0039762942   0              768.00406      0              0              2.995216     
   1200000   3052.5         200            200            0.0046387295   0.001626814    0              0.012289375    0.00062882647  0              121.45512      0              0              2.9952135    
   1300000   3052.5         200            200            0.0046393493   0.0016267914   0              0.012291257    7.8440457e-05  0              15.150436      0              0              2.9952131    
   1400000   3052.5         200            200            0.0046392413   0.0016267944   0              0.012290929    7.558969e-06   0              1.4599822      0              0              2.9952132    
   1500000   3052.5         200            200            0.0046390827   0.0016267996   0              0.012290448    5.022e-07      0              0.096997764    0              0              2.9952133    
   1600000   3052.5         200            200            0.0046389874   0.0016268028   0              0.012290159    1.431459e-08   0              0.0027648012   0              0              2.9952133    
   1700000   3052.5         200            200            0.0046389428   0.0016268043   0              0.012290024    1.6452803e-10  0              3.1777879e-05  0              0              2.9952133    
   1800000   3052.5         200            200            0.0046389248   0.0016268049   0              0.012289969    6.2749604e-10  0              0.00012119815  0              0              2.9952134    
   1900000   3052.5         200            200            0.0046389183   0.0016268051   0              0.01228995     2.4413677e-10  0              4.7153963e-05  0              0              2.9952134    
   2000000   3052.5         200            200            0.0046389163   0.0016268052   0              0.012289944    5.5396565e-11  0              1.0699608e-05  0              0              2.9952134    
   2100000   3052.5         200            200            0.0046389157   0.0016268052   0              0.012289942    9.2834424e-12  0              1.7930568e-06  0              0              2.9952134    
   2200000   3052.5         200            200            0.0046389156   0.0016268052   0              0.012289942    1.222674e-12   0              2.3615421e-07  0              0              2.9952134    
   2300000   3052.5         200            200            0.0046389156   0.0016268052   0              0.012289942    1.2597134e-13  0              2.4330822e-08  0              0              2.9952134    
   2400000   3052.5         200            200            0.0046389156   0.0016268052   0              0.012289942    9.3990052e-15  0              1.8153773e-09  0              0              2.9952134    
   2500000   3052.5         200            200            0.0046389157   0.0016268052   0              0.012289942    3.6147664e-16  0              6.9817653e-11  0              0              2.9952134    
   2600000   3052.5         200            200            0.0046389157   0.0016268052   0              0.012289942    3.8122329e-19  0              7.3631633e-14  0              0              2.9952134    
   2700000   3052.5         200            200            0.0046389157   0.0016268052   0              0.012289942    3.8855227e-18  0              7.5047194e-13  0              0              2.9952134    
   2800000   3052.5         200            200            0.0046389157   0.0016268052   0              0.012289942    1.8446039e-18  0              3.5627728e-13  0              0              2.9952134    
   2900000   3052.5         200            200            0.0046389157   0.0016268052   0              0.012289942    5.5118497e-19  0              1.06459e-13    0              0              2.9952134    
   3000000   3052.5         200            200            0.0046389157   0.0016268052   0              0.012289942    2.2403694e-18  0              4.3271769e-13  0              0              2.9952134    
Loop time of 181.96 on 2 procs for 3000000 steps with 1251 atoms

Performance: 14244911.298 ns/day, 0.000 hours/ns, 16487.166 timesteps/s
99.9% CPU use with 2 MPI tasks x 1 OpenMP threads

MPI task timing breakdown:
Section |  min time  |  avg time  |  max time  |%varavg| %total
---------------------------------------------------------------
Pair    | 40.739     | 41.082     | 41.424     |   5.3 | 22.58
Neigh   | 3.8245     | 3.825      | 3.8254     |   0.0 |  2.10
Comm    | 15.037     | 15.402     | 15.766     |   9.3 |  8.46
Output  | 0.21575    | 0.21583    | 0.2159     |   0.0 |  0.12
Modify  | 108.54     | 108.56     | 108.58     |   0.2 | 59.66
Other   |            | 12.88      |            |       |  7.08

Nlocal:          625.5 ave         626 max         625 min
Histogram: 1 0 0 0 0 0 0 0 0 1
Nghost:            2.5 ave           3 max           2 min
Histogram: 1 0 0 0 0 0 0 0 0 1
Neighs:          345.5 ave         346 max         345 min
Histogram: 1 0 0 0 0 0 0 0 0 1

Total # of neighbors = 691
Ave neighs/atom = 0.55235811
Neighbor list builds = 164
Dangerous builds = 0
  using 1 OpenMP thread(s) per MPI task
Lattice spacing in x,y,z = 4.08 4.08 4.08
Created orthogonal box = (-1530 -100 -100) to (1530 100 100)
  2 by 1 by 1 MPI processor grid
Created 750 atoms
  using lattice units in orthogonal box = (-1530 -100 -100) to (1530 100 100)
  create_atoms CPU = 0.001 seconds
Lattice spacing in x,y,z = 3 3 3
Created 501 atoms
  using lattice units in orthogonal box = (-1530 -100 -100) to (1530 100 100)
  create_atoms CPU = 0.000 seconds
Setting atom values ...
  750 settings made for diameter
Setting atom values ...
  750 settings made for mass
Setting atom values ...
  501 settings made for diameter
Setting atom values ...
  501 settings made for mass
750 atoms in group substrate
501 atoms in group slider1
  1 rigid bodies with 501 atoms
Generated 0 of 1 mixed pair_coeff terms from geometric mixing rule
Neighbor list info ...
  update every 1 steps, delay 0 steps, check yes
  max neighbors/atom: 2000, page size: 100000
  master list distance cutoff = 3.1
  ghost atom cutoff = 3.1
  binsize = 1.55, bins = 1975 130 130
  1 neighbor lists, perpetual/occasional/extra = 1 0 0
  (1) pair granular, perpetual
      attributes: half, newton on, size, history
      pair build: half/size/bin/newton
      stencil: half/bin/3d
      bin: standard
Setting up Verlet run ...
  Unit style    : micro
  Current step  : 0
  Time step     : 1e-05
Per MPI rank memory allocation (min/avg/max) = 81.88 | 81.88 | 81.88 Mbytes
   Step           Lx             Ly             Lz           Press           Pxx            Pyy            Pzz           KinEng         PotEng          Temp          c_1[1]         c_1[2]         c_1[3]    
         0   3060           200            200            0              0              0              0              0              0              0              0              0              6            
    100000   3060           200            200            0.0033222457  -1.2889884e-38  0              0.009966737    292364.1       0              5.6468865e+10  0              0              3.3273804    
    200000   3060           200            200            0.0011677729  -6.1871425e-37  0              0.0035033187   70371.161      0              1.3591886e+10  0              0              3.0758895    
    300000   3060           200            200            6.7226114e-05  3.8996445e-43  0              0.00020167834  487.45728      0              94150269       0              0              3.0455522    
    400000   3060           200            200            0.00017301965  2.5779768e-38  0              0.00051905896  2959.3187      0              5.7157963e+08  0              0              3.0011978    
    500000   3060           200            200            0.0014751324   3.1401223e-05  0              0.0043939958   505.92893      0              97717990       0              0              2.9970797    
    600000   3060           200            200            0.0026145696   0.00022830464  0              0.007615404    20.882482      0              4033361.2      0              0              2.9962158    
    700000   3060           200            200            0.0035614259   0.00035146426  0              0.010332813    0.24828002     0              47954.214      0              0              2.9956667    
    800000   3060           200            200            0.0040733257   0.00036535201  0              0.011854625    1.3501386      0              260773.44      0              0              2.9953808    
    900000   3060           200            200            0.0042350125   0.00036904464  0              0.012335993    0.2474834      0              47800.35       0              0              2.9952919    
   1000000   3060           200            200            0.0042400561   0.00036918011  0              0.012350988    0.0058276873   0              1125.5926      0              0              2.9952885    
   1100000   3060           200            200            0.0042204129   0.00036876276  0              0.012292476    0.00098380836  0              190.01834      0              0              2.995299     
   1200000   3060           200            200            0.0042105437   0.00036854747  0              0.012263084    0.00062579816  0              120.87021      0              0              2.9953043    
   1300000   3060           200            200            0.004208565    0.00036850311  0              0.012257192    5.6297702e-05  0              10.873658      0              0              2.9953054    
   1400000   3060           200            200            0.0042089688   0.00036851145  0              0.012258395    2.0289811e-08  0              0.0039188895   0              0              2.9953052    
   1500000   3060           200            200            0.0042094255   0.00036852136  0              0.012259755    8.9592293e-07  0              0.17304365     0              0              2.995305     
   1600000   3060           200            200            0.0042095853   0.00036852489  0              0.012260231    2.1472968e-07  0              0.041474111    0              0              2.9953049    
   1700000   3060           200            200            0.0042095986   0.0003685252   0              0.012260271    8.0290323e-09  0              0.0015507729   0              0              2.9953049    
   1800000   3060           200            200            0.0042095833   0.00036852487  0              0.012260225    4.2176467e-10  0              8.1462026e-05  0              0              2.9953049    
   1900000   3060           200            200            0.0042095743   0.00036852468  0              0.012260198    4.7254138e-10  0              9.1269328e-05  0              0              2.9953049    
   2000000   3060           200            200            0.0042095721   0.00036852463  0              0.012260192    5.5159024e-11  0              1.0653727e-05  0              0              2.9953049    
   2100000   3060           200            200            0.0042095723   0.00036852463  0              0.012260192    3.0169184e-13  0              5.8270477e-08  0              0              2.9953049    
   2200000   3060           200            200            0.0042095727   0.00036852464  0              0.012260194    5.5546841e-13  0              1.0728633e-07  0              0              2.9953049    
[...]
   2900000   3727.5         200            200            0.0032082987  -0.00043800259  0              0.010062899    9.6708114e-20  0              1.8678755e-14  0              0              2.9947669    
   3000000   3727.5         200            200            0.0032082987  -0.00043800259  0              0.010062899    2.235575e-19   0              4.3179167e-14  0              0              2.9947669    
Loop time of 181.034 on 2 procs for 3000000 steps with 1251 atoms

Performance: 14317783.995 ns/day, 0.000 hours/ns, 16571.509 timesteps/s
99.9% CPU use with 2 MPI tasks x 1 OpenMP threads

MPI task timing breakdown:
Section |  min time  |  avg time  |  max time  |%varavg| %total
---------------------------------------------------------------
Pair    | 38.588     | 38.646     | 38.703     |   0.9 | 21.35
Neigh   | 4.6143     | 4.6149     | 4.6154     |   0.0 |  2.55
Comm    | 16.618     | 16.753     | 16.888     |   3.3 |  9.25
Output  | 0.21512    | 0.21514    | 0.21515    |   0.0 |  0.12
Modify  | 108        | 108.06     | 108.12     |   0.6 | 59.69
Other   |            | 12.74      |            |       |  7.04

Nlocal:          625.5 ave         626 max         625 min
Histogram: 1 0 0 0 0 0 0 0 0 1
Nghost:            2.5 ave           3 max           2 min
Histogram: 1 0 0 0 0 0 0 0 0 1
Neighs:          329.5 ave         330 max         329 min
Histogram: 1 0 0 0 0 0 0 0 0 1

Total # of neighbors = 659
Ave neighs/atom = 0.52677858
Neighbor list builds = 164
Dangerous builds = 0
  using 1 OpenMP thread(s) per MPI task
Lattice spacing in x,y,z = 4.98 4.98 4.98
Created orthogonal box = (-1867.5 -100 -100) to (1867.5 100 100)
  2 by 1 by 1 MPI processor grid
Created 749 atoms
  using lattice units in orthogonal box = (-1867.5 -100 -100) to (1867.5 100 100)
  create_atoms CPU = 0.000 seconds
Lattice spacing in x,y,z = 3 3 3
Created 501 atoms
  using lattice units in orthogonal box = (-1867.5 -100 -100) to (1867.5 100 100)
  create_atoms CPU = 0.000 seconds
Setting atom values ...
  749 settings made for diameter
Setting atom values ...
  749 settings made for mass
Setting atom values ...
  501 settings made for diameter
Setting atom values ...
  501 settings made for mass
749 atoms in group substrate
501 atoms in group slider1
  1 rigid bodies with 501 atoms
Generated 0 of 1 mixed pair_coeff terms from geometric mixing rule
Neighbor list info ...
  update every 1 steps, delay 0 steps, check yes
  max neighbors/atom: 2000, page size: 100000
  master list distance cutoff = 3.1
  ghost atom cutoff = 3.1
  binsize = 1.55, bins = 2410 130 130
  1 neighbor lists, perpetual/occasional/extra = 1 0 0
  (1) pair granular, perpetual
      attributes: half, newton on, size, history
      pair build: half/size/bin/newton
      stencil: half/bin/3d
      bin: standard
Setting up Verlet run ...
  Unit style    : micro
  Current step  : 0
  Time step     : 1e-05
Per MPI rank memory allocation (min/avg/max) = 96.97 | 96.97 | 96.97 Mbytes
   Step           Lx             Ly             Lz           Press           Pxx            Pyy            Pzz           KinEng         PotEng          Temp          c_1[1]         c_1[2]         c_1[3]    
         0   3735           200            200            0              0              0              0              0              0              0              0              0              6            
    100000   3735           200            200            0.0027142324  -8.1103721e-36  0              0.0081426972   291131.97      0              5.6456711e+10  0              0              3.3294519    
    200000   3735           200            200            0.00093863237 -5.406772e-36   0              0.0028158971   68293.351      0              1.324354e+10   0              0              3.0794613    
    300000   3735           200            200            2.7293134e-05  4.556112e-45   0              8.1879403e-05  124.83724      0              24208608       0              0              3.0453469    
    400000   3735           200            200            8.2871304e-05 -5.9138164e-37  0              0.00024861391  1088.3741      0              2.1105899e+08  0              0              3.0044667    
    500000   3735           200            200            0.0069528668   0.0082514924   0              0.012607108    715.71155      0              1.3879177e+08  0              0              2.9941999    
    600000   3735           200            200            0.003803662    0.0041776894   0              0.0072332966   42.332404      0              8209157.8      0              0              2.9957058    
    700000   3735           200            200            0.0056132412   0.0053516983   0              0.011488025    0.00031557626  0              61.196981      0              0              2.9945042    
    800000   3735           200            200            0.005040439    0.0052046445   0              0.0099166727   1.7214618      0              333828.24      0              0              2.9949157    
    900000   3735           200            200            0.0050243015   0.0051992503   0              0.0098736544   0.048970124    0              9496.3535      0              0              2.9949304    
   1000000   3735           200            200            0.0051029672   0.0052203491   0              0.010088553    0.019567132    0              3794.4851      0              0              2.9948718    
   1100000   3735           200            200            0.0050919407   0.0052175775   0              0.010058245    0.0028972126   0              561.83144      0              0              2.9948796    
   1200000   3735           200            200            0.0050831974   0.0052152418   0              0.010034351    9.3983947e-05  0              18.225496      0              0              2.9948862    
   1300000   3735           200            200            0.0050861823   0.0052160189   0              0.010042528    7.9695441e-05  0              15.454649      0              0              2.994884     
   1400000   3735           200            200            0.0050868539   0.0052162021   0              0.010044359    4.6319369e-08  0              0.0089823156   0              0              2.9948835    
   1500000   3735           200            200            0.0050863359   0.005216066    0              0.010042942    1.3674144e-06  0              0.26517087     0              0              2.9948839    
   1600000   3735           200            200            0.0050863336   0.0052160645   0              0.010042936    5.2374186e-08  0              0.010156474    0              0              2.9948839    
   1700000   3735           200            200            0.005086404    0.0052160831   0              0.010043129    1.4135193e-08  0              0.0027411161   0              0              2.9948838    
   1800000   3735           200            200            0.0050863923   0.0052160802   0              0.010043097    2.6246475e-09  0              0.00050897524  0              0              2.9948838    
   1900000   3735           200            200            0.0050863848   0.0052160781   0              0.010043076    5.3444523e-11  0              1.0364035e-05  0              0              2.9948838    
   2000000   3735           200            200            0.0050863876   0.0052160789   0              0.010043084    6.6757067e-11  0              1.2945622e-05  0              0              2.9948838    
   2100000   3735           200            200            0.0050863882   0.005216079    0              0.010043085    1.6660499e-13  0              3.2308268e-08  0              0              2.9948838    
   2200000   3735           200            200            0.0050863877   0.0052160789   0              0.010043084    1.0690334e-12  0              2.0730841e-07  0              0              2.9948838    
   2300000   3735           200            200            0.0050863877   0.0052160789   0              0.010043084    5.3912226e-14  0              1.0454733e-08  0              0              2.9948838    
   2400000   3735           200            200            0.0050863878   0.0052160789   0              0.010043084    9.9413971e-15  0              1.9278493e-09  0              0              2.9948838    
   2500000   3735           200            200            0.0050863877   0.0052160789   0              0.010043084    2.3465625e-15  0              4.5504862e-10  0              0              2.9948838    
   2600000   3735           200            200            0.0050863877   0.0052160789   0              0.010043084    3.1159496e-17  0              6.0424922e-12  0              0              2.9948838    
   2700000   3735           200            200            0.0050863877   0.0052160789   0              0.010043084    5.4224555e-17  0              1.05153e-11    0              0              2.9948838    
   2800000   3735           200            200            0.0050863877   0.0052160789   0              0.010043084    3.9458602e-19  0              7.6518661e-14  0              0              2.9948838    
   2900000   3735           200            200            0.0050863877   0.0052160789   0              0.010043084    6.3388717e-19  0              1.2292427e-13  0              0              2.9948838    
   3000000   3735           200            200            0.0050863877   0.0052160789   0              0.010043084    1.6820365e-21  0              3.2618282e-16  0              0              2.9948838    
Loop time of 178.785 on 2 procs for 3000000 steps with 1250 atoms

Performance: 14497871.265 ns/day, 0.000 hours/ns, 16779.944 timesteps/s
99.9% CPU use with 2 MPI tasks x 1 OpenMP threads

MPI task timing breakdown:
Section |  min time  |  avg time  |  max time  |%varavg| %total
---------------------------------------------------------------
Pair    | 38.398     | 38.426     | 38.455     |   0.5 | 21.49
Neigh   | 4.6025     | 4.6035     | 4.6045     |   0.0 |  2.57
Comm    | 15.225     | 15.366     | 15.506     |   3.6 |  8.59
Output  | 0.21108    | 0.21109    | 0.2111     |   0.0 |  0.12
Modify  | 107.22     | 107.46     | 107.7      |   2.3 | 60.11
Other   |            | 12.72      |            |       |  7.11

Nlocal:            625 ave         626 max         624 min
Histogram: 1 0 0 0 0 0 0 0 0 1
Nghost:              2 ave           3 max           1 min
Histogram: 1 0 0 0 0 0 0 0 0 1
Neighs:          331.5 ave         332 max         331 min
Histogram: 1 0 0 0 0 0 0 0 0 1

Total # of neighbors = 663
Ave neighs/atom = 0.5304
Neighbor list builds = 164
Dangerous builds = 0
  using 1 OpenMP thread(s) per MPI task
Lattice spacing in x,y,z = 4.99 4.99 4.99
Created orthogonal box = (-1871.25 -100 -100) to (1871.25 100 100)
  2 by 1 by 1 MPI processor grid
Created 750 atoms
  using lattice units in orthogonal box = (-1871.25 -100 -100) to (1871.25 100 100)
  create_atoms CPU = 0.000 seconds
Lattice spacing in x,y,z = 3 3 3
Created 501 atoms
  using lattice units in orthogonal box = (-1871.25 -100 -100) to (1871.25 100 100)
  create_atoms CPU = 0.000 seconds
Setting atom values ...
  750 settings made for diameter
Setting atom values ...
  750 settings made for mass
Setting atom values ...
  501 settings made for diameter
Setting atom values ...
  501 settings made for mass
750 atoms in group substrate
501 atoms in group slider1
  1 rigid bodies with 501 atoms
Generated 0 of 1 mixed pair_coeff terms from geometric mixing rule
Neighbor list info ...
  update every 1 steps, delay 0 steps, check yes
  max neighbors/atom: 2000, page size: 100000
  master list distance cutoff = 3.1
  ghost atom cutoff = 3.1
  binsize = 1.55, bins = 2415 130 130
  1 neighbor lists, perpetual/occasional/extra = 1 0 0
  (1) pair granular, perpetual
      attributes: half, newton on, size, history
      pair build: half/size/bin/newton
      stencil: half/bin/3d
      bin: standard
Setting up Verlet run ...
  Unit style    : micro
  Current step  : 0
  Time step     : 1e-05
Per MPI rank memory allocation (min/avg/max) = 97.18 | 97.18 | 97.18 Mbytes
   Step           Lx             Ly             Lz           Press           Pxx            Pyy            Pzz           KinEng         PotEng          Temp          c_1[1]         c_1[2]         c_1[3]    
         0   3742.5         200            200            0              0              0              0              0              0              0              0              0              6            
    100000   3742.5         200            200            0.0027081592   1.0792279e-35  0              0.0081244777   291035.36      0              5.6212225e+10  0              0              3.3295244    
    200000   3742.5         200            200            0.00093545264  2.2868871e-42  0              0.0028063579   68147.737      0              1.3162441e+10  0              0              3.0795813    
    300000   3742.5         200            200            2.5085067e-05 -6.7450918e-37  0              7.5255201e-05  106.26901      0              20525402       0              0              3.0451974    
    400000   3742.5         200            200            7.5799409e-05  8.6338505e-35  0              0.00022739823  922.77265      0              1.7822956e+08  0              0              3.004656     
    500000   3742.5         200            200            0.0038520768  -0.0067247524   0              0.018280983    390.62834      0              75448178       0              0              2.992903     
    600000   3742.5         200            200            0.0015008546  -0.0018459504   0              0.0063485142   0.14506529     0              28018.735      0              0              2.9958367    
    700000   3742.5         200            200            0.0027232941  -0.0029203255   0              0.011090208    6.361637       0              1228722.7      0              0              2.9944901    
    800000   3742.5         200            200            0.0023950366  -0.002839159    0              0.010024269    1.841809       0              355737.46      0              0              2.9947689    
    900000   3742.5         200            200            0.0023565845  -0.0028044637   0              0.0098742171   0.10619148     0              20510.426      0              0              2.9948052    
   1000000   3742.5         200            200            0.0024249568  -0.0028185587   0              0.010093429    0.00071346695  0              137.80306      0              0              2.9947483    
   1100000   3742.5         200            200            0.0023985549  -0.0028130354   0              0.0100087      0.0032410032   0              625.98578      0              0              2.9947706    
   1200000   3742.5         200            200            0.0024019521  -0.002813783    0              0.010019639    0.00055990851  0              108.14391      0              0              2.9947676    
   1300000   3742.5         200            200            0.0024038894  -0.0028141722   0              0.01002584     1.3239813e-05  0              2.5572128      0              0              2.994766     
   1400000   3742.5         200            200            0.002402503   -0.002813885    0              0.010021394    2.1158271e-06  0              0.40866287     0              0              2.9947672    
   1500000   3742.5         200            200            0.0024029052  -0.0028139699   0              0.010022686    1.4115316e-06  0              0.27263123     0              0              2.9947668    
   1600000   3742.5         200            200            0.0024028999  -0.0028139681   0              0.010022668    1.3867238e-07  0              0.026783973    0              0              2.9947668    
   1700000   3742.5         200            200            0.0024028481  -0.0028139575   0              0.010022502    3.1714452e-10  0              6.1255095e-05  0              0              2.9947669    
   1800000   3742.5         200            200            0.0024028736  -0.0028139628   0              0.010022584    1.7456672e-09  0              0.00033716809  0              0              2.9947668    
   1900000   3742.5         200            200            0.0024028684  -0.0028139617   0              0.010022567    5.0231911e-10  0              9.7020768e-05  0              0              2.9947669    
   2000000   3742.5         200            200            0.0024028675  -0.0028139615   0              0.010022564    2.5880342e-11  0              4.9986765e-06  0              0              2.9947669    
   2100000   3742.5         200            200            0.0024028686  -0.0028139617   0              0.010022568    3.5002705e-13  0              6.7606215e-08  0              0              2.9947669    
   2200000   3742.5         200            200            0.0024028682  -0.0028139616   0              0.010022566    9.4209514e-13  0              1.8196161e-07  0              0              2.9947669    
   2300000   3742.5         200            200            0.0024028682  -0.0028139617   0              0.010022566    1.4791743e-13  0              2.8569614e-08  0              0              2.9947669    
   2400000   3742.5         200            200            0.0024028683  -0.0028139617   0              0.010022566    2.8243346e-15  0              5.4550804e-10  0              0              2.9947669    
   2500000   3742.5         200            200            0.0024028683  -0.0028139617   0              0.010022566    7.4460624e-16  0              1.4381748e-10  0              0              2.9947669    
   2600000   3742.5         200            200            0.0024028683  -0.0028139617   0              0.010022566    3.8971186e-16  0              7.5271164e-11  0              0              2.9947669    
   2700000   3742.5         200            200            0.0024028683  -0.0028139617   0              0.010022566    3.6746233e-17  0              7.0973763e-12  0              0              2.9947669    
   2800000   3742.5         200            200            0.0024028683  -0.0028139617   0              0.010022566    6.245026e-20   0              1.2061998e-14  0              0              2.9947669    
   2900000   3742.5         200            200            0.0024028683  -0.0028139617   0              0.010022566    2.5975409e-19  0              5.0170381e-14  0              0              2.9947669    
   3000000   3742.5         200            200            0.0024028683  -0.0028139617   0              0.010022566    1.3233749e-18  0              2.5560415e-13  0              0              2.9947669    
Loop time of 181.286 on 2 procs for 3000000 steps with 1251 atoms

Performance: 14297865.449 ns/day, 0.000 hours/ns, 16548.455 timesteps/s
99.9% CPU use with 2 MPI tasks x 1 OpenMP threads

MPI task timing breakdown:
Section |  min time  |  avg time  |  max time  |%varavg| %total
---------------------------------------------------------------
Pair    | 38.47      | 38.473     | 38.475     |   0.0 | 21.22
Neigh   | 4.5993     | 4.5996     | 4.5999     |   0.0 |  2.54
Comm    | 16.627     | 16.814     | 17.001     |   4.6 |  9.27
Output  | 0.21362    | 0.21364    | 0.21366    |   0.0 |  0.12
Modify  | 108.31     | 108.38     | 108.44     |   0.6 | 59.78
Other   |            | 12.81      |            |       |  7.06

Nlocal:          625.5 ave         626 max         625 min
Histogram: 1 0 0 0 0 0 0 0 0 1
Nghost:            2.5 ave           3 max           2 min
Histogram: 1 0 0 0 0 0 0 0 0 1
Neighs:          328.5 ave         329 max         328 min
Histogram: 1 0 0 0 0 0 0 0 0 1

Total # of neighbors = 657
Ave neighs/atom = 0.52517986
Neighbor list builds = 164
Dangerous builds = 0
  using 1 OpenMP thread(s) per MPI task
Total wall time: 5:03:42
