LAMMPS (23 Jun 2022 - Update 1)
  using 1 OpenMP thread(s) per MPI task
Lattice spacing in x,y,z = 3 3 3
Created orthogonal box = (-4500 -50 -50) to (4500 50 50)
  4 by 1 by 1 MPI processor grid
Created 3000 atoms
  using lattice units in orthogonal box = (-4500 -50 -50) to (4500 50 50)
  create_atoms CPU = 0.005 seconds
Lattice spacing in x,y,z = 3 3 3
Created 2001 atoms
  using lattice units in orthogonal box = (-4500 -50 -50) to (4500 50 50)
  create_atoms CPU = 0.001 seconds
Setting atom values ...
  3000 settings made for diameter
Setting atom values ...
  3000 settings made for mass
Setting atom values ...
  2001 settings made for diameter
Setting atom values ...
  2001 settings made for mass
3000 atoms in group substrate
2001 atoms in group slider1
5001 atoms in group substrate_slider
  1 rigid bodies with 2001 atoms
Generated 0 of 1 mixed pair_coeff terms from geometric mixing rule
Neighbor list info ...
  update every 1 steps, delay 0 steps, check yes
  max neighbors/atom: 2000, page size: 100000
  master list distance cutoff = 3.1
  ghost atom cutoff = 3.1
  binsize = 1.55, bins = 5807 65 65
  1 neighbor lists, perpetual/occasional/extra = 1 0 0
  (1) pair granular, perpetual
      attributes: half, newton on, size, history
      pair build: half/size/bin/newton
      stencil: half/bin/3d
      bin: standard
Setting up Verlet run ...
  Unit style    : micro
  Current step  : 0
  Time step     : 1e-05
Per MPI rank memory allocation (min/avg/max) = 40.02 | 40.03 | 40.03 Mbytes
   Step           Lx             Ly             Lz           Press           Pxx            Pyy            Pzz           KinEng         PotEng          Temp          c_1[1]         c_1[2]         c_1[3]    
         0   9000           100            100            0              0              0              0              0              0              0              5.9858794e-13  0              6            
    100000   9000           100            100            0.0018875818   7.652958e-49   0              0.0056627453   15031.727      0              7.258283e+08   5.9858794e-13  0              5.5437025    
    200000   9000           100            100            0.0018848562   3.6670424e-49  0              0.0056545686   19375.65       0              9.3558078e+08  5.9858794e-13  0              4.7869199    
    300000   9000           100            100            0.0016228494   2.3915494e-50  0              0.0048685482   20005.825      0              9.6600968e+08  5.9858794e-13  0              3.9894717    
    400000   9000           100            100            0.0013292169   2.4911973e-52  0              0.0039876508   20091.883      0              9.7016511e+08  5.9858794e-13  0              3.1865202    
    500000   9000           100            100            0.00067636449  4.4877422e-36  0              0.0020290935   6377.9025      0              3.0796609e+08  5.9858794e-13  0              3.0144229    
    600000   9000           100            100           -0.00017186901 -2.6926448e-35  0             -0.00051560702  497.13486      0              24004863       5.9858794e-13  0              3.0123558    
    700000   9000           100            100            5.4265377e-05  1.795097e-35   0              0.00016279613  47.193902      0              2278824.6      5.9858794e-13  0              3.0043211    
    800000   9000           100            100            0.0010305911  -2.6926451e-35  0              0.0030917734   110.85428      0              5352756.4      5.9858794e-13  0              2.9999233    
    900000   9000           100            100            3.0638182e-05 -1.7950967e-35  0              9.1914545e-05  15.181081      0              733040.09      5.9858794e-13  0              3.0000251    
   1000000   9000           100            100            0.0022627836   4.0632397e-43  0              0.0067883508   0.96789372     0              46736.124      5.9858794e-13  0              2.9998633    
   1100000   9000           100            100            0.00077375048  2.243871e-36   0              0.0023212514   0.19446224     0              9389.8856      5.9858794e-13  0              2.9999328    
   1200000   9000           100            100            0.0012428273  -7.0120969e-38  0              0.0037284818   0.024384409    0              1177.4358      5.9858794e-13  0              2.999908     
   1300000   9000           100            100            0.0011494277  -2.8048388e-37  0              0.003448283    0.0052287517   0              252.47771      5.9858794e-13  0              2.9999128    
   1400000   9000           100            100            0.0010949186   5.2590727e-38  0              0.0032847557   0.00047236162  0              22.808652      5.9858794e-13  0              2.9999155    
   1500000   9000           100            100            0.001106122    1.7530242e-38  0              0.0033183659   8.0621628e-05  0              3.8929299      5.9858794e-13  0              2.999915     
   1600000   9000           100            100            0.0011137004   1.6465662e-50  0              0.0033411012   1.0011464e-05  0              0.48341776     5.9858794e-13  0              2.9999146    
   1700000   9000           100            100            0.0011124303   4.3825606e-39  0              0.003337291    1.2166089e-06  0              0.058745688    5.9858794e-13  0              2.9999146    
   1800000   9000           100            100            0.0011113835   1.2052042e-38  0              0.0033341506   2.0608769e-07  0              0.009951237    5.9858794e-13  0              2.9999147    
   1900000   9000           100            100            0.0011115217   1.0956401e-39  0              0.003334565    1.7807022e-08  0              0.00085983737  5.9858794e-13  0              2.9999147    
   2000000   9000           100            100            0.0011116652   1.6434602e-39  0              0.0033349956   4.1493917e-09  0              0.00020035927  5.9858794e-13  0              2.9999147    
   2100000   9000           100            100            0.001111651    3.2869204e-39  0              0.0033349531   2.5167003e-10  0              1.2152245e-05  5.9858794e-13  0              2.9999147    
   2200000   9000           100            100            0.0011116315   3.8144833e-52  0              0.0033348945   8.1886797e-11  0              3.9540204e-06  5.9858794e-13  0              2.9999147    
   2300000   9000           100            100            0.0011116328   7.070063e-54   0              0.0033348984   3.405699e-12   0              1.6444902e-07  5.9858794e-13  0              2.9999147    
   2400000   9000           100            100            0.0011116355  -1.0956401e-39  0              0.0033349064   1.587634e-12   0              7.6661164e-08  5.9858794e-13  0              2.9999147    
   2500000   9000           100            100            0.0011116354   2.1912803e-39  0              0.0033349061   4.2960337e-14  0              2.0744009e-09  5.9858794e-13  0              2.9999147    
   2600000   9000           100            100            0.001111635   -4.3825606e-39  0              0.003334905    3.0456058e-14  0              1.470614e-09   5.9858794e-13  0              2.9999147    
   2700000   9000           100            100            0.001111635    1.0956401e-39  0              0.003334905    4.4332e-16     0              2.1406336e-11  5.9858794e-13  0              2.9999147    
   2800000   9000           100            100            0.0011116351   2.6189273e-59  0              0.0033349052   5.254348e-16   0              2.5371366e-11  5.9858794e-13  0              2.9999147    
   2900000   9000           100            100            0.001111635   -2.1912803e-39  0              0.0033349051   7.155124e-17   0              3.4549533e-12  5.9858794e-13  0              2.9999147    
   3000000   9000           100            100            0.0011116351   1.0956401e-39  0              0.0033349052   2.32974e-18    0              1.1249481e-13  5.9858794e-13  0              2.9999147    
Loop time of 611.252 on 4 procs for 3000000 steps with 5001 atoms

Performance: 4240477.314 ns/day, 0.000 hours/ns, 4907.960 timesteps/s
100.0% CPU use with 4 MPI tasks x 1 OpenMP threads

MPI task timing breakdown:
Section |  min time  |  avg time  |  max time  |%varavg| %total
---------------------------------------------------------------
Pair    | 137.94     | 205.87     | 273.19     | 452.6 | 33.68
Neigh   | 0.54176    | 0.54566    | 0.55009    |   0.4 |  0.09
Comm    | 24.608     | 90.907     | 159.67     | 672.1 | 14.87
Output  | 0.30585    | 0.30616    | 0.30653    |   0.1 |  0.05
Modify  | 211.2      | 247        | 280.84     | 212.0 | 40.41
Other   |            | 66.63      |            |       | 10.90

Nlocal:        1250.25 ave        1500 max        1000 min
Histogram: 2 0 0 0 0 0 0 0 0 2
Nghost:           5.25 ave           6 max           4 min
Histogram: 1 0 0 0 0 1 0 0 0 2
Neighs:        1750.25 ave        2250 max        1250 min
Histogram: 2 0 0 0 0 0 0 0 0 2

Total # of neighbors = 7001
Ave neighs/atom = 1.39992
Neighbor list builds = 64
Dangerous builds = 0
  using 1 OpenMP thread(s) per MPI task
Lattice spacing in x,y,z = 3 3 3
Created orthogonal box = (-4500 -50 -50) to (4500 50 50)
  4 by 1 by 1 MPI processor grid
Created 3000 atoms
  using lattice units in orthogonal box = (-4500 -50 -50) to (4500 50 50)
  create_atoms CPU = 0.001 seconds
Lattice spacing in x,y,z = 3 3 3
Created 2001 atoms
  using lattice units in orthogonal box = (-4500 -50 -50) to (4500 50 50)
  create_atoms CPU = 0.001 seconds
Setting atom values ...
  3000 settings made for diameter
Setting atom values ...
  3000 settings made for mass
Setting atom values ...
  2001 settings made for diameter
Setting atom values ...
  2001 settings made for mass
3000 atoms in group substrate
2001 atoms in group slider1
5001 atoms in group substrate_slider
  1 rigid bodies with 2001 atoms
Generated 0 of 1 mixed pair_coeff terms from geometric mixing rule
Neighbor list info ...
  update every 1 steps, delay 0 steps, check yes
  max neighbors/atom: 2000, page size: 100000
  master list distance cutoff = 3.1
  ghost atom cutoff = 3.1
  binsize = 1.55, bins = 5807 65 65
  1 neighbor lists, perpetual/occasional/extra = 1 0 0
  (1) pair granular, perpetual
      attributes: half, newton on, size, history
      pair build: half/size/bin/newton
      stencil: half/bin/3d
      bin: standard
Setting up Verlet run ...
  Unit style    : micro
  Current step  : 0
  Time step     : 1e-05
Per MPI rank memory allocation (min/avg/max) = 40.02 | 40.03 | 40.03 Mbytes
   Step           Lx             Ly             Lz           Press           Pxx            Pyy            Pzz           KinEng         PotEng          Temp          c_1[1]         c_1[2]         c_1[3]    
         0   9000           100            100            0              0              0              0              0              0              0              5.9858794e-13  0              6            
    100000   9000           100            100            0.0037054573   1.5305916e-48  0              0.011116372    60126.908      0              2.9033132e+09  5.9858794e-13  0              5.0874051    
    200000   9000           100            100            0.0031742008   7.3340848e-49  0              0.0095226025   77502.599      0              3.7423231e+09  5.9858794e-13  0              3.5738397    
    300000   9000           100            100            0.0011284077   8.9754842e-35  0              0.0033852232   15396.217      0              7.4342822e+08  5.9858794e-13  0              3.1282337    
    400000   9000           100            100            0.00063393703  4.307116e-42   0              0.0019018111   5632.8579      0              2.7199055e+08  5.9858794e-13  0              3.0195307    
    500000   9000           100            100            0.00038532914  5.7252996e-42  0              0.0011559874   2214.5956      0              1.0693489e+08  5.9858794e-13  0              3.0001068    
    600000   9000           100            100            0.00011128827 -3.5901928e-35  0              0.00033386481  196.19596      0              9473600.8      5.9858794e-13  0              3.0016872    
    700000   9000           100            100            0.011047683    4.729226e-42   0              0.033143048    21.491056      0              1037726.2      5.9858794e-13  0              2.9996065    
    800000   9000           100            100           -7.7428262e-06  1.7950971e-35  0             -2.3228479e-05  0.96592929     0              46641.268      5.9858794e-13  0              3.0000116    
    900000   9000           100            100            0.0027248793   4.4877421e-36  0              0.008174638    2.2376932      0              108050.2       5.9858794e-13  0              2.9998453    
   1000000   9000           100            100            0.002314242   -5.6096775e-37  0              0.006942726    0.34031903     0              16432.788      5.9858794e-13  0              2.9998611    
   1100000   9000           100            100            0.0022815545   5.6096776e-37  0              0.0068446635   0.041027298    0              1981.0614      5.9858794e-13  0              2.9998623    
   1200000   9000           100            100            0.0022551514  -4.2072582e-37  0              0.0067654542   0.0044133531   0              213.10503      5.9858794e-13  0              2.9998633    
   1300000   9000           100            100            0.0022383042   8.5701646e-48  0              0.0067149126   0.00041740109  0              20.154805      5.9858794e-13  0              2.999864     
   1400000   9000           100            100            0.0022297368   2.6295364e-38  0              0.0066892104   3.3028159e-05  0              1.5948116      5.9858794e-13  0              2.9998643    
   1500000   9000           100            100            0.0022258681  -8.7651212e-39  0              0.0066776043   1.9209321e-06  0              0.092754937    5.9858794e-13  0              2.9998645    
   1600000   9000           100            100            0.002224248   -1.3147682e-38  0              0.0066727441   5.0837845e-08  0              0.0024547776   5.9858794e-13  0              2.9998645    
   1700000   9000           100            100            0.0022236068   2.1573914e-53  0              0.0066708203   5.3570014e-10  0              2.5867043e-05  5.9858794e-13  0              2.9998645    
   1800000   9000           100            100            0.0022233647   8.7651212e-39  0              0.0066700941   2.1524878e-09  0              0.00010393593  5.9858794e-13  0              2.9998646    
   1900000   9000           100            100            0.0022232773   3.078949e-51   0              0.0066698318   8.9927975e-10  0              4.3423001e-05  5.9858794e-13  0              2.9998646    
   2000000   9000           100            100            0.002223247   -6.1355848e-38  0              0.0066697411   2.3150651e-10  0              1.1178621e-05  5.9858794e-13  0              2.9998646    
   2100000   9000           100            100            0.0022232371  -8.7651212e-39  0              0.0066697114   4.7120337e-11  0              2.2752724e-06  5.9858794e-13  0              2.9998646    
   2200000   9000           100            100            0.0022232341   4.3825606e-39  0              0.0066697022   8.2515226e-12  0              3.9843649e-07  5.9858794e-13  0              2.9998646    
   2300000   9000           100            100            0.0022232332   8.7651212e-39  0              0.0066696996   1.2936266e-12  0              6.2464599e-08  5.9858794e-13  0              2.9998646    
   2400000   9000           100            100            0.002223233    4.3825606e-39  0              0.0066696989   1.8440029e-13  0              8.9040301e-09  5.9858794e-13  0              2.9998646    
   2500000   9000           100            100            0.0022232329  -8.7651212e-39  0              0.0066696988   2.400407e-14   0              1.1590706e-09  5.9858794e-13  0              2.9998646    
   2600000   9000           100            100            0.0022232329  -8.7651212e-39  0              0.0066696988   2.8927563e-15  0              1.3968085e-10  5.9858794e-13  0              2.9998646    
   2700000   9000           100            100            0.0022232329   8.7651212e-39  0              0.0066696988   2.0814953e-16  0              1.0050796e-11  5.9858794e-13  0              2.9998646    
   2800000   9000           100            100            0.002223233    3.0677924e-38  0              0.0066696989   5.1606324e-17  0              2.4918847e-12  5.9858794e-13  0              2.9998646    
   2900000   9000           100            100            0.002223233    4.3825606e-39  0              0.0066696989   9.9678222e-18  0              4.8131046e-13  5.9858794e-13  0              2.9998646    
   3000000   9000           100            100            0.002223233    1.3889001e-59  0              0.0066696989   1.0007351e-17  0              4.8321917e-13  5.9858794e-13  0              2.9998646    
Loop time of 609.223 on 4 procs for 3000000 steps with 5001 atoms

Performance: 4254599.488 ns/day, 0.000 hours/ns, 4924.305 timesteps/s
100.0% CPU use with 4 MPI tasks x 1 OpenMP threads

MPI task timing breakdown:
Section |  min time  |  avg time  |  max time  |%varavg| %total
---------------------------------------------------------------
Pair    | 142.14     | 206.72     | 273.09     | 449.1 | 33.93
Neigh   | 0.58825    | 0.59441    | 0.60106    |   0.7 |  0.10
Comm    | 25.265     | 90.127     | 156.59     | 672.5 | 14.79
Output  | 0.30574    | 0.30606    | 0.30644    |   0.1 |  0.05
Modify  | 207.55     | 243.92     | 278.42     | 217.3 | 40.04
Other   |            | 67.55      |            |       | 11.09

Nlocal:        1250.25 ave        1500 max        1000 min
Histogram: 2 0 0 0 0 0 0 0 0 2
Nghost:           5.25 ave           6 max           4 min
Histogram: 1 0 0 0 0 1 0 0 0 2
Neighs:        1750.25 ave        2250 max        1250 min
Histogram: 2 0 0 0 0 0 0 0 0 2

Total # of neighbors = 7001
Ave neighs/atom = 1.39992
Neighbor list builds = 72
Dangerous builds = 0
  using 1 OpenMP thread(s) per MPI task
Lattice spacing in x,y,z = 3 3 3
Created orthogonal box = (-4500 -50 -50) to (4500 50 50)
  4 by 1 by 1 MPI processor grid
Created 3000 atoms
  using lattice units in orthogonal box = (-4500 -50 -50) to (4500 50 50)
  create_atoms CPU = 0.001 seconds
Lattice spacing in x,y,z = 3 3 3
Created 2001 atoms
  using lattice units in orthogonal box = (-4500 -50 -50) to (4500 50 50)
  create_atoms CPU = 0.001 seconds
Setting atom values ...
  3000 settings made for diameter
Setting atom values ...
  3000 settings made for mass
Setting atom values ...
  2001 settings made for diameter
Setting atom values ...
  2001 settings made for mass
3000 atoms in group substrate
2001 atoms in group slider1
5001 atoms in group substrate_slider
  1 rigid bodies with 2001 atoms
Generated 0 of 1 mixed pair_coeff terms from geometric mixing rule
Neighbor list info ...
  update every 1 steps, delay 0 steps, check yes
  max neighbors/atom: 2000, page size: 100000
  master list distance cutoff = 3.1
  ghost atom cutoff = 3.1
  binsize = 1.55, bins = 5807 65 65
  1 neighbor lists, perpetual/occasional/extra = 1 0 0
  (1) pair granular, perpetual
      attributes: half, newton on, size, history
      pair build: half/size/bin/newton
      stencil: half/bin/3d
      bin: standard
Setting up Verlet run ...
  Unit style    : micro
  Current step  : 0
  Time step     : 1e-05
Per MPI rank memory allocation (min/avg/max) = 40.02 | 40.03 | 40.03 Mbytes
   Step           Lx             Ly             Lz           Press           Pxx            Pyy            Pzz           KinEng         PotEng          Temp          c_1[1]         c_1[2]         c_1[3]    
         0   9000           100            100            0              0              0              0              0              0              0              5.9858794e-13  0              6            
    100000   9000           100            100            0.0054536266   1.5305916e-48  0              0.01636088     135285.54      0              6.5324547e+09  5.9858794e-13  0              4.6311076    
    200000   9000           100            100           -0.00054740402 -1.4360769e-34  0             -0.0016422121   4438.8732      0              2.143373e+08   5.9858794e-13  0              3.332295     
    300000   9000           100            100            0.001568473   -7.1803852e-35  0              0.004705419    29490.712      0              1.424001e+09   5.9858794e-13  0              3.0082466    
    400000   9000           100            100           -0.00028548161  7.1803942e-35  0             -0.00085644483  1404.3143      0              67809312       5.9858794e-13  0              3.0205415    
    500000   9000           100            100            0.0001003524  -3.5901887e-35  0              0.00030105721  159.56718      0              7704928.2      5.9858794e-13  0              3.0060551    
    600000   9000           100            100           -2.6953266e-05  7.1803877e-34  0             -8.0859797e-05  11.826415      0              571055.28      5.9858794e-13  0              3.0013388    
    700000   9000           100            100            0.0097883004   2.0409058e-41  0              0.029364901    34.524274      0              1667053.6      5.9858794e-13  0              2.999635     
    800000   9000           100            100            0.005684765    8.9754857e-36  0              0.017054295    4.682063       0              226080.07      5.9858794e-13  0              2.9997473    
    900000   9000           100            100            0.0039119494   4.7036393e-44  0              0.011735848    1.1456897      0              55321.258      5.9858794e-13  0              2.9998029    
   1000000   9000           100            100            0.0036955427  -3.5060485e-38  0              0.011086628    0.016049774    0              774.98615      5.9858794e-13  0              2.99981      
   1100000   9000           100            100            0.0034497895   2.8353456e-46  0              0.010349368    0.007824102    0              377.79788      5.9858794e-13  0              2.9998184    
   1200000   9000           100            100            0.0033438654  -8.7651212e-38  0              0.010031596    0.0036843517   0              177.90416      5.9858794e-13  0              2.9998222    
   1300000   9000           100            100            0.0033240674   8.7651212e-39  0              0.0099722023   0.00032379232  0              15.634772      5.9858794e-13  0              2.9998229    
   1400000   9000           100            100            0.0033283585  -3.5060485e-38  0              0.0099850754   5.7286663e-07  0              0.02766168     5.9858794e-13  0              2.9998228    
   1500000   9000           100            100            0.0033330777   1.7530242e-38  0              0.0099992332   4.0446932e-06  0              0.19530376     5.9858794e-13  0              2.9998226    
   1600000   9000           100            100            0.0033348136   1.7907684e-49  0              0.010004441    1.16903e-06    0              0.056448276    5.9858794e-13  0              2.9998225    
   1700000   9000           100            100            0.0033350362  -1.7530242e-38  0              0.010005109    6.8352935e-08  0              0.0033005186   5.9858794e-13  0              2.9998225    
   1800000   9000           100            100            0.0033349151   3.5060485e-38  0              0.010004745    2.3880131e-10  0              1.1530861e-05  5.9858794e-13  0              2.9998225    
   1900000   9000           100            100            0.0033348267   9.9449054e-51  0              0.01000448     1.7735541e-09  0              8.5638579e-05  5.9858794e-13  0              2.9998225    
   2000000   9000           100            100            0.0033347995  -5.2590727e-38  0              0.010004399    3.4223129e-10  0              1.6525124e-05  5.9858794e-13  0              2.9998225    
   2100000   9000           100            100            0.003334798    1.7458879e-53  0              0.010004394    1.1937145e-11  0              5.76402e-07    5.9858794e-13  0              2.9998225    
   2200000   9000           100            100            0.0033348008   1.7980237e-54  0              0.010004402    5.7925474e-13  0              2.7970138e-08  5.9858794e-13  0              2.9998225    
   2300000   9000           100            100            0.0033348024   3.5060485e-38  0              0.010004407    6.8396596e-13  0              3.3026268e-08  5.9858794e-13  0              2.9998225    
   2400000   9000           100            100            0.0033348028   3.6704146e-56  0              0.010004408    9.1413505e-14  0              4.414031e-09   5.9858794e-13  0              2.9998225    
   2500000   9000           100            100            0.0033348028   3.4691884e-57  0              0.010004408    1.5545528e-15  0              7.5063789e-11  5.9858794e-13  0              2.9998225    
   2600000   9000           100            100            0.0033348027   7.9269758e-58  0              0.010004408    5.0676601e-16  0              2.4469917e-11  5.9858794e-13  0              2.9998225    
   2700000   9000           100            100            0.0033348027   1.7530242e-38  0              0.010004408    1.8106937e-16  0              8.743192e-12   5.9858794e-13  0              2.9998225    
   2800000   9000           100            100            0.0033348027   4.0438899e-58  0              0.010004408    7.5591462e-18  0              3.6500412e-13  5.9858794e-13  0              2.9998225    
   2900000   9000           100            100            0.0033348027   2.0750761e-58  0              0.010004408    1.4791503e-17  0              7.1422876e-13  5.9858794e-13  0              2.9998225    
   3000000   9000           100            100            0.0033348027   3.5060485e-38  0              0.010004408    9.8492437e-19  0              4.7558473e-14  5.9858794e-13  0              2.9998225    
Loop time of 626.28 on 4 procs for 3000000 steps with 5001 atoms

Performance: 4138723.780 ns/day, 0.000 hours/ns, 4790.190 timesteps/s
100.0% CPU use with 4 MPI tasks x 1 OpenMP threads

MPI task timing breakdown:
Section |  min time  |  avg time  |  max time  |%varavg| %total
---------------------------------------------------------------
Pair    | 138.31     | 211.47     | 286.06     | 467.5 | 33.77
Neigh   | 0.67029    | 0.6779     | 0.68554    |   0.7 |  0.11
Comm    | 24.688     | 96.074     | 172.42     | 666.0 | 15.34
Output  | 0.3099     | 0.31023    | 0.31062    |   0.1 |  0.05
Modify  | 211.75     | 249.92     | 282.39     | 203.3 | 39.91
Other   |            | 67.82      |            |       | 10.83

Nlocal:        1250.25 ave        1500 max        1000 min
Histogram: 2 0 0 0 0 0 0 0 0 2
Nghost:           5.25 ave           6 max           4 min
Histogram: 1 0 0 0 0 1 0 0 0 2
Neighs:        1750.25 ave        2250 max        1250 min
Histogram: 2 0 0 0 0 0 0 0 0 2

Total # of neighbors = 7001
Ave neighs/atom = 1.39992
Neighbor list builds = 80
Dangerous builds = 0
  using 1 OpenMP thread(s) per MPI task
Lattice spacing in x,y,z = 3 3 3
Created orthogonal box = (-4500 -50 -50) to (4500 50 50)
  4 by 1 by 1 MPI processor grid
Created 3000 atoms
  using lattice units in orthogonal box = (-4500 -50 -50) to (4500 50 50)
  create_atoms CPU = 0.001 seconds
Lattice spacing in x,y,z = 3 3 3
Created 2001 atoms
  using lattice units in orthogonal box = (-4500 -50 -50) to (4500 50 50)
  create_atoms CPU = 0.001 seconds
Setting atom values ...
  3000 settings made for diameter
Setting atom values ...
  3000 settings made for mass
Setting atom values ...
  2001 settings made for diameter
Setting atom values ...
  2001 settings made for mass
3000 atoms in group substrate
2001 atoms in group slider1
5001 atoms in group substrate_slider
  1 rigid bodies with 2001 atoms
Generated 0 of 1 mixed pair_coeff terms from geometric mixing rule
Neighbor list info ...
  update every 1 steps, delay 0 steps, check yes
  max neighbors/atom: 2000, page size: 100000
  master list distance cutoff = 3.1
  ghost atom cutoff = 3.1
  binsize = 1.55, bins = 5807 65 65
  1 neighbor lists, perpetual/occasional/extra = 1 0 0
  (1) pair granular, perpetual
      attributes: half, newton on, size, history
      pair build: half/size/bin/newton
      stencil: half/bin/3d
      bin: standard
Setting up Verlet run ...
  Unit style    : micro
  Current step  : 0
  Time step     : 1e-05
Per MPI rank memory allocation (min/avg/max) = 40.02 | 40.03 | 40.03 Mbytes
   Step           Lx             Ly             Lz           Press           Pxx            Pyy            Pzz           KinEng         PotEng          Temp          c_1[1]         c_1[2]         c_1[3]    
         0   9000           100            100            0              0              0              0              0              0              0              5.9858794e-13  0              6            
    100000   9000           100            100            0.0071320896   3.0611832e-48  0              0.021396269    240507.63      0              1.1613253e+10  5.9858794e-13  0              4.1748102    
    200000   9000           100            100            0.0023508037  -1.7950962e-35  0              0.0070524111   53015.215      0              2.559915e+09   5.9858794e-13  0              3.254234     
    300000   9000           100            100            0.0014544527   9.7728454e-42  0              0.0043633582   25604.038      0              1.2363274e+09  5.9858794e-13  0              3.0247496    
    400000   9000           100            100           -0.00051199324  4.7653643e-41  0             -0.0015359797   4856.5187      0              2.3450391e+08  5.9858794e-13  0              3.0082632    
    500000   9000           100            100           -0.00024427659 -3.5901899e-35  0             -0.00073282976  1030.0067      0              49735337       5.9858794e-13  0              3.0023382    
    600000   9000           100            100            0.026707245    3.5901955e-35  0              0.080121734    0.58458664     0              28227.597      5.9858794e-13  0              2.9992896    
    700000   9000           100            100            0.012559453    7.180388e-35   0              0.037678359    5.65866        0              273236.44      5.9858794e-13  0              2.9995708    
    800000   9000           100            100            0.0024723728  -8.9754835e-36  0              0.0074171184   4.4401882      0              214400.8       5.9858794e-13  0              2.9998553    
    900000   9000           100            100            0.0045763193  -1.1219355e-36  0              0.013728958    1.4148384      0              68317.485      5.9858794e-13  0              2.9997805    
   1000000   9000           100            100            0.0047687622   2.8048388e-37  0              0.014306287    0.042489545    0              2051.6681      5.9858794e-13  0              2.9997748    
   1100000   9000           100            100            0.0043578439   1.4024194e-37  0              0.013073532    0.013562824    0              654.90024      5.9858794e-13  0              2.9997879    
   1200000   9000           100            100            0.0044198214   7.0120969e-38  0              0.013259464    0.002303752    0              111.23994      5.9858794e-13  0              2.9997859    
   1300000   9000           100            100            0.0044626882   3.743148e-49   0              0.013388065    4.8526459e-05  0              2.3431691      5.9858794e-13  0              2.9997845    
   1400000   9000           100            100            0.0044469821   3.5060485e-38  0              0.013340946    5.7112537e-05  0              2.75776        5.9858794e-13  0              2.999785     
   1500000   9000           100            100            0.0044440818   1.5264484e-50  0              0.013332245    1.6385774e-07  0              0.0079121039   5.9858794e-13  0              2.9997851    
   1600000   9000           100            100            0.0044466611  -3.5060485e-38  0              0.013339983    8.5781662e-07  0              0.041420895    5.9858794e-13  0              2.999785     
   1700000   9000           100            100            0.0044465922  -3.5060485e-38  0              0.013339777    4.6488049e-08  0              0.0022447415   5.9858794e-13  0              2.999785     
   1800000   9000           100            100            0.0044462639   3.5060485e-38  0              0.013338792    7.1299316e-09  0              0.00034427888  5.9858794e-13  0              2.999785     
   1900000   9000           100            100            0.0044463305   1.3273496e-50  0              0.013338992    1.8692832e-09  0              9.0260996e-05  5.9858794e-13  0              2.999785     
   2000000   9000           100            100            0.0044463622   1.0518145e-37  0              0.013339086    1.2752073e-11  0              6.1575199e-07  5.9858794e-13  0              2.999785     
   2100000   9000           100            100            0.0044463478   5.2590727e-38  0              0.013339043    4.0055805e-11  0              1.9341515e-06  5.9858794e-13  0              2.999785     
   2200000   9000           100            100            0.0044463462  -1.7530242e-38  0              0.013339038    4.0595942e-13  0              1.9602327e-08  5.9858794e-13  0              2.999785     
   2300000   9000           100            100            0.0044463483   7.9889509e-57  0              0.013339045    5.2262308e-13  0              2.5235598e-08  5.9858794e-13  0              2.999785     
   2400000   9000           100            100            0.0044463482   1.7530242e-38  0              0.013339045    4.4127478e-14  0              2.130758e-09   5.9858794e-13  0              2.999785     
   2500000   9000           100            100            0.0044463479   2.5306931e-60  0              0.013339044    3.5170397e-15  0              1.6982526e-10  5.9858794e-13  0              2.999785     
   2600000   9000           100            100            0.004446348    1.0626914e-57  0              0.013339044    1.4690983e-15  0              7.09375e-11    5.9858794e-13  0              2.999785     
   2700000   9000           100            100            0.004446348    1.1118563e-58  0              0.013339044    7.5983145e-18  0              3.6689542e-13  5.9858794e-13  0              2.999785     
   2800000   9000           100            100            0.004446348    1.7530242e-38  0              0.013339044    2.5402359e-17  0              1.226589e-12   5.9858794e-13  0              2.999785     
   2900000   9000           100            100            0.004446348    2.1192364e-58  0              0.013339044    2.7163783e-18  0              1.3116419e-13  5.9858794e-13  0              2.999785     
   3000000   9000           100            100            0.004446348   -3.5060485e-38  0              0.013339044    5.5574683e-18  0              2.6835025e-13  5.9858794e-13  0              2.999785     
Loop time of 617.547 on 4 procs for 3000000 steps with 5001 atoms

Performance: 4197253.290 ns/day, 0.000 hours/ns, 4857.932 timesteps/s
100.0% CPU use with 4 MPI tasks x 1 OpenMP threads

MPI task timing breakdown:
Section |  min time  |  avg time  |  max time  |%varavg| %total
---------------------------------------------------------------
Pair    | 141.86     | 210.53     | 281.33     | 449.9 | 34.09
Neigh   | 0.73889    | 0.74583    | 0.75352    |   0.7 |  0.12
Comm    | 24.517     | 92.725     | 163.71     | 655.0 | 15.02
Output  | 0.30752    | 0.30783    | 0.3082     |   0.1 |  0.05
Modify  | 209.2      | 245.94     | 278.83     | 205.4 | 39.83
Other   |            | 67.29      |            |       | 10.90

Nlocal:        1250.25 ave        1500 max        1000 min
Histogram: 2 0 0 0 0 0 0 0 0 2
Nghost:           5.25 ave           6 max           4 min
Histogram: 1 0 0 0 0 1 0 0 0 2
Neighs:        1750.25 ave        2250 max        1250 min
Histogram: 2 0 0 0 0 0 0 0 0 2

Total # of neighbors = 7001
Ave neighs/atom = 1.39992
Neighbor list builds = 88
Dangerous builds = 0
  using 1 OpenMP thread(s) per MPI task
Lattice spacing in x,y,z = 3 3 3
Created orthogonal box = (-4500 -50 -50) to (4500 50 50)
  4 by 1 by 1 MPI processor grid
Created 3000 atoms
  using lattice units in orthogonal box = (-4500 -50 -50) to (4500 50 50)
  create_atoms CPU = 0.001 seconds
Lattice spacing in x,y,z = 3 3 3
Created 2001 atoms
  using lattice units in orthogonal box = (-4500 -50 -50) to (4500 50 50)
  create_atoms CPU = 0.001 seconds
Setting atom values ...
  3000 settings made for diameter
Setting atom values ...
  3000 settings made for mass
Setting atom values ...
  2001 settings made for diameter
Setting atom values ...
  2001 settings made for mass
3000 atoms in group substrate
2001 atoms in group slider1
5001 atoms in group substrate_slider
  1 rigid bodies with 2001 atoms
Generated 0 of 1 mixed pair_coeff terms from geometric mixing rule
Neighbor list info ...
  update every 1 steps, delay 0 steps, check yes
  max neighbors/atom: 2000, page size: 100000
  master list distance cutoff = 3.1
  ghost atom cutoff = 3.1
  binsize = 1.55, bins = 5807 65 65
  1 neighbor lists, perpetual/occasional/extra = 1 0 0
  (1) pair granular, perpetual
      attributes: half, newton on, size, history
      pair build: half/size/bin/newton
      stencil: half/bin/3d
      bin: standard
Setting up Verlet run ...
  Unit style    : micro
  Current step  : 0
  Time step     : 1e-05
Per MPI rank memory allocation (min/avg/max) = 40.02 | 40.03 | 40.03 Mbytes
   Step           Lx             Ly             Lz           Press           Pxx            Pyy            Pzz           KinEng         PotEng          Temp          c_1[1]         c_1[2]         c_1[3]    
         0   9000           100            100            0              0              0              0              0              0              0              5.9858794e-13  0              6            
    100000   9000           100            100            0.0087408464   3.0611832e-48  0              0.026222539    375793.17      0              1.8145707e+10  5.9858794e-13  0              3.7185127    
    200000   9000           100            100           -0.0016926414   5.7443118e-34  0             -0.0050779241   78971.235      0              3.8132383e+09  5.9858794e-13  0              3.1011214    
    300000   9000           100            100            0.00074518996  7.1803959e-35  0              0.0022355699   7427.5296      0              3.5864882e+08  5.9858794e-13  0              3.0647833    
    400000   9000           100            100            0.00031189853  7.1803979e-35  0              0.00093569558  1459.9067      0              70493669       5.9858794e-13  0              3.0163432    
    500000   9000           100            100           -0.00032016821  1.1203854e-40  0             -0.00096050462  1808.0669      0              87305078       5.9858794e-13  0              3.0006669    
    600000   9000           100            100           -8.8436253e-05  7.1304731e-41  0             -0.00026530876  129.64404      0              6260046.9      5.9858794e-13  0              3.0005314    
    700000   9000           100            100            1.2792408e-05  2.6229943e-41  0              3.8377225e-05  7.7438481      0              373922.71      5.9858794e-13  0              2.9999915    
    800000   9000           100            100            0.0060762502  -4.4877413e-36  0              0.018228751    10.240523      0              494478.2       5.9858794e-13  0              2.999736     
    900000   9000           100            100            0.0052558083   6.7861319e-44  0              0.015767425    1.2676287      0              61209.251      5.9858794e-13  0              2.9997599    
   1000000   9000           100            100            0.0054075047  -1.1219355e-36  0              0.016222514    0.15256449     0              7366.7932      5.9858794e-13  0              2.9997551    
   1100000   9000           100            100            0.0054942266   2.8048388e-37  0              0.01648268     0.01864523     0              900.31145      5.9858794e-13  0              2.9997525    
   1200000   9000           100            100            0.0055317836   5.1316808e-48  0              0.016595351    0.0022568556   0              108.97548      5.9858794e-13  0              2.9997513    
   1300000   9000           100            100            0.0055473679  -7.0120969e-38  0              0.016642104    0.00026926351  0              13.001771      5.9858794e-13  0              2.9997508    
   1400000   9000           100            100            0.0055537022   5.8927757e-48  0              0.016661107    3.1609933e-05  0              1.5263305      5.9858794e-13  0              2.9997507    
   1500000   9000           100            100            0.0055562362  -1.4024194e-37  0              0.016668709    3.6444926e-06  0              0.17597951     5.9858794e-13  0              2.9997506    
   1600000   9000           100            100            0.0055572365   5.2051314e-50  0              0.01667171     4.1165834e-07  0              0.019877508    5.9858794e-13  0              2.9997505    
   1700000   9000           100            100            0.005557627    7.0120969e-38  0              0.016672881    4.5400093e-08  0              0.002192208    5.9858794e-13  0              2.9997505    
   1800000   9000           100            100            0.005557778    1.9426682e-50  0              0.016673334    4.8660707e-09  0              0.00023496514  5.9858794e-13  0              2.9997505    
   1900000   9000           100            100            0.0055578358   7.0120969e-38  0              0.016673507    5.035282e-10   0              2.4313575e-05  5.9858794e-13  0              2.9997505    
   2000000   9000           100            100            0.0055578578   1.2991051e-52  0              0.016673574    4.9824129e-11  0              2.4058289e-06  5.9858794e-13  0              2.9997505    
   2100000   9000           100            100            0.0055578661   9.4076096e-56  0              0.016673598    4.6457452e-12  0              2.2432641e-07  5.9858794e-13  0              2.9997505    
   2200000   9000           100            100            0.0055578693  -3.5060485e-38  0              0.016673608    3.9717572e-13  0              1.9178194e-08  5.9858794e-13  0              2.9997505    
   2300000   9000           100            100            0.0055578704  -3.5060485e-38  0              0.016673611    2.9279736e-14  0              1.4138137e-09  5.9858794e-13  0              2.9997505    
   2400000   9000           100            100            0.0055578709  -1.4024194e-37  0              0.016673613    1.7675627e-15  0              8.5349278e-11  5.9858794e-13  0              2.9997505    
   2500000   9000           100            100            0.005557871   -1.4024194e-37  0              0.016673613    8.1609593e-17  0              3.9406352e-12  5.9858794e-13  0              2.9997505    
   2600000   9000           100            100            0.0055578711   1.1478926e-57  0              0.016673613    1.9731376e-20  0              9.5275752e-16  5.9858794e-13  0              2.9997505    
   2700000   9000           100            100            0.0055578711  -7.0120969e-38  0              0.016673613    1.9975481e-17  0              9.645445e-13   5.9858794e-13  0              2.9997505    
   2800000   9000           100            100            0.0055578711   1.1742378e-57  0              0.016673613    2.276216e-17   0              1.0991032e-12  5.9858794e-13  0              2.9997505    
   2900000   9000           100            100            0.0055578711  -3.5060485e-38  0              0.016673613    1.501561e-17   0              7.2505009e-13  5.9858794e-13  0              2.9997505    
   3000000   9000           100            100            0.0055578711   7.0120969e-38  0              0.016673613    1.2951145e-17  0              6.2536442e-13  5.9858794e-13  0              2.9997505    
Loop time of 615.832 on 4 procs for 3000000 steps with 5001 atoms

Performance: 4208941.769 ns/day, 0.000 hours/ns, 4871.460 timesteps/s
100.0% CPU use with 4 MPI tasks x 1 OpenMP threads

MPI task timing breakdown:
Section |  min time  |  avg time  |  max time  |%varavg| %total
---------------------------------------------------------------
Pair    | 141.73     | 211.3      | 280.73     | 476.3 | 34.31
Neigh   | 0.79864    | 0.80645    | 0.81451    |   0.8 |  0.13
Comm    | 25.827     | 94.976     | 165.4      | 708.9 | 15.42
Output  | 0.30807    | 0.30843    | 0.30882    |   0.1 |  0.05
Modify  | 206.41     | 241.44     | 275.74     | 220.7 | 39.21
Other   |            | 67         |            |       | 10.88

Nlocal:        1250.25 ave        1500 max        1000 min
Histogram: 2 0 0 0 0 0 0 0 0 2
Nghost:           5.25 ave           6 max           4 min
Histogram: 1 0 0 0 0 1 0 0 0 2
Neighs:        1750.25 ave        2250 max        1250 min
Histogram: 2 0 0 0 0 0 0 0 0 2

Total # of neighbors = 7001
Ave neighs/atom = 1.39992
Neighbor list builds = 96
Dangerous builds = 0
  using 1 OpenMP thread(s) per MPI task
Lattice spacing in x,y,z = 3 3 3
Created orthogonal box = (-4500 -50 -50) to (4500 50 50)
  4 by 1 by 1 MPI processor grid
Created 3000 atoms
  using lattice units in orthogonal box = (-4500 -50 -50) to (4500 50 50)
  create_atoms CPU = 0.001 seconds
Lattice spacing in x,y,z = 3 3 3
Created 2001 atoms
  using lattice units in orthogonal box = (-4500 -50 -50) to (4500 50 50)
  create_atoms CPU = 0.001 seconds
Setting atom values ...
  3000 settings made for diameter
Setting atom values ...
  3000 settings made for mass
Setting atom values ...
  2001 settings made for diameter
Setting atom values ...
  2001 settings made for mass
3000 atoms in group substrate
2001 atoms in group slider1
5001 atoms in group substrate_slider
  1 rigid bodies with 2001 atoms
Generated 0 of 1 mixed pair_coeff terms from geometric mixing rule
Neighbor list info ...
  update every 1 steps, delay 0 steps, check yes
  max neighbors/atom: 2000, page size: 100000
  master list distance cutoff = 3.1
  ghost atom cutoff = 3.1
  binsize = 1.55, bins = 5807 65 65
  1 neighbor lists, perpetual/occasional/extra = 1 0 0
  (1) pair granular, perpetual
      attributes: half, newton on, size, history
      pair build: half/size/bin/newton
      stencil: half/bin/3d
      bin: standard
Setting up Verlet run ...
  Unit style    : micro
  Current step  : 0
  Time step     : 1e-05
Per MPI rank memory allocation (min/avg/max) = 40.02 | 40.03 | 40.03 Mbytes
   Step           Lx             Ly             Lz           Press           Pxx            Pyy            Pzz           KinEng         PotEng          Temp          c_1[1]         c_1[2]         c_1[3]    
         0   9000           100            100            0              0              0              0              0              0              0              5.9858794e-13  0              6            
    100000   9000           100            100            0.010279897    3.0611832e-48  0              0.030839691    541142.17      0              2.6129819e+10  5.9858794e-13  0              3.2622153    
    200000   9000           100            100           -6.4648784e-05  7.8984284e-34  0             -0.00019394635  57.984047      0              2799842.1      5.9858794e-13  0              3.2629212    
    300000   9000           100            100           -0.00041648507 -3.590191e-34   0             -0.0012494552   3005.772       0              1.4513797e+08  5.9858794e-13  0              3.0612488    
    400000   9000           100            100            0.074370667   -7.1803718e-35  0              0.223112       7451.1881      0              3.5979121e+08  5.9858794e-13  0              2.9986031    
    500000   9000           100            100            0.00013330604  1.8494436e-40  0              0.00039991813  280.08437      0              13524272       5.9858794e-13  0              3.0035084    
    600000   9000           100            100            0.0045350329   1.2417441e-40  0              0.013605099    501.21054      0              24201663       5.9858794e-13  0              2.999788     
    700000   9000           100            100            0.0015536333   3.5901952e-35  0              0.0046608999   37.252144      0              1798772.7      5.9858794e-13  0              2.9998912    
    800000   9000           100            100            0.0096251022   2.6926453e-35  0              0.028875307    0.52287368     0              25247.699      5.9858794e-13  0              2.9996404    
    900000   9000           100            100            0.0077315919   1.8796327e-44  0              0.023194776    0.024295896    0              1173.1619      5.9858794e-13  0              2.9996891    
   1000000   9000           100            100            0.0070406795   5.6096776e-37  0              0.021122038    0.011810272    0              570.27575      5.9858794e-13  0              2.9997079    
   1100000   9000           100            100            0.0067770308   5.5686697e-47  0              0.020331093    0.0095562339   0              461.43633      5.9858794e-13  0              2.9997152    
   1200000   9000           100            100            0.0066917433   1.4024194e-37  0              0.02007523     0.0025490841   0              123.08615      5.9858794e-13  0              2.9997176    
   1300000   9000           100            100            0.0066699905   7.0120969e-38  0              0.020009972    0.00041927994  0              20.245528      5.9858794e-13  0              2.9997183    
   1400000   9000           100            100            0.0066668393   8.1446159e-48  0              0.020000518    4.7230151e-05  0              2.280575       5.9858794e-13  0              2.9997184    
   1500000   9000           100            100            0.0066676204   7.0120969e-38  0              0.020002861    3.3921335e-06  0              0.16379399     5.9858794e-13  0              2.9997183    
   1600000   9000           100            100            0.0066685502   7.0120969e-38  0              0.020005651    9.7025274e-08  0              0.0046850033   5.9858794e-13  0              2.9997183    
   1700000   9000           100            100            0.006669061   -7.0120969e-38  0              0.020007183    1.342611e-09   0              6.482988e-05   5.9858794e-13  0              2.9997183    
   1800000   9000           100            100            0.0066692756   7.0120969e-38  0              0.020007827    4.2401152e-09  0              0.00020473999  5.9858794e-13  0              2.9997183    
   1900000   9000           100            100            0.0066693501  -4.2072582e-37  0              0.02000805     1.4544122e-09  0              7.0228362e-05  5.9858794e-13  0              2.9997183    
   2000000   9000           100            100            0.006669371    2.021571e-52   0              0.020008113    2.7540671e-10  0              1.3298405e-05  5.9858794e-13  0              2.9997183    
   2100000   9000           100            100            0.006669375    1.7906571e-55  0              0.020008125    3.5206608e-11  0              1.7000011e-06  5.9858794e-13  0              2.9997183    
   2200000   9000           100            100            0.0066693749   1.4024194e-37  0              0.020008125    3.0007996e-12  0              1.4489787e-07  5.9858794e-13  0              2.9997183    
   2300000   9000           100            100            0.0066693743  -2.1036291e-37  0              0.020008123    1.303679e-13   0              6.2949991e-09  5.9858794e-13  0              2.9997183    
   2400000   9000           100            100            0.0066693739  -7.0120969e-38  0              0.020008122    8.185617e-17   0              3.9525415e-12  5.9858794e-13  0              2.9997183    
   2500000   9000           100            100            0.0066693737  -7.0120969e-38  0              0.020008121    1.7465304e-15  0              8.43337e-11    5.9858794e-13  0              2.9997183    
   2600000   9000           100            100            0.0066693737  -2.8048388e-37  0              0.020008121    7.5986059e-16  0              3.6690949e-11  5.9858794e-13  0              2.9997183    
   2700000   9000           100            100            0.0066693736   4.0327814e-57  0              0.020008121    1.9198393e-16  0              9.2702169e-12  5.9858794e-13  0              2.9997183    
   2800000   9000           100            100            0.0066693736  -7.0120969e-38  0              0.020008121    2.3249789e-20  0              1.1226491e-15  5.9858794e-13  0              2.9997183    
   2900000   9000           100            100            0.0066693736   7.0120969e-38  0              0.020008121    1.0404374e-17  0              5.0238997e-13  5.9858794e-13  0              2.9997183    
   3000000   9000           100            100            0.0066693736   3.167373e-57   0              0.020008121    1.3708346e-17  0              6.6192695e-13  5.9858794e-13  0              2.9997183    
Loop time of 620.216 on 4 procs for 3000000 steps with 5001 atoms

Performance: 4179191.472 ns/day, 0.000 hours/ns, 4837.027 timesteps/s
100.0% CPU use with 4 MPI tasks x 1 OpenMP threads

MPI task timing breakdown:
Section |  min time  |  avg time  |  max time  |%varavg| %total
---------------------------------------------------------------
Pair    | 140.6      | 210.21     | 281.94     | 468.8 | 33.89
Neigh   | 0.83812    | 0.84622    | 0.85429    |   0.7 |  0.14
Comm    | 24.706     | 94.922     | 165.62     | 683.8 | 15.30
Output  | 0.31042    | 0.31074    | 0.31111    |   0.1 |  0.05
Modify  | 208.62     | 245.27     | 280.83     | 214.8 | 39.55
Other   |            | 68.66      |            |       | 11.07

Nlocal:        1250.25 ave        1500 max        1000 min
Histogram: 2 0 0 0 0 0 0 0 0 2
Nghost:           5.25 ave           6 max           4 min
Histogram: 1 0 0 0 0 1 0 0 0 2
Neighs:        1750.25 ave        2250 max        1250 min
Histogram: 2 0 0 0 0 0 0 0 0 2

Total # of neighbors = 7001
Ave neighs/atom = 1.39992
Neighbor list builds = 100
Dangerous builds = 0
  using 1 OpenMP thread(s) per MPI task
Lattice spacing in x,y,z = 3 3 3
Created orthogonal box = (-4500 -50 -50) to (4500 50 50)
  4 by 1 by 1 MPI processor grid
Created 3000 atoms
  using lattice units in orthogonal box = (-4500 -50 -50) to (4500 50 50)
  create_atoms CPU = 0.001 seconds
Lattice spacing in x,y,z = 3 3 3
Created 2001 atoms
  using lattice units in orthogonal box = (-4500 -50 -50) to (4500 50 50)
  create_atoms CPU = 0.001 seconds
Setting atom values ...
  3000 settings made for diameter
Setting atom values ...
  3000 settings made for mass
Setting atom values ...
  2001 settings made for diameter
Setting atom values ...
  2001 settings made for mass
3000 atoms in group substrate
2001 atoms in group slider1
5001 atoms in group substrate_slider
  1 rigid bodies with 2001 atoms
Generated 0 of 1 mixed pair_coeff terms from geometric mixing rule
Neighbor list info ...
  update every 1 steps, delay 0 steps, check yes
  max neighbors/atom: 2000, page size: 100000
  master list distance cutoff = 3.1
  ghost atom cutoff = 3.1
  binsize = 1.55, bins = 5807 65 65
  1 neighbor lists, perpetual/occasional/extra = 1 0 0
  (1) pair granular, perpetual
      attributes: half, newton on, size, history
      pair build: half/size/bin/newton
      stencil: half/bin/3d
      bin: standard
Setting up Verlet run ...
  Unit style    : micro
  Current step  : 0
  Time step     : 1e-05
Per MPI rank memory allocation (min/avg/max) = 40.02 | 40.03 | 40.03 Mbytes
   Step           Lx             Ly             Lz           Press           Pxx            Pyy            Pzz           KinEng         PotEng          Temp          c_1[1]         c_1[2]         c_1[3]    
         0   9000           100            100            0              0              0              0              0              0              0              5.9858794e-13  0              6            
    100000   9000           100            100           -0.0020741935   7.1803932e-35  0             -0.0062225804   522168.9       0              2.5213667e+10  5.9858794e-13  0              3.1464453    
    200000   9000           100            100            0.0021209329   3.5901961e-35  0              0.0063627986   45066.563      0              2.176103e+09   5.9858794e-13  0              3.2214917    
    300000   9000           100            100            0.0017734979   2.2082811e-41  0              0.0053204936   36406.731      0              1.7579507e+09  5.9858794e-13  0              3.0160807    
    400000   9000           100            100           -0.00059658766 -7.1803809e-35  0             -0.001789763    6774.0625      0              3.2709523e+08  5.9858794e-13  0              3.0061602    
    500000   9000           100            100            0.00037398224  1.0770585e-34  0              0.0011219467   2091.5695      0              1.0099441e+08  5.9858794e-13  0              3.0006975    
    600000   9000           100            100            0.0021663291  -7.1803838e-35  0              0.0064989874   491.52289      0              23733881       5.9858794e-13  0              2.9998743    
    700000   9000           100            100            0.0078130232  -8.975483e-36   0              0.02343907     82.516091      0              3984406.7      5.9858794e-13  0              2.999685     
    800000   9000           100            100            0.0098154469  -2.2438708e-36  0              0.029446341    6.2719185      0              302848.5       5.9858794e-13  0              2.999636     
    900000   9000           100            100            0.0083071577  -6.731613e-36   0              0.024921473    1.1161689      0              53895.8        5.9858794e-13  0              2.9996741    
   1000000   9000           100            100            0.0079760174  -2.8048387e-37  0              0.023928052    0.14407835     0              6957.0278      5.9858794e-13  0              2.9996827    
   1100000   9000           100            100            0.0078565676  -1.4024194e-37  0              0.023569703    0.018014693    0              869.86505      5.9858794e-13  0              2.9996858    
   1200000   9000           100            100            0.0078101656   1.801466e-46   0              0.023430497    0.0022354851   0              107.94357      5.9858794e-13  0              2.999687     
   1300000   9000           100            100            0.0077921366   1.0780886e-50  0              0.02337641     0.0002759572   0              13.324985      5.9858794e-13  0              2.9996875    
   1400000   9000           100            100            0.0077851749   3.5185305e-48  0              0.023355525    3.3878007e-05  0              1.6358477      5.9858794e-13  0              2.9996877    
   1500000   9000           100            100            0.0077825021   1.8939399e-49  0              0.023347506    4.1340819e-06  0              0.19962002     5.9858794e-13  0              2.9996877    
   1600000   9000           100            100            0.0077814811  -7.0120969e-38  0              0.023344443    5.0118104e-07  0              0.024200239    5.9858794e-13  0              2.9996878    
   1700000   9000           100            100            0.0077810928   1.0518145e-37  0              0.023343278    6.0329042e-08  0              0.0029130735   5.9858794e-13  0              2.9996878    
   1800000   9000           100            100            0.0077809457   3.0102894e-50  0              0.023342837    7.2056541e-09  0              0.00034793525  5.9858794e-13  0              2.9996878    
   1900000   9000           100            100            0.0077808902   4.4463224e-51  0              0.023342671    8.5329581e-10  0              4.1202601e-05  5.9858794e-13  0              2.9996878    
   2000000   9000           100            100            0.0077808693  -7.0120969e-38  0              0.023342608    1.0007727e-10  0              4.8323734e-06  5.9858794e-13  0              2.9996878    
   2100000   9000           100            100            0.0077808615   3.5060485e-37  0              0.023342584    1.1604536e-11  0              5.6034151e-07  5.9858794e-13  0              2.9996878    
   2200000   9000           100            100            0.0077808586   7.0120969e-38  0              0.023342576    1.327807e-12   0              6.411505e-08   5.9858794e-13  0              2.9996878    
   2300000   9000           100            100            0.0077808575  -3.5060485e-38  0              0.023342572    1.5077144e-13  0              7.2802131e-09  5.9858794e-13  0              2.9996878    
   2400000   9000           100            100            0.0077808571   1.3490725e-57  0              0.023342571    1.7068109e-14  0              8.241579e-10   5.9858794e-13  0              2.9996878    
   2500000   9000           100            100            0.0077808569   7.0120969e-38  0              0.023342571    1.8619792e-15  0              8.9908311e-11  5.9858794e-13  0              2.9996878    
   2600000   9000           100            100            0.0077808569   1.4554819e-57  0              0.023342571    1.9595072e-16  0              9.461759e-12   5.9858794e-13  0              2.9996878    
   2700000   9000           100            100            0.0077808568   1.0140073e-57  0              0.023342571    6.5132339e-18  0              3.1450075e-13  5.9858794e-13  0              2.9996878    
   2800000   9000           100            100            0.0077808568  -7.0120969e-38  0              0.02334257     2.4475685e-17  0              1.1818432e-12  5.9858794e-13  0              2.9996878    
   2900000   9000           100            100            0.0077808568  -7.0120969e-38  0              0.02334257     6.3807871e-18  0              3.0810537e-13  5.9858794e-13  0              2.9996878    
   3000000   9000           100            100            0.0077808568   9.1111335e-58  0              0.02334257     1.5814015e-18  0              7.6360221e-14  5.9858794e-13  0              2.9996878    
Loop time of 622.533 on 4 procs for 3000000 steps with 5001 atoms

Performance: 4163633.519 ns/day, 0.000 hours/ns, 4819.020 timesteps/s
100.0% CPU use with 4 MPI tasks x 1 OpenMP threads

MPI task timing breakdown:
Section |  min time  |  avg time  |  max time  |%varavg| %total
---------------------------------------------------------------
Pair    | 140.39     | 215.1      | 286.17     | 473.8 | 34.55
Neigh   | 0.91232    | 0.92294    | 0.93255    |   0.8 |  0.15
Comm    | 26.352     | 95.835     | 167.4      | 700.5 | 15.39
Output  | 0.3068     | 0.30714    | 0.30752    |   0.1 |  0.05
Modify  | 206.91     | 243.01     | 278.26     | 217.8 | 39.04
Other   |            | 67.35      |            |       | 10.82

Nlocal:        1250.25 ave        1500 max        1000 min
Histogram: 2 0 0 0 0 0 0 0 0 2
Nghost:           5.25 ave           6 max           4 min
Histogram: 1 0 0 0 0 1 0 0 0 2
Neighs:        1750.25 ave        2250 max        1250 min
Histogram: 2 0 0 0 0 0 0 0 0 2

Total # of neighbors = 7001
Ave neighs/atom = 1.39992
Neighbor list builds = 110
Dangerous builds = 0
  using 1 OpenMP thread(s) per MPI task
Lattice spacing in x,y,z = 3 3 3
Created orthogonal box = (-4500 -50 -50) to (4500 50 50)
  4 by 1 by 1 MPI processor grid
Created 3000 atoms
  using lattice units in orthogonal box = (-4500 -50 -50) to (4500 50 50)
  create_atoms CPU = 0.001 seconds
Lattice spacing in x,y,z = 3 3 3
Created 2001 atoms
  using lattice units in orthogonal box = (-4500 -50 -50) to (4500 50 50)
  create_atoms CPU = 0.001 seconds
Setting atom values ...
  3000 settings made for diameter
Setting atom values ...
  3000 settings made for mass
Setting atom values ...
  2001 settings made for diameter
Setting atom values ...
  2001 settings made for mass
3000 atoms in group substrate
2001 atoms in group slider1
5001 atoms in group substrate_slider
  1 rigid bodies with 2001 atoms
Generated 0 of 1 mixed pair_coeff terms from geometric mixing rule
Neighbor list info ...
  update every 1 steps, delay 0 steps, check yes
  max neighbors/atom: 2000, page size: 100000
  master list distance cutoff = 3.1
  ghost atom cutoff = 3.1
  binsize = 1.55, bins = 5807 65 65
  1 neighbor lists, perpetual/occasional/extra = 1 0 0
  (1) pair granular, perpetual
      attributes: half, newton on, size, history
      pair build: half/size/bin/newton
      stencil: half/bin/3d
      bin: standard
Setting up Verlet run ...
  Unit style    : micro
  Current step  : 0
  Time step     : 1e-05
Per MPI rank memory allocation (min/avg/max) = 40.02 | 40.03 | 40.03 Mbytes
   Step           Lx             Ly             Lz           Press           Pxx            Pyy            Pzz           KinEng         PotEng          Temp          c_1[1]         c_1[2]         c_1[3]    
         0   9000           100            100            0              0              0              0              0              0              0              5.9858794e-13  0              6            
    100000   9000           100            100           -0.0026883881   1.4360784e-34  0             -0.0080651644   265808.29      0              1.2834931e+10  5.9858794e-13  0              3.4564499    
    200000   9000           100            100            0.0044431346   7.180392e-35   0              0.013329404    163595.54      0              7.8994431e+09  5.9858794e-13  0              3.0571054    
    300000   9000           100            100           -9.1935215e-05 -1.4360759e-34  0             -0.00027580564  134.28329      0              6484059.6      5.9858794e-13  0              3.062592     
    400000   9000           100            100           -0.00053268898 -7.1803705e-35  0             -0.0015980669   5286.5168      0              2.5526698e+08  5.9858794e-13  0              3.0085337    
    500000   9000           100            100            0.00041036837 -3.5901924e-34  0              0.0012311051   2499.6817      0              1.2070069e+08  5.9858794e-13  0              3.0003427    
    600000   9000           100            100           -8.6111909e-05 -1.4360767e-34  0             -0.00025833573  122.66155      0              5922887.1      5.9858794e-13  0              3.0003558    
    700000   9000           100            100            0.0038162126  -8.9754816e-36  0              0.011448638    50.860518      0              2455872.4      5.9858794e-13  0              2.9998039    
    800000   9000           100            100            0.01116266     4.4877428e-36  0              0.033487981    5.7231457      0              276350.22      5.9858794e-13  0              2.9996033    
    900000   9000           100            100            0.0084066377  -1.1219355e-36  0              0.025219913    1.2044388      0              58158.04       5.9858794e-13  0              2.9996715    
   1000000   9000           100            100            0.0084854303  -7.0120969e-38  0              0.025456291    0.0017828801   0              86.088901      5.9858794e-13  0              2.9996692    
   1100000   9000           100            100            0.0088009954   2.1665184e-46  0              0.026402986    0.01598454     0              771.83625      5.9858794e-13  0              2.999661     
   1200000   9000           100            100            0.0089106525  -7.1216608e-39  0              0.026731957    0.0029470564   0              142.30281      5.9858794e-13  0              2.9996582    
   1300000   9000           100            100            0.0089113794   9.9060104e-49  0              0.026734138    1.9316566e-05  0              0.93272783     5.9858794e-13  0              2.9996582    
   1400000   9000           100            100            0.0088972844  -1.4024194e-37  0              0.026691853    2.9314912e-05  0              1.4155122      5.9858794e-13  0              2.9996586    
   1500000   9000           100            100            0.0088917438   1.4024194e-37  0              0.026675231    7.1284135e-06  0              0.34420557     5.9858794e-13  0              2.9996587    
   1600000   9000           100            100            0.0088914477   9.6675913e-51  0              0.026674343    1.0437413e-07  0              0.0050398534   5.9858794e-13  0              2.9996587    
   1700000   9000           100            100            0.0088920593   5.1880156e-50  0              0.026676178    5.0618156e-08  0              0.0024441696   5.9858794e-13  0              2.9996587    
   1800000   9000           100            100            0.0088923347   7.0120969e-38  0              0.026677004    1.673523e-08   0              0.00080808436  5.9858794e-13  0              2.9996587    
   1900000   9000           100            100            0.0088923611   1.4024194e-37  0              0.026677083    4.2219626e-10  0              2.0386346e-05  5.9858794e-13  0              2.9996587    
   2000000   9000           100            100            0.0088923352   4.2173608e-53  0              0.026677006    8.1162059e-11  0              3.9190254e-06  5.9858794e-13  0              2.9996587    
   2100000   9000           100            100            0.0088923217   1.0955579e-54  0              0.026676965    3.8164005e-11  0              1.8428032e-06  5.9858794e-13  0              2.9996587    
   2200000   9000           100            100            0.0088923199  -5.6096775e-37  0              0.02667696     1.4606285e-12  0              7.0528524e-08  5.9858794e-13  0              2.9996587    
   2300000   9000           100            100            0.008892321    1.4024194e-37  0              0.026676963    1.1788789e-13  0              5.6923842e-09  5.9858794e-13  0              2.9996587    
   2400000   9000           100            100            0.0088923216   3.9203796e-57  0              0.026676965    8.4554828e-14  0              4.08285e-09    5.9858794e-13  0              2.9996587    
   2500000   9000           100            100            0.0088923217   1.4024194e-37  0              0.026676965    4.5415929e-15  0              2.1929727e-10  5.9858794e-13  0              2.9996587    
   2600000   9000           100            100            0.0088923217  -7.0120969e-38  0              0.026676965    1.5209884e-16  0              7.3443085e-12  5.9858794e-13  0              2.9996587    
   2700000   9000           100            100            0.0088923216   4.1049127e-57  0              0.026676965    9.4739249e-17  0              4.5746193e-12  5.9858794e-13  0              2.9996587    
   2800000   9000           100            100            0.0088923216  -2.8048388e-37  0              0.026676965    1.3883049e-19  0              6.7036277e-15  5.9858794e-13  0              2.9996587    
   2900000   9000           100            100            0.0088923216   1.4024194e-37  0              0.026676965    5.9235177e-18  0              2.8602547e-13  5.9858794e-13  0              2.9996587    
   3000000   9000           100            100            0.0088923216  -1.4024194e-37  0              0.026676965    9.1276294e-18  0              4.4074056e-13  5.9858794e-13  0              2.9996587    
Loop time of 626.917 on 4 procs for 3000000 steps with 5001 atoms

Performance: 4134519.521 ns/day, 0.000 hours/ns, 4785.324 timesteps/s
100.0% CPU use with 4 MPI tasks x 1 OpenMP threads

MPI task timing breakdown:
Section |  min time  |  avg time  |  max time  |%varavg| %total
---------------------------------------------------------------
Pair    | 134.61     | 207.63     | 285.48     | 491.8 | 33.12
Neigh   | 0.96189    | 0.97064    | 0.97984    |   0.8 |  0.15
Comm    | 25.035     | 99.548     | 176.19     | 679.5 | 15.88
Output  | 0.30826    | 0.30862    | 0.30901    |   0.1 |  0.05
Modify  | 211.06     | 250.3      | 283.74     | 204.5 | 39.93
Other   |            | 68.17      |            |       | 10.87

Nlocal:        1250.25 ave        1500 max        1000 min
Histogram: 2 0 0 0 0 0 0 0 0 2
Nghost:           5.25 ave           6 max           4 min
Histogram: 1 0 0 0 0 1 0 0 0 2
Neighs:        1750.25 ave        2250 max        1250 min
Histogram: 2 0 0 0 0 0 0 0 0 2

Total # of neighbors = 7001
Ave neighs/atom = 1.39992
Neighbor list builds = 114
Dangerous builds = 0
  using 1 OpenMP thread(s) per MPI task
Lattice spacing in x,y,z = 3 3 3
Created orthogonal box = (-4500 -50 -50) to (4500 50 50)
  4 by 1 by 1 MPI processor grid
Created 3000 atoms
  using lattice units in orthogonal box = (-4500 -50 -50) to (4500 50 50)
  create_atoms CPU = 0.001 seconds
Lattice spacing in x,y,z = 3 3 3
Created 2001 atoms
  using lattice units in orthogonal box = (-4500 -50 -50) to (4500 50 50)
  create_atoms CPU = 0.001 seconds
Setting atom values ...
  3000 settings made for diameter
Setting atom values ...
  3000 settings made for mass
Setting atom values ...
  2001 settings made for diameter
Setting atom values ...
  2001 settings made for mass
3000 atoms in group substrate
2001 atoms in group slider1
5001 atoms in group substrate_slider
  1 rigid bodies with 2001 atoms
Generated 0 of 1 mixed pair_coeff terms from geometric mixing rule
Neighbor list info ...
  update every 1 steps, delay 0 steps, check yes
  max neighbors/atom: 2000, page size: 100000
  master list distance cutoff = 3.1
  ghost atom cutoff = 3.1
  binsize = 1.55, bins = 5807 65 65
  1 neighbor lists, perpetual/occasional/extra = 1 0 0
  (1) pair granular, perpetual
      attributes: half, newton on, size, history
      pair build: half/size/bin/newton
      stencil: half/bin/3d
      bin: standard
Setting up Verlet run ...
  Unit style    : micro
  Current step  : 0
  Time step     : 1e-05
Per MPI rank memory allocation (min/avg/max) = 40.02 | 40.03 | 40.03 Mbytes
   Step           Lx             Ly             Lz           Press           Pxx            Pyy            Pzz           KinEng         PotEng          Temp          c_1[1]         c_1[2]         c_1[3]    
         0   9000           100            100            0              0              0              0              0              0              0              5.9858794e-13  0              6            
    100000   9000           100            100           -0.0023832692   1.4360796e-34  0             -0.0071498075   114071.24      0              5.508092e+09   5.9858794e-13  0              3.6571286    
    200000   9000           100            100           -0.0017751815  -1.4360732e-34  0             -0.0053255445   89057.532      0              4.3002695e+09  5.9858794e-13  0              3.1217487    
    300000   9000           100            100            0.0020211484  -7.1803679e-35  0              0.0060634452   45692.857      0              2.2063445e+09  5.9858794e-13  0              3.0124725    
    400000   9000           100            100           -0.00061304481 -1.4360744e-34  0             -0.0018391344   7185.2848      0              3.4695169e+08  5.9858794e-13  0              3.0067084    
    500000   9000           100            100            0.00025455258 -1.4360754e-34  0              0.00076365774  994.1752       0              48005162       5.9858794e-13  0              3.0022168    
    600000   9000           100            100            6.6373546e-05 -1.4360761e-34  0              0.00019912064  70.950592      0              3425950.2      5.9858794e-13  0              3.0003809    
    700000   9000           100            100            0.0172974      1.7950977e-35  0              0.051892199    37.374568      0              1804684.1      5.9858794e-13  0              2.9994692    
    800000   9000           100            100            0.010366459    1.1219355e-36  0              0.031099378    11.558921      0              558138.92      5.9858794e-13  0              2.9996213    
    900000   9000           100            100            0.010238351   -2.2438709e-36  0              0.030715054    1.4768656      0              71312.556      5.9858794e-13  0              2.9996253    
   1000000   9000           100            100            0.0097129719   4.9084679e-37  0              0.029138916    0.10754532     0              5192.9784      5.9858794e-13  0              2.999638     
   1100000   9000           100            100            0.010152988    5.6096776e-37  0              0.030458965    0.0017845925   0              86.171587      5.9858794e-13  0              2.9996272    
   1200000   9000           100            100            0.0099506119   2.1451791e-48  0              0.029851836    0.00030245972  0              14.604697      5.9858794e-13  0              2.9996322    
   1300000   9000           100            100            0.010016781   -1.1219355e-36  0              0.030050344    0.00026143155  0              12.623594      5.9858794e-13  0              2.9996305    
   1400000   9000           100            100            0.010002775    3.6439537e-48  0              0.030008326    5.7841033e-05  0              2.7929365      5.9858794e-13  0              2.9996309    
   1500000   9000           100            100            0.010002672    2.8048388e-37  0              0.030008017    6.4164566e-06  0              0.30982773     5.9858794e-13  0              2.9996309    
   1600000   9000           100            100            0.010004569    7.0120969e-37  0              0.030013707    3.0578162e-07  0              0.0147651      5.9858794e-13  0              2.9996308    
   1700000   9000           100            100            0.010003423   -2.8048388e-37  0              0.03001027     4.1652236e-11  0              2.0112374e-06  5.9858794e-13  0              2.9996309    
   1800000   9000           100            100            0.010003875    1.4024194e-37  0              0.030011626    4.6840399e-09  0              0.00022617553  5.9858794e-13  0              2.9996308    
   1900000   9000           100            100            0.010003749   -1.4024194e-37  0              0.030011247    1.8219179e-09  0              8.7973895e-05  5.9858794e-13  0              2.9996308    
   2000000   9000           100            100            0.010003767   -1.4024194e-37  0              0.030011301    2.9358799e-10  0              1.4176313e-05  5.9858794e-13  0              2.9996308    
   2100000   9000           100            100            0.010003773   -1.4024194e-37  0              0.030011318    2.3867985e-11  0              1.1524996e-06  5.9858794e-13  0              2.9996308    
[...]
   2900000   9000           100            100            0.042229754    2.666828e-54   0              0.12668926     3.7600679e-20  0              1.8156022e-15  5.9858794e-13  0              2.9990356    
   3000000   9000           100            100            0.042229754    2.243871e-36   0              0.12668926     1.1951878e-20  0              5.7711341e-16  5.9858794e-13  0              2.9990356    
Loop time of 585.974 on 4 procs for 3000000 steps with 5001 atoms

Performance: 4423401.516 ns/day, 0.000 hours/ns, 5119.678 timesteps/s
100.0% CPU use with 4 MPI tasks x 1 OpenMP threads

MPI task timing breakdown:
Section |  min time  |  avg time  |  max time  |%varavg| %total
---------------------------------------------------------------
Pair    | 126.65     | 188.8      | 251.45     | 450.1 | 32.22
Neigh   | 1.9578     | 1.9778     | 1.9971     |   1.2 |  0.34
Comm    | 25.705     | 88.053     | 151.61     | 658.2 | 15.03
Output  | 0.34242    | 0.34273    | 0.34305    |   0.0 |  0.06
Modify  | 205.11     | 240.23     | 274.45     | 218.5 | 41.00
Other   |            | 66.57      |            |       | 11.36

Nlocal:        1250.25 ave        1500 max        1000 min
Histogram: 2 0 0 0 0 0 0 0 0 2
Nghost:           5.25 ave           6 max           4 min
Histogram: 1 0 0 0 0 1 0 0 0 2
Neighs:        1750.25 ave        2250 max        1250 min
Histogram: 2 0 0 0 0 0 0 0 0 2

Total # of neighbors = 7001
Ave neighs/atom = 1.39992
Neighbor list builds = 232
Dangerous builds = 0
  using 1 OpenMP thread(s) per MPI task
Lattice spacing in x,y,z = 3 3 3
Created orthogonal box = (-4500 -50 -50) to (4500 50 50)
  4 by 1 by 1 MPI processor grid
Created 3000 atoms
  using lattice units in orthogonal box = (-4500 -50 -50) to (4500 50 50)
  create_atoms CPU = 0.001 seconds
Lattice spacing in x,y,z = 3 3 3
Created 2001 atoms
  using lattice units in orthogonal box = (-4500 -50 -50) to (4500 50 50)
  create_atoms CPU = 0.001 seconds
Setting atom values ...
  3000 settings made for diameter
Setting atom values ...
  3000 settings made for mass
Setting atom values ...
  2001 settings made for diameter
Setting atom values ...
  2001 settings made for mass
3000 atoms in group substrate
2001 atoms in group slider1
5001 atoms in group substrate_slider
  1 rigid bodies with 2001 atoms
Generated 0 of 1 mixed pair_coeff terms from geometric mixing rule
Neighbor list info ...
  update every 1 steps, delay 0 steps, check yes
  max neighbors/atom: 2000, page size: 100000
  master list distance cutoff = 3.1
  ghost atom cutoff = 3.1
  binsize = 1.55, bins = 5807 65 65
  1 neighbor lists, perpetual/occasional/extra = 1 0 0
  (1) pair granular, perpetual
      attributes: half, newton on, size, history
      pair build: half/size/bin/newton
      stencil: half/bin/3d
      bin: standard
Setting up Verlet run ...
  Unit style    : micro
  Current step  : 0
  Time step     : 1e-05
Per MPI rank memory allocation (min/avg/max) = 40.02 | 40.03 | 40.03 Mbytes
   Step           Lx             Ly             Lz           Press           Pxx            Pyy            Pzz           KinEng         PotEng          Temp          c_1[1]         c_1[2]         c_1[3]    
         0   9000           100            100            0              0              0              0              0              0              0              5.9858794e-13  0              6            
    100000   9000           100            100            0.007890674   -2.8721175e-34  0              0.023672022    316553.89      0              1.5285254e+10  5.9858794e-13  0              3.7724223    
    200000   9000           100            100            0.011135447    1.1488655e-33  0              0.03340634     642065.05      0              3.1003023e+10  5.9858794e-13  0              3.0467841    
    300000   9000           100            100           -0.0015330207   5.7443844e-34  0             -0.0045990621   64105.292      0              3.0954151e+09  5.9858794e-13  0              3.033158     
    400000   9000           100            100            0.0019642755  -1.1488566e-33  0              0.0058928264   43792.018      0              2.1145598e+09  5.9858794e-13  0              3.0001296    
    500000   9000           100            100            0.16642436    -5.7442789e-34  0              0.49927307     1913.93        0              92416829       5.9858794e-13  0              2.9975968    
    600000   9000           100            100            0.015333668    2.7208358e-40  0              0.046001003    728.1437       0              35159453       5.9858794e-13  0              2.9995047    
    700000   9000           100            100            0.050832175   -8.9754823e-36  0              0.15249652     140.91337      0              6804202.5      5.9858794e-13  0              2.9989074    
    800000   9000           100            100            0.038936431   -4.487742e-36   0              0.11680929     9.4445723      0              456044.59      5.9858794e-13  0              2.9990861    
    900000   9000           100            100            0.042161366    3.4437256e-46  0              0.1264841      1.9709941      0              95172.249      5.9858794e-13  0              2.9990369    
   1000000   9000           100            100            0.044007611    6.1059774e-45  0              0.13202283     0.07559979     0              3650.4433      5.9858794e-13  0              2.9990088    
   1100000   9000           100            100            0.043423213   -2.243871e-36   0              0.13026964     0.043460753    0              2098.5642      5.9858794e-13  0              2.9990175    
   1200000   9000           100            100            0.043246888   -4.487742e-36   0              0.12974066     0.00018127615  0              8.7531765      5.9858794e-13  0              2.9990202    
   1300000   9000           100            100            0.043340049   -2.243871e-36   0              0.13002015     0.00079088932  0              38.189215      5.9858794e-13  0              2.9990188    
   1400000   9000           100            100            0.043352944    4.487742e-36   0              0.13005883     1.4676868e-06  0              0.070869341    5.9858794e-13  0              2.9990186    
   1500000   9000           100            100            0.043339652    3.6649796e-48  0              0.13001896     1.2098425e-05  0              0.58418962     5.9858794e-13  0              2.9990188    
   1600000   9000           100            100            0.043339388    1.3880022e-49  0              0.13001816     2.6899109e-07  0              0.012988617    5.9858794e-13  0              2.9990188    
   1700000   9000           100            100            0.043341119   -4.487742e-36   0              0.13002336     1.5340735e-07  0              0.007407492    5.9858794e-13  0              2.9990188    
   1800000   9000           100            100            0.043340972    4.487742e-36   0              0.13002292     1.1534028e-08  0              0.00055693693  5.9858794e-13  0              2.9990188    
   1900000   9000           100            100            0.043340766   -2.243871e-36   0              0.1300223      1.519966e-09   0              7.3393716e-05  5.9858794e-13  0              2.9990188    
   2000000   9000           100            100            0.043340806   -4.487742e-36   0              0.13002242     3.1823061e-10  0              1.5366217e-05  5.9858794e-13  0              2.9990188    
   2100000   9000           100            100            0.043340828    1.3463226e-35  0              0.13002249     9.8158494e-12  0              4.7397224e-07  5.9858794e-13  0              2.9990188    
   2200000   9000           100            100            0.043340821   -2.243871e-36   0              0.13002246     6.8347649e-12  0              3.3002634e-07  5.9858794e-13  0              2.9990188    
   2300000   9000           100            100            0.043340819   -8.9754841e-36  0              0.13002246     1.6019001e-14  0              7.7350023e-10  5.9858794e-13  0              2.9990188    
   2400000   9000           100            100            0.04334082     2.1544582e-54  0              0.13002246     1.2165376e-13  0              5.8742248e-09  5.9858794e-13  0              2.9990188    
   2500000   9000           100            100            0.04334082     2.243871e-36   0              0.13002246     4.3086042e-16  0              2.0804708e-11  5.9858794e-13  0              2.9990188    
   2600000   9000           100            100            0.04334082    -1.5707097e-35  0              0.13002246     1.7461509e-15  0              8.4315376e-11  5.9858794e-13  0              2.9990188    
   2700000   9000           100            100            0.04334082     2.9716239e-54  0              0.13002246     1.4098002e-18  0              6.8074205e-14  5.9858794e-13  0              2.9990188    
   2800000   9000           100            100            0.04334082     4.487742e-36   0              0.13002246     7.8959294e-18  0              3.8126617e-13  5.9858794e-13  0              2.9990188    
   2900000   9000           100            100            0.04334082     3.0530389e-54  0              0.13002246     1.5661434e-17  0              7.5623459e-13  5.9858794e-13  0              2.9990188    
   3000000   9000           100            100            0.04334082     4.487742e-36   0              0.13002246     5.5353765e-19  0              2.6728352e-14  5.9858794e-13  0              2.9990188    
Loop time of 590.519 on 4 procs for 3000000 steps with 5001 atoms

Performance: 4389360.815 ns/day, 0.000 hours/ns, 5080.279 timesteps/s
100.0% CPU use with 4 MPI tasks x 1 OpenMP threads

MPI task timing breakdown:
Section |  min time  |  avg time  |  max time  |%varavg| %total
---------------------------------------------------------------
Pair    | 125.38     | 189.8      | 254.64     | 464.4 | 32.14
Neigh   | 1.9949     | 2.0194     | 2.0452     |   1.3 |  0.34
Comm    | 25.763     | 90.472     | 154.75     | 669.1 | 15.32
Output  | 0.30599    | 0.30631    | 0.30664    |   0.1 |  0.05
Modify  | 207.25     | 241.48     | 275.65     | 217.3 | 40.89
Other   |            | 66.44      |            |       | 11.25

Nlocal:        1250.25 ave        1500 max        1000 min
Histogram: 2 0 0 0 0 0 0 0 0 2
Nghost:           5.25 ave           6 max           4 min
Histogram: 1 0 0 0 0 1 0 0 0 2
Neighs:        1750.25 ave        2250 max        1250 min
Histogram: 2 0 0 0 0 0 0 0 0 2

Total # of neighbors = 7001
Ave neighs/atom = 1.39992
Neighbor list builds = 238
Dangerous builds = 0
  using 1 OpenMP thread(s) per MPI task
Lattice spacing in x,y,z = 3 3 3
Created orthogonal box = (-4500 -50 -50) to (4500 50 50)
  4 by 1 by 1 MPI processor grid
Created 3000 atoms
  using lattice units in orthogonal box = (-4500 -50 -50) to (4500 50 50)
  create_atoms CPU = 0.001 seconds
Lattice spacing in x,y,z = 3 3 3
Created 2001 atoms
  using lattice units in orthogonal box = (-4500 -50 -50) to (4500 50 50)
  create_atoms CPU = 0.001 seconds
Setting atom values ...
  3000 settings made for diameter
Setting atom values ...
  3000 settings made for mass
Setting atom values ...
  2001 settings made for diameter
Setting atom values ...
  2001 settings made for mass
3000 atoms in group substrate
2001 atoms in group slider1
5001 atoms in group substrate_slider
  1 rigid bodies with 2001 atoms
Generated 0 of 1 mixed pair_coeff terms from geometric mixing rule
Neighbor list info ...
  update every 1 steps, delay 0 steps, check yes
  max neighbors/atom: 2000, page size: 100000
  master list distance cutoff = 3.1
  ghost atom cutoff = 3.1
  binsize = 1.55, bins = 5807 65 65
  1 neighbor lists, perpetual/occasional/extra = 1 0 0
  (1) pair granular, perpetual
      attributes: half, newton on, size, history
      pair build: half/size/bin/newton
      stencil: half/bin/3d
      bin: standard
Setting up Verlet run ...
  Unit style    : micro
  Current step  : 0
  Time step     : 1e-05
Per MPI rank memory allocation (min/avg/max) = 40.02 | 40.03 | 40.03 Mbytes
   Step           Lx             Ly             Lz           Press           Pxx            Pyy            Pzz           KinEng         PotEng          Temp          c_1[1]         c_1[2]         c_1[3]    
         0   9000           100            100            0              0              0              0              0              0              0              5.9858794e-13  0              6            
    100000   9000           100            100            0.0099644875   5.7443457e-34  0              0.029893463    454362.87      0              2.1939557e+10  5.9858794e-13  0              3.7465441    
    200000   9000           100            100            1.2963555      6.1579541e-39  0              3.8890665      417769.89      0              2.0172613e+10  5.9858794e-13  0              2.990516     
    300000   9000           100            100           -0.00044626388 -5.7442382e-34  0             -0.0013387916   3497.0577      0              1.688604e+08   5.9858794e-13  0              3.0493491    
    400000   9000           100            100           -0.00078910574 -1.1488562e-33  0             -0.0023673172   12569.285      0              6.0692578e+08  5.9858794e-13  0              3.0079647    
    500000   9000           100            100            0.00043528058 -8.6164265e-34  0              0.0013058417   2805.125       0              1.3544945e+08  5.9858794e-13  0              3.0010645    
    600000   9000           100            100            0.0091318954   2.8721574e-34  0              0.027395686    281.35398      0              13585577       5.9858794e-13  0              2.9996493    
    700000   9000           100            100            0.029445697    1.8331148e-43  0              0.08833709     15.395916      0              743413.69      5.9858794e-13  0              2.9992412    
    800000   9000           100            100            0.048718613   -2.6926451e-35  0              0.14615584     11.222539      0              541896.23      5.9858794e-13  0              2.9989396    
    900000   9000           100            100            0.043167801    2.243871e-36   0              0.1295034      1.8598004      0              89803.107      5.9858794e-13  0              2.9990212    
   1000000   9000           100            100            0.044834826    4.4877421e-36  0              0.13450448     0.28282292     0              13656.507      5.9858794e-13  0              2.9989964    
   1100000   9000           100            100            0.044342098    4.487742e-36   0              0.1330263      0.040728087    0              1966.6136      5.9858794e-13  0              2.9990037    
   1200000   9000           100            100            0.044480733    3.6882703e-46  0              0.1334422      0.0056946537   0              274.97445      5.9858794e-13  0              2.9990017    
   1300000   9000           100            100            0.044445385    3.6580592e-47  0              0.13333615     0.00077258334  0              37.305284      5.9858794e-13  0              2.9990022    
   1400000   9000           100            100            0.04445279    -2.6926452e-35  0              0.13335837     0.00010198575  0              4.9245266      5.9858794e-13  0              2.9990021    
   1500000   9000           100            100            0.044452057   -4.487742e-36   0              0.13335617     1.3106801e-05  0              0.6328805      5.9858794e-13  0              2.9990021    
   1600000   9000           100            100            0.04445163    -2.6926452e-35  0              0.13335489     1.6401081e-06  0              0.079194952    5.9858794e-13  0              2.9990021    
   1700000   9000           100            100            0.044452027   -2.243871e-36   0              0.13335608     1.9970415e-07  0              0.0096429985   5.9858794e-13  0              2.9990021    
   1800000   9000           100            100            0.044451799   -2.243871e-36   0              0.1333554      2.3627512e-08  0              0.001140888    5.9858794e-13  0              2.9990021    
   1900000   9000           100            100            0.04445191     2.8091799e-51  0              0.13335573     2.7097657e-09  0              0.00013084489  5.9858794e-13  0              2.9990021    
   2000000   9000           100            100            0.044451861    2.6201098e-53  0              0.13335558     3.0015577e-10  0              1.4493448e-05  5.9858794e-13  0              2.9990021    
   2100000   9000           100            100            0.044451882    4.487742e-36   0              0.13335565     3.190579e-11   0              1.5406164e-06  5.9858794e-13  0              2.9990021    
   2200000   9000           100            100            0.044451873    7.3953004e-54  0              0.13335562     3.2284506e-12  0              1.5589033e-07  5.9858794e-13  0              2.9990021    
   2300000   9000           100            100            0.044451877    4.4272964e-54  0              0.13335563     3.0650354e-13  0              1.4799959e-08  5.9858794e-13  0              2.9990021    
   2400000   9000           100            100            0.044451875    4.5181235e-54  0              0.13335563     2.7074408e-14  0              1.3073263e-09  5.9858794e-13  0              2.9990021    
   2500000   9000           100            100            0.044451876    6.7316131e-36  0              0.13335563     2.1132749e-15  0              1.0204248e-10  5.9858794e-13  0              2.9990021    
   2600000   9000           100            100            0.044451875    6.7316131e-36  0              0.13335563     1.8745099e-16  0              9.0513375e-12  5.9858794e-13  0              2.9990021    
   2700000   9000           100            100            0.044451876    2.243871e-36   0              0.13335563     3.0230322e-17  0              1.4597141e-12  5.9858794e-13  0              2.9990021    
   2800000   9000           100            100            0.044451876    2.243871e-36   0              0.13335563     2.6515468e-17  0              1.2803371e-12  5.9858794e-13  0              2.9990021    
   2900000   9000           100            100            0.044451876   -4.487742e-36   0              0.13335563     4.4654867e-18  0              2.1562237e-13  5.9858794e-13  0              2.9990021    
   3000000   9000           100            100            0.044451876   -8.9754841e-36  0              0.13335563     9.1645041e-18  0              4.4252111e-13  5.9858794e-13  0              2.9990021    
Loop time of 585.289 on 4 procs for 3000000 steps with 5001 atoms

Performance: 4428579.637 ns/day, 0.000 hours/ns, 5125.671 timesteps/s
100.0% CPU use with 4 MPI tasks x 1 OpenMP threads

MPI task timing breakdown:
Section |  min time  |  avg time  |  max time  |%varavg| %total
---------------------------------------------------------------
Pair    | 124.43     | 187.52     | 249.91     | 455.5 | 32.04
Neigh   | 2.0202     | 2.0423     | 2.0634     |   1.2 |  0.35
Comm    | 25.865     | 88.361     | 152.03     | 663.3 | 15.10
Output  | 0.30555    | 0.30584    | 0.30615    |   0.1 |  0.05
Modify  | 206.62     | 240.93     | 274.78     | 218.1 | 41.16
Other   |            | 66.13      |            |       | 11.30

Nlocal:        1250.25 ave        1500 max        1000 min
Histogram: 2 0 0 0 0 0 0 0 0 2
Nghost:           5.25 ave           6 max           4 min
Histogram: 1 0 0 0 0 1 0 0 0 2
Neighs:        1750.25 ave        2250 max        1250 min
Histogram: 2 0 0 0 0 0 0 0 0 2

Total # of neighbors = 7001
Ave neighs/atom = 1.39992
Neighbor list builds = 240
Dangerous builds = 0
  using 1 OpenMP thread(s) per MPI task
Total wall time: 6:36:17
