ITEM: TIMESTEP
1700000
ITEM: NUMBER OF ATOMS
1251
ITEM: BOX BOUNDS pp pp pp
-2.1112500000000000e+03 2.1112500000000000e+03
-1.0000000000000000e+02 1.0000000000000000e+02
-1.0000000000000000e+02 1.0000000000000000e+02
ITEM: ATOMS id type diameter mass xu yu zu fx fy fz
1 1 3 31.1018 -2111.25 0 0 0 0 0
2 1 3 31.1018 -2105.62 0 0 0 0 0
3 1 3 31.1018 -2099.99 0 0 0 0 0
4 1 3 31.1018 -2094.36 0 0 0 0 0
5 1 3 31.1018 -2088.73 0 0 0 0 0
6 1 3 31.1018 -2083.1 0 0 0 0 0
7 1 3 31.1018 -2077.47 0 0 0 0 0
8 1 3 31.1018 -2071.84 0 0 0 0 0
9 1 3 31.1018 -2066.21 0 0 0 0 0
10 1 3 31.1018 -2060.58 0 0 0 0 0
11 1 3 31.1018 -2054.95 0 0 0 0 0
12 1 3 31.1018 -2049.32 0 0 0 0 0
13 1 3 31.1018 -2043.69 0 0 0 0 0
14 1 3 31.1018 -2038.06 0 0 0 0 0
15 1 3 31.1018 -2032.43 0 0 0 0 0
16 1 3 31.1018 -2026.8 0 0 0 0 0
17 1 3 31.1018 -2021.17 0 0 0 0 0
18 1 3 31.1018 -2015.54 0 0 0 0 0
19 1 3 31.1018 -2009.91 0 0 0 0 0
20 1 3 31.1018 -2004.28 0 0 0 0 0
21 1 3 31.1018 -1998.65 0 0 0 0 0
22 1 3 31.1018 -1993.02 0 0 0 0 0
23 1 3 31.1018 -1987.39 0 0 0 0 0
24 1 3 31.1018 -1981.76 0 0 0 0 0
25 1 3 31.1018 -1976.13 0 0 0 0 0
26 1 3 31.1018 -1970.5 0 0 0 0 0
27 1 3 31.1018 -1964.87 0 0 0 0 0
28 1 3 31.1018 -1959.24 0 0 0 0 0
29 1 3 31.1018 -1953.61 0 0 0 0 0
30 1 3 31.1018 -1947.98 0 0 0 0 0
31 1 3 31.1018 -1942.35 0 0 0 0 0
32 1 3 31.1018 -1936.72 0 0 0 0 0
33 1 3 31.1018 -1931.09 0 0 0 0 0
34 1 3 31.1018 -1925.46 0 0 0 0 0
35 1 3 31.1018 -1919.83 0 0 0 0 0
36 1 3 31.1018 -1914.2 0 0 0 0 0
37 1 3 31.1018 -1908.57 0 0 0 0 0
38 1 3 31.1018 -1902.94 0 0 0 0 0
39 1 3 31.1018 -1897.31 0 0 0 0 0
40 1 3 31.1018 -1891.68 0 0 0 0 0
41 1 3 31.1018 -1886.05 0 0 0 0 0
42 1 3 31.1018 -1880.42 0 0 0 0 0
43 1 3 31.1018 -1874.79 0 0 0 0 0
44 1 3 31.1018 -1869.16 0 0 0 0 0
45 1 3 31.1018 -1863.53 0 0 0 0 0
46 1 3 31.1018 -1857.9 0 0 0 0 0
47 1 3 31.1018 -1852.27 0 0 0 0 0
48 1 3 31.1018 -1846.64 0 0 0 0 0
49 1 3 31.1018 -1841.01 0 0 0 0 0
50 1 3 31.1018 -1835.38 0 0 0 0 0
51 1 3 31.1018 -1829.75 0 0 0 0 0
52 1 3 31.1018 -1824.12 0 0 0 0 0
53 1 3 31.1018 -1818.49 0 0 0 0 0
54 1 3 31.1018 -1812.86 0 0 0 0 0
55 1 3 31.1018 -1807.23 0 0 0 0 0
56 1 3 31.1018 -1801.6 0 0 0 0 0
57 1 3 31.1018 -1795.97 0 0 0 0 0
58 1 3 31.1018 -1790.34 0 0 0 0 0
59 1 3 31.1018 -1784.71 0 0 0 0 0
60 1 3 31.1018 -1779.08 0 0 0 0 0
61 1 3 31.1018 -1773.45 0 0 0 0 0
62 1 3 31.1018 -1767.82 0 0 0 0 0
63 1 3 31.1018 -1762.19 0 0 0 0 0
64 1 3 31.1018 -1756.56 0 0 0 0 0
65 1 3 31.1018 -1750.93 0 0 0 0 0
66 1 3 31.1018 -1745.3 0 0 0 0 0
67 1 3 31.1018 -1739.67 0 0 0 0 0
68 1 3 31.1018 -1734.04 0 0 0 0 0
69 1 3 31.1018 -1728.41 0 0 0 0 0
70 1 3 31.1018 -1722.78 0 0 0 0 0
71 1 3 31.1018 -1717.15 0 0 0 0 0
72 1 3 31.1018 -1711.52 0 0 0 0 0
73 1 3 31.1018 -1705.89 0 0 0 0 0
74 1 3 31.1018 -1700.26 0 0 0 0 0
75 1 3 31.1018 -1694.63 0 0 0 0 0
76 1 3 31.1018 -1689 0 0 0 0 0
77 1 3 31.1018 -1683.37 0 0 0 0 0
78 1 3 31.1018 -1677.74 0 0 0 0 0
79 1 3 31.1018 -1672.11 0 0 0 0 0
80 1 3 31.1018 -1666.48 0 0 0 0 0
81 1 3 31.1018 -1660.85 0 0 0 0 0
82 1 3 31.1018 -1655.22 0 0 0 0 0
83 1 3 31.1018 -1649.59 0 0 0 0 0
84 1 3 31.1018 -1643.96 0 0 0 0 0
85 1 3 31.1018 -1638.33 0 0 0 0 0
86 1 3 31.1018 -1632.7 0 0 0 0 0
87 1 3 31.1018 -1627.07 0 0 0 0 0
88 1 3 31.1018 -1621.44 0 0 0 0 0
89 1 3 31.1018 -1615.81 0 0 0 0 0
90 1 3 31.1018 -1610.18 0 0 0 0 0
91 1 3 31.1018 -1604.55 0 0 0 0 0
92 1 3 31.1018 -1598.92 0 0 0 0 0
93 1 3 31.1018 -1593.29 0 0 0 0 0
94 1 3 31.1018 -1587.66 0 0 0 0 0
95 1 3 31.1018 -1582.03 0 0 0 0 0
96 1 3 31.1018 -1576.4 0 0 0 0 0
97 1 3 31.1018 -1570.77 0 0 0 0 0
98 1 3 31.1018 -1565.14 0 0 0 0 0
99 1 3 31.1018 -1559.51 0 0 0 0 0
100 1 3 31.1018 -1553.88 0 0 0 0 0
101 1 3 31.1018 -1548.25 0 0 0 0 0
102 1 3 31.1018 -1542.62 0 0 0 0 0
103 1 3 31.1018 -1536.99 0 0 0 0 0
104 1 3 31.1018 -1531.36 0 0 0 0 0
105 1 3 31.1018 -1525.73 0 0 0 0 0
106 1 3 31.1018 -1520.1 0 0 0 0 0
107 1 3 31.1018 -1514.47 0 0 0 0 0
108 1 3 31.1018 -1508.84 0 0 0 0 0
109 1 3 31.1018 -1503.21 0 0 0 0 0
110 1 3 31.1018 -1497.58 0 0 0 0 0
111 1 3 31.1018 -1491.95 0 0 0 0 0
112 1 3 31.1018 -1486.32 0 0 0 0 0
113 1 3 31.1018 -1480.69 0 0 0 0 0
114 1 3 31.1018 -1475.06 0 0 0 0 0
115 1 3 31.1018 -1469.43 0 0 0 0 0
116 1 3 31.1018 -1463.8 0 0 0 0 0
117 1 3 31.1018 -1458.17 0 0 0 0 0
118 1 3 31.1018 -1452.54 0 0 0 0 0
119 1 3 31.1018 -1446.91 0 0 0 0 0
120 1 3 31.1018 -1441.28 0 0 0 0 0
121 1 3 31.1018 -1435.65 0 0 0 0 0
122 1 3 31.1018 -1430.02 0 0 0 0 0
123 1 3 31.1018 -1424.39 0 0 0 0 0
124 1 3 31.1018 -1418.76 0 0 0 0 0
125 1 3 31.1018 -1413.13 0 0 0 0 0
126 1 3 31.1018 -1407.5 0 0 0 0 0
127 1 3 31.1018 -1401.87 0 0 0 0 0
128 1 3 31.1018 -1396.24 0 0 0 0 0
129 1 3 31.1018 -1390.61 0 0 0 0 0
130 1 3 31.1018 -1384.98 0 0 0 0 0
131 1 3 31.1018 -1379.35 0 0 0 0 0
132 1 3 31.1018 -1373.72 0 0 0 0 0
133 1 3 31.1018 -1368.09 0 0 0 0 0
134 1 3 31.1018 -1362.46 0 0 0 0 0
135 1 3 31.1018 -1356.83 0 0 0 0 0
136 1 3 31.1018 -1351.2 0 0 0 0 0
137 1 3 31.1018 -1345.57 0 0 0 0 0
138 1 3 31.1018 -1339.94 0 0 0 0 0
139 1 3 31.1018 -1334.31 0 0 0 0 0
140 1 3 31.1018 -1328.68 0 0 0 0 0
141 1 3 31.1018 -1323.05 0 0 0 0 0
142 1 3 31.1018 -1317.42 0 0 0 0 0
143 1 3 31.1018 -1311.79 0 0 0 0 0
144 1 3 31.1018 -1306.16 0 0 0 0 0
145 1 3 31.1018 -1300.53 0 0 0 0 0
146 1 3 31.1018 -1294.9 0 0 0 0 0
147 1 3 31.1018 -1289.27 0 0 0 0 0
148 1 3 31.1018 -1283.64 0 0 0 0 0
149 1 3 31.1018 -1278.01 0 0 0 0 0
150 1 3 31.1018 -1272.38 0 0 0 0 0
151 1 3 31.1018 -1266.75 0 0 0 0 0
152 1 3 31.1018 -1261.12 0 0 0 0 0
153 1 3 31.1018 -1255.49 0 0 0 0 0
154 1 3 31.1018 -1249.86 0 0 0 0 0
155 1 3 31.1018 -1244.23 0 0 0 0 0
156 1 3 31.1018 -1238.6 0 0 0 0 0
157 1 3 31.1018 -1232.97 0 0 0 0 0
158 1 3 31.1018 -1227.34 0 0 0 0 0
159 1 3 31.1018 -1221.71 0 0 0 0 0
160 1 3 31.1018 -1216.08 0 0 0 0 0
161 1 3 31.1018 -1210.45 0 0 0 0 0
162 1 3 31.1018 -1204.82 0 0 0 0 0
163 1 3 31.1018 -1199.19 0 0 0 0 0
164 1 3 31.1018 -1193.56 0 0 0 0 0
165 1 3 31.1018 -1187.93 0 0 0 0 0
166 1 3 31.1018 -1182.3 0 0 0 0 0
167 1 3 31.1018 -1176.67 0 0 0 0 0
168 1 3 31.1018 -1171.04 0 0 0 0 0
169 1 3 31.1018 -1165.41 0 0 0 0 0
170 1 3 31.1018 -1159.78 0 0 0 0 0
171 1 3 31.1018 -1154.15 0 0 0 0 0
172 1 3 31.1018 -1148.52 0 0 0 0 0
173 1 3 31.1018 -1142.89 0 0 0 0 0
174 1 3 31.1018 -1137.26 0 0 0 0 0
175 1 3 31.1018 -1131.63 0 0 0 0 0
176 1 3 31.1018 -1126 0 0 0 0 0
177 1 3 31.1018 -1120.37 0 0 0 0 0
178 1 3 31.1018 -1114.74 0 0 0 0 0
179 1 3 31.1018 -1109.11 0 0 0 0 0
180 1 3 31.1018 -1103.48 0 0 0 0 0
181 1 3 31.1018 -1097.85 0 0 0 0 0
182 1 3 31.1018 -1092.22 0 0 0 0 0
183 1 3 31.1018 -1086.59 0 0 0 0 0
184 1 3 31.1018 -1080.96 0 0 0 0 0
185 1 3 31.1018 -1075.33 0 0 0 0 0
186 1 3 31.1018 -1069.7 0 0 0 0 0
187 1 3 31.1018 -1064.07 0 0 0 0 0
188 1 3 31.1018 -1058.44 0 0 0 0 0
189 1 3 31.1018 -1052.81 0 0 0 0 0
190 1 3 31.1018 -1047.18 0 0 0 0 0
191 1 3 31.1018 -1041.55 0 0 0 0 0
192 1 3 31.1018 -1035.92 0 0 0 0 0
193 1 3 31.1018 -1030.29 0 0 0 0 0
194 1 3 31.1018 -1024.66 0 0 0 0 0
195 1 3 31.1018 -1019.03 0 0 0 0 0
196 1 3 31.1018 -1013.4 0 0 0 0 0
197 1 3 31.1018 -1007.77 0 0 0 0 0
198 1 3 31.1018 -1002.14 0 0 0 0 0
199 1 3 31.1018 -996.51 0 0 0 0 0
200 1 3 31.1018 -990.88 0 0 0 0 0
201 1 3 31.1018 -985.25 0 0 0 0 0
202 1 3 31.1018 -979.62 0 0 0 0 0
203 1 3 31.1018 -973.99 0 0 0 0 0
204 1 3 31.1018 -968.36 0 0 0 0 0
205 1 3 31.1018 -962.73 0 0 0 0 0
206 1 3 31.1018 -957.1 0 0 0 0 0
207 1 3 31.1018 -951.47 0 0 0 0 0
208 1 3 31.1018 -945.84 0 0 0 0 0
209 1 3 31.1018 -940.21 0 0 0 0 0
210 1 3 31.1018 -934.58 0 0 0 0 0
211 1 3 31.1018 -928.95 0 0 0 0 0
212 1 3 31.1018 -923.32 0 0 0 0 0
213 1 3 31.1018 -917.69 0 0 0 0 0
214 1 3 31.1018 -912.06 0 0 0 0 0
215 1 3 31.1018 -906.43 0 0 0 0 0
216 1 3 31.1018 -900.8 0 0 0 0 0
217 1 3 31.1018 -895.17 0 0 0 0 0
218 1 3 31.1018 -889.54 0 0 0 0 0
219 1 3 31.1018 -883.91 0 0 0 0 0
220 1 3 31.1018 -878.28 0 0 0 0 0
221 1 3 31.1018 -872.65 0 0 0 0 0
222 1 3 31.1018 -867.02 0 0 0 0 0
223 1 3 31.1018 -861.39 0 0 0 0 0
224 1 3 31.1018 -855.76 0 0 0 0 0
225 1 3 31.1018 -850.13 0 0 0 0 0
226 1 3 31.1018 -844.5 0 0 0 0 0
227 1 3 31.1018 -838.87 0 0 0 0 0
228 1 3 31.1018 -833.24 0 0 0 0 0
229 1 3 31.1018 -827.61 0 0 0 0 0
230 1 3 31.1018 -821.98 0 0 0 0 0
231 1 3 31.1018 -816.35 0 0 0 0 0
232 1 3 31.1018 -810.72 0 0 0 0 0
233 1 3 31.1018 -805.09 0 0 0 0 0
234 1 3 31.1018 -799.46 0 0 0 0 0
235 1 3 31.1018 -793.83 0 0 0 0 0
236 1 3 31.1018 -788.2 0 0 0 0 0
237 1 3 31.1018 -782.57 0 0 0 0 0
238 1 3 31.1018 -776.94 0 0 0 0 0
239 1 3 31.1018 -771.31 0 0 0 0 0
240 1 3 31.1018 -765.68 0 0 0 0 0
241 1 3 31.1018 -760.05 0 0 0 0 0
242 1 3 31.1018 -754.42 0 0 0 0 0
243 1 3 31.1018 -748.79 0 0 0 0 0
244 1 3 31.1018 -743.16 0 0 0 0 0
245 1 3 31.1018 -737.53 0 0 0 0 0
246 1 3 31.1018 -731.9 0 0 0 0 0
247 1 3 31.1018 -726.27 0 0 0 0 0
248 1 3 31.1018 -720.64 0 0 0 0 0
249 1 3 31.1018 -715.01 0 0 0 0 0
250 1 3 31.1018 -709.38 0 0 0 0 0
251 1 3 31.1018 -703.75 0 0 0 0 0
252 1 3 31.1018 -698.12 0 0 0 0 0
253 1 3 31.1018 -692.49 0 0 0 0 0
254 1 3 31.1018 -686.86 0 0 0 0 0
255 1 3 31.1018 -681.23 0 0 0 0 0
256 1 3 31.1018 -675.6 0 0 0 0 0
257 1 3 31.1018 -669.97 0 0 0 0 0
258 1 3 31.1018 -664.34 0 0 0 0 0
259 1 3 31.1018 -658.71 0 0 0 0 0
260 1 3 31.1018 -653.08 0 0 0 0 0
261 1 3 31.1018 -647.45 0 0 0 0 0
262 1 3 31.1018 -641.82 0 0 0 0 0
263 1 3 31.1018 -636.19 0 0 0 0 0
264 1 3 31.1018 -630.56 0 0 0 0 0
265 1 3 31.1018 -624.93 0 0 0 0 0
266 1 3 31.1018 -619.3 0 0 0 0 0
267 1 3 31.1018 -613.67 0 0 0 0 0
268 1 3 31.1018 -608.04 0 0 0 0 0
269 1 3 31.1018 -602.41 0 0 0 0 0
270 1 3 31.1018 -596.78 0 0 0 0 0
271 1 3 31.1018 -591.15 0 0 0 0 0
272 1 3 31.1018 -585.52 0 0 0 0 0
273 1 3 31.1018 -579.89 0 0 0 0 0
274 1 3 31.1018 -574.26 0 0 0 0 0
275 1 3 31.1018 -568.63 0 0 0 0 0
276 1 3 31.1018 -563 0 0 0 0 0
277 1 3 31.1018 -557.37 0 0 0 0 0
278 1 3 31.1018 -551.74 0 0 0 0 0
279 1 3 31.1018 -546.11 0 0 0 0 0
280 1 3 31.1018 -540.48 0 0 0 0 0
281 1 3 31.1018 -534.85 0 0 0 0 0
282 1 3 31.1018 -529.22 0 0 0 0 0
283 1 3 31.1018 -523.59 0 0 0 0 0
284 1 3 31.1018 -517.96 0 0 0 0 0
285 1 3 31.1018 -512.33 0 0 0 0 0
286 1 3 31.1018 -506.7 0 0 0 0 0
287 1 3 31.1018 -501.07 0 0 0 0 0
288 1 3 31.1018 -495.44 0 0 0 0 0
289 1 3 31.1018 -489.81 0 0 0 0 0
290 1 3 31.1018 -484.18 0 0 0 0 0
291 1 3 31.1018 -478.55 0 0 0 0 0
292 1 3 31.1018 -472.92 0 0 0 0 0
293 1 3 31.1018 -467.29 0 0 0 0 0
294 1 3 31.1018 -461.66 0 0 0 0 0
295 1 3 31.1018 -456.03 0 0 0 0 0
296 1 3 31.1018 -450.4 0 0 0 0 0
297 1 3 31.1018 -444.77 0 0 0 0 0
298 1 3 31.1018 -439.14 0 0 0 0 0
299 1 3 31.1018 -433.51 0 0 0 0 0
300 1 3 31.1018 -427.88 0 0 0 0 0
301 1 3 31.1018 -422.25 0 0 0 0 0
302 1 3 31.1018 -416.62 0 0 0 0 0
303 1 3 31.1018 -410.99 0 0 0 0 0
304 1 3 31.1018 -405.36 0 0 0 0 0
305 1 3 31.1018 -399.73 0 0 0 0 0
306 1 3 31.1018 -394.1 0 0 0 0 0
307 1 3 31.1018 -388.47 0 0 0 0 0
308 1 3 31.1018 -382.84 0 0 0 0 0
309 1 3 31.1018 -377.21 0 0 0 0 0
310 1 3 31.1018 -371.58 0 0 0 0 0
311 1 3 31.1018 -365.95 0 0 0 0 0
312 1 3 31.1018 -360.32 0 0 0 0 0
313 1 3 31.1018 -354.69 0 0 0 0 0
314 1 3 31.1018 -349.06 0 0 0 0 0
315 1 3 31.1018 -343.43 0 0 0 0 0
316 1 3 31.1018 -337.8 0 0 0 0 0
317 1 3 31.1018 -332.17 0 0 0 0 0
318 1 3 31.1018 -326.54 0 0 0 0 0
319 1 3 31.1018 -320.91 0 0 0 0 0
320 1 3 31.1018 -315.28 0 0 0 0 0
321 1 3 31.1018 -309.65 0 0 0 0 0
322 1 3 31.1018 -304.02 0 0 0 0 0
323 1 3 31.1018 -298.39 0 0 0 0 0
324 1 3 31.1018 -292.76 0 0 0 0 0
325 1 3 31.1018 -287.13 0 0 0 0 0
326 1 3 31.1018 -281.5 0 0 0 0 0
327 1 3 31.1018 -275.87 0 0 0 0 0
328 1 3 31.1018 -270.24 0 0 0 0 0
329 1 3 31.1018 -264.61 0 0 0 0 0
330 1 3 31.1018 -258.98 0 0 0 0 0
331 1 3 31.1018 -253.35 0 0 0 0 0
332 1 3 31.1018 -247.72 0 0 0 0 0
333 1 3 31.1018 -242.09 0 0 0 0 0
334 1 3 31.1018 -236.46 0 0 0 0 0
335 1 3 31.1018 -230.83 0 0 0 0 0
336 1 3 31.1018 -225.2 0 0 0 0 0
337 1 3 31.1018 -219.57 0 0 0 0 0
338 1 3 31.1018 -213.94 0 0 0 0 0
339 1 3 31.1018 -208.31 0 0 0 0 0
340 1 3 31.1018 -202.68 0 0 0 0 0
341 1 3 31.1018 -197.05 0 0 0 0 0
342 1 3 31.1018 -191.42 0 0 0 0 0
343 1 3 31.1018 -185.79 0 0 0 0 0
344 1 3 31.1018 -180.16 0 0 0 0 0
345 1 3 31.1018 -174.53 0 0 0 0 0
346 1 3 31.1018 -168.9 0 0 0 0 0
347 1 3 31.1018 -163.27 0 0 0 0 0
348 1 3 31.1018 -157.64 0 0 0 0 0
349 1 3 31.1018 -152.01 0 0 0 0 0
350 1 3 31.1018 -146.38 0 0 0 0 0
351 1 3 31.1018 -140.75 0 0 0 0 0
352 1 3 31.1018 -135.12 0 0 0 0 0
353 1 3 31.1018 -129.49 0 0 0 0 0
354 1 3 31.1018 -123.86 0 0 0 0 0
355 1 3 31.1018 -118.23 0 0 0 0 0
356 1 3 31.1018 -112.6 0 0 0 0 0
357 1 3 31.1018 -106.97 0 0 0 0 0
358 1 3 31.1018 -101.34 0 0 0 0 0
359 1 3 31.1018 -95.71 0 0 0 0 0
360 1 3 31.1018 -90.08 0 0 0 0 0
361 1 3 31.1018 -84.45 0 0 0 0 0
362 1 3 31.1018 -78.82 0 0 0 0 0
363 1 3 31.1018 -73.19 0 0 0 0 0
364 1 3 31.1018 -67.56 0 0 0 0 0
365 1 3 31.1018 -61.93 0 0 0 0 0
366 1 3 31.1018 -56.3 0 0 0 0 0
367 1 3 31.1018 -50.67 0 0 0 0 0
368 1 3 31.1018 -45.04 0 0 0 0 0
369 1 3 31.1018 -39.41 0 0 0 0 0
370 1 3 31.1018 -33.78 0 0 0 0 0
371 1 3 31.1018 -28.15 0 0 0 0 0
372 1 3 31.1018 -22.52 0 0 0 0 0
373 1 3 31.1018 -16.89 0 0 0 0 0
374 1 3 31.1018 -11.26 0 0 0 0 0
375 1 3 31.1018 -5.63 0 0 0 0 0
751 2 3 31.1018 -750 0 2.99426 0 0 -1000
752 2 3 31.1018 -747 0 2.99426 0 0 -1000
753 2 3 31.1018 -744 0 2.99426 0 0 -1000
754 2 3 31.1018 -741 0 2.99426 0 0 -1000
755 2 3 31.1018 -738 0 2.99426 0 0 -1000
756 2 3 31.1018 -735 0 2.99426 0 0 -1000
757 2 3 31.1018 -732 0 2.99426 -503.992 0 15445.7
758 2 3 31.1018 -729 0 2.99426 0 0 -1000
759 2 3 31.1018 -726 0 2.99426 0 0 -1000
760 2 3 31.1018 -723 0 2.99426 0 0 -1000
761 2 3 31.1018 -720 0 2.99426 0 0 -1000
762 2 3 31.1018 -717 0 2.99426 0 0 -1000
763 2 3 31.1018 -714 0 2.99426 0 0 -1000
764 2 3 31.1018 -711 0 2.99426 0 0 -1000
765 2 3 31.1018 -708 0 2.99426 0 0 -1000
766 2 3 31.1018 -705 0 2.99426 0 0 -1000
767 2 3 31.1018 -702 0 2.99426 0 0 -1000
768 2 3 31.1018 -699 0 2.99426 0 0 -1000
769 2 3 31.1018 -696 0 2.99426 0 0 -1000
770 2 3 31.1018 -693 0 2.99426 0 0 -1000
771 2 3 31.1018 -690 0 2.99426 0 0 -1000
772 2 3 31.1018 -687 0 2.99426 -348.423 0 6756.49
773 2 3 31.1018 -684 0 2.99426 0 0 -1000
774 2 3 31.1018 -681 0 2.99426 0 0 -1000
775 2 3 31.1018 -678 0 2.99426 0 0 -1000
776 2 3 31.1018 -675 0 2.99426 0 0 -1000
777 2 3 31.1018 -672 0 2.99426 0 0 -1000
778 2 3 31.1018 -669 0 2.99426 0 0 -1000
779 2 3 31.1018 -666 0 2.99426 0 0 -1000
780 2 3 31.1018 -663 0 2.99426 0 0 -1000
781 2 3 31.1018 -660 0 2.99426 0 0 -1000
782 2 3 31.1018 -657 0 2.99426 0 0 -1000
783 2 3 31.1018 -654 0 2.99426 0 0 -1000
784 2 3 31.1018 -651 0 2.99426 0 0 -1000
785 2 3 31.1018 -648 0 2.99426 0 0 -1000
786 2 3 31.1018 -645 0 2.99426 0 0 -1000
787 2 3 31.1018 -642 0 2.99426 -22.3215 0 -619.292
788 2 3 31.1018 -639 0 2.99426 0 0 -1000
789 2 3 31.1018 -636 0 2.99426 0 0 -1000
790 2 3 31.1018 -633 0 2.99426 0 0 -1000
791 2 3 31.1018 -630 0 2.99426 0 0 -1000
792 2 3 31.1018 -627 0 2.99426 0 0 -1000
793 2 3 31.1018 -624 0 2.99426 0 0 -1000
794 2 3 31.1018 -621 0 2.99426 0 0 -1000
795 2 3 31.1018 -618 0 2.99426 0 0 -1000
796 2 3 31.1018 -615 0 2.99426 0 0 -1000
797 2 3 31.1018 -612 0 2.99426 0 0 -1000
798 2 3 31.1018 -609 0 2.99426 0 0 -1000
799 2 3 31.1018 -606 0 2.99426 0 0 -1000
800 2 3 31.1018 -603 0 2.99426 0 0 -1000
801 2 3 31.1018 -600 0 2.99426 0 0 -1000
802 2 3 31.1018 -597 0 2.99426 0 0 -1000
803 2 3 31.1018 -594 0 2.99426 0 0 -1000
804 2 3 31.1018 -591 0 2.99426 270.25 0 4588.47
805 2 3 31.1018 -588 0 2.99426 0 0 -1000
806 2 3 31.1018 -585 0 2.99426 0 0 -1000
807 2 3 31.1018 -582 0 2.99426 0 0 -1000
808 2 3 31.1018 -579 0 2.99426 0 0 -1000
809 2 3 31.1018 -576 0 2.99426 0 0 -1000
810 2 3 31.1018 -573 0 2.99426 0 0 -1000
811 2 3 31.1018 -570 0 2.99426 0 0 -1000
812 2 3 31.1018 -567 0 2.99426 0 0 -1000
813 2 3 31.1018 -564 0 2.99426 0 0 -1000
814 2 3 31.1018 -561 0 2.99426 0 0 -1000
815 2 3 31.1018 -558 0 2.99426 0 0 -1000
816 2 3 31.1018 -555 0 2.99426 0 0 -1000
817 2 3 31.1018 -552 0 2.99426 0 0 -1000
818 2 3 31.1018 -549 0 2.99426 0 0 -1000
819 2 3 31.1018 -546 0 2.99426 492.664 0 13364.6
820 2 3 31.1018 -543 0 2.99426 0 0 -1000
821 2 3 31.1018 -540 0 2.99426 0 0 -1000
822 2 3 31.1018 -537 0 2.99426 0 0 -1000
823 2 3 31.1018 -534 0 2.99426 0 0 -1000
824 2 3 31.1018 -531 0 2.99426 0 0 -1000
825 2 3 31.1018 -528 0 2.99426 0 0 -1000
826 2 3 31.1018 -525 0 2.99426 0 0 -1000
827 2 3 31.1018 -522 0 2.99426 0 0 -1000
828 2 3 31.1018 -519 0 2.99426 0 0 -1000
829 2 3 31.1018 -516 0 2.99426 0 0 -1000
830 2 3 31.1018 -513 0 2.99426 0 0 -1000
831 2 3 31.1018 -510 0 2.99426 0 0 -1000
832 2 3 31.1018 -507 0 2.99426 0 0 -1000
833 2 3 31.1018 -504 0 2.99426 0 0 -1000
834 2 3 31.1018 -501 0 2.99426 424.894 0 20877.3
835 2 3 31.1018 -498 0 2.99426 0 0 -1000
836 2 3 31.1018 -495 0 2.99426 0 0 -1000
837 2 3 31.1018 -492 0 2.99426 0 0 -1000
838 2 3 31.1018 -489 0 2.99426 0 0 -1000
839 2 3 31.1018 -486 0 2.99426 0 0 -1000
840 2 3 31.1018 -483 0 2.99426 0 0 -1000
841 2 3 31.1018 -480 0 2.99426 0 0 -1000
842 2 3 31.1018 -477 0 2.99426 0 0 -1000
843 2 3 31.1018 -474 0 2.99426 0 0 -1000
844 2 3 31.1018 -471 0 2.99426 0 0 -1000
845 2 3 31.1018 -468 0 2.99426 0 0 -1000
846 2 3 31.1018 -465 0 2.99426 0 0 -1000
847 2 3 31.1018 -462 0 2.99426 0 0 -1000
848 2 3 31.1018 -459 0 2.99426 0 0 -1000
849 2 3 31.1018 -456 0 2.99426 39.9825 0 25487.3
850 2 3 31.1018 -453 0 2.99426 0 0 -1000
851 2 3 31.1018 -450 0 2.99426 0 0 -1000
852 2 3 31.1018 -447 0 2.99426 0 0 -1000
853 2 3 31.1018 -444 0 2.99426 0 0 -1000
854 2 3 31.1018 -441 0 2.99426 0 0 -1000
855 2 3 31.1018 -438 0 2.99426 0 0 -1000
856 2 3 31.1018 -435 0 2.99426 0 0 -1000
857 2 3 31.1018 -432 0 2.99426 0 0 -1000
858 2 3 31.1018 -429 0 2.99426 0 0 -1000
859 2 3 31.1018 -426 0 2.99426 0 0 -1000
860 2 3 31.1018 -423 0 2.99426 0 0 -1000
861 2 3 31.1018 -420 0 2.99426 0 0 -1000
862 2 3 31.1018 -417 0 2.99426 0 0 -1000
863 2 3 31.1018 -414 0 2.99426 0 0 -1000
864 2 3 31.1018 -411 0 2.99426 21.4603 0 26442.4
865 2 3 31.1018 -408 0 2.99426 0 0 -1000
866 2 3 31.1018 -405 0 2.99426 0 0 -1000
867 2 3 31.1018 -402 0 2.99426 0 0 -1000
868 2 3 31.1018 -399 0 2.99426 0 0 -1000
869 2 3 31.1018 -396 0 2.99426 0 0 -1000
870 2 3 31.1018 -393 0 2.99426 0 0 -1000
871 2 3 31.1018 -390 0 2.99426 0 0 -1000
872 2 3 31.1018 -387 0 2.99426 0 0 -1000
873 2 3 31.1018 -384 0 2.99426 0 0 -1000
874 2 3 31.1018 -381 0 2.99426 0 0 -1000
875 2 3 31.1018 -378 0 2.99426 0 0 -1000
876 2 3 31.1018 -375 0 2.99426 0 0 -1000
877 2 3 31.1018 -372 0 2.99426 0 0 -1000
878 2 3 31.1018 -369 0 2.99426 0 0 -1000
879 2 3 31.1018 -366 0 2.99426 -279.604 0 23607.9
880 2 3 31.1018 -363 0 2.99426 0 0 -1000
881 2 3 31.1018 -360 0 2.99426 0 0 -1000
882 2 3 31.1018 -357 0 2.99426 0 0 -1000
883 2 3 31.1018 -354 0 2.99426 0 0 -1000
884 2 3 31.1018 -351 0 2.99426 0 0 -1000
885 2 3 31.1018 -348 0 2.99426 0 0 -1000
886 2 3 31.1018 -345 0 2.99426 0 0 -1000
887 2 3 31.1018 -342 0 2.99426 0 0 -1000
888 2 3 31.1018 -339 0 2.99426 0 0 -1000
889 2 3 31.1018 -336 0 2.99426 0 0 -1000
890 2 3 31.1018 -333 0 2.99426 0 0 -1000
891 2 3 31.1018 -330 0 2.99426 0 0 -1000
892 2 3 31.1018 -327 0 2.99426 0 0 -1000
893 2 3 31.1018 -324 0 2.99426 0 0 -1000
894 2 3 31.1018 -321 0 2.99426 -496.771 0 17408.3
895 2 3 31.1018 -318 0 2.99426 0 0 -1000
896 2 3 31.1018 -315 0 2.99426 0 0 -1000
897 2 3 31.1018 -312 0 2.99426 0 0 -1000
898 2 3 31.1018 -309 0 2.99426 0 0 -1000
899 2 3 31.1018 -306 0 2.99426 0 0 -1000
900 2 3 31.1018 -303 0 2.99426 0 0 -1000
901 2 3 31.1018 -300 0 2.99426 0 0 -1000
902 2 3 31.1018 -297 0 2.99426 0 0 -1000
903 2 3 31.1018 -294 0 2.99426 0 0 -1000
904 2 3 31.1018 -291 0 2.99426 0 0 -1000
905 2 3 31.1018 -288 0 2.99426 0 0 -1000
906 2 3 31.1018 -285 0 2.99426 0 0 -1000
907 2 3 31.1018 -282 0 2.99426 0 0 -1000
908 2 3 31.1018 -279 0 2.99426 0 0 -1000
909 2 3 31.1018 -276 0 2.99426 -412.712 0 8978.33
910 2 3 31.1018 -273 0 2.99426 0 0 -1000
911 2 3 31.1018 -270 0 2.99426 0 0 -1000
912 2 3 31.1018 -267 0 2.99426 0 0 -1000
913 2 3 31.1018 -264 0 2.99426 0 0 -1000
914 2 3 31.1018 -261 0 2.99426 0 0 -1000
915 2 3 31.1018 -258 0 2.99426 0 0 -1000
916 2 3 31.1018 -255 0 2.99426 0 0 -1000
917 2 3 31.1018 -252 0 2.99426 0 0 -1000
918 2 3 31.1018 -249 0 2.99426 0 0 -1000
919 2 3 31.1018 -246 0 2.99426 0 0 -1000
920 2 3 31.1018 -243 0 2.99426 0 0 -1000
921 2 3 31.1018 -240 0 2.99426 0 0 -1000
922 2 3 31.1018 -237 0 2.99426 0 0 -1000
923 2 3 31.1018 -234 0 2.99426 0 0 -1000
924 2 3 31.1018 -231 0 2.99426 -97.0215 0 750.592
925 2 3 31.1018 -228 0 2.99426 0 0 -1000
926 2 3 31.1018 -225 0 2.99426 0 0 -1000
927 2 3 31.1018 -222 0 2.99426 0 0 -1000
928 2 3 31.1018 -219 0 2.99426 0 0 -1000
929 2 3 31.1018 -216 0 2.99426 0 0 -1000
930 2 3 31.1018 -213 0 2.99426 0 0 -1000
931 2 3 31.1018 -210 0 2.99426 0 0 -1000
932 2 3 31.1018 -207 0 2.99426 0 0 -1000
933 2 3 31.1018 -204 0 2.99426 0 0 -1000
934 2 3 31.1018 -201 0 2.99426 0 0 -1000
935 2 3 31.1018 -198 0 2.99426 0 0 -1000
936 2 3 31.1018 -195 0 2.99426 0 0 -1000
937 2 3 31.1018 -192 0 2.99426 0 0 -1000
938 2 3 31.1018 -189 0 2.99426 0 0 -1000
939 2 3 31.1018 -186 0 2.99426 0 0 -1000
940 2 3 31.1018 -183 0 2.99426 0 0 -1000
941 2 3 31.1018 -180 0 2.99426 184.46 0 2550.11
942 2 3 31.1018 -177 0 2.99426 0 0 -1000
943 2 3 31.1018 -174 0 2.99426 0 0 -1000
944 2 3 31.1018 -171 0 2.99426 0 0 -1000
945 2 3 31.1018 -168 0 2.99426 0 0 -1000
946 2 3 31.1018 -165 0 2.99426 0 0 -1000
947 2 3 31.1018 -162 0 2.99426 0 0 -1000
948 2 3 31.1018 -159 0 2.99426 0 0 -1000
949 2 3 31.1018 -156 0 2.99426 0 0 -1000
950 2 3 31.1018 -153 0 2.99426 0 0 -1000
951 2 3 31.1018 -150 0 2.99426 0 0 -1000
952 2 3 31.1018 -147 0 2.99426 0 0 -1000
953 2 3 31.1018 -144 0 2.99426 0 0 -1000
954 2 3 31.1018 -141 0 2.99426 0 0 -1000
955 2 3 31.1018 -138 0 2.99426 0 0 -1000
956 2 3 31.1018 -135 0 2.99426 463.357 0 11196.2
957 2 3 31.1018 -132 0 2.99426 0 0 -1000
958 2 3 31.1018 -129 0 2.99426 0 0 -1000
959 2 3 31.1018 -126 0 2.99426 0 0 -1000
960 2 3 31.1018 -123 0 2.99426 0 0 -1000
961 2 3 31.1018 -120 0 2.99426 0 0 -1000
962 2 3 31.1018 -117 0 2.99426 0 0 -1000
963 2 3 31.1018 -114 0 2.99426 0 0 -1000
964 2 3 31.1018 -111 0 2.99426 0 0 -1000
965 2 3 31.1018 -108 0 2.99426 0 0 -1000
966 2 3 31.1018 -105 0 2.99426 0 0 -1000
967 2 3 31.1018 -102 0 2.99426 0 0 -1000
968 2 3 31.1018 -99 0 2.99426 0 0 -1000
969 2 3 31.1018 -96 0 2.99426 0 0 -1000
970 2 3 31.1018 -93 0 2.99426 0 0 -1000
971 2 3 31.1018 -90 0 2.99426 470.534 0 19226.2
972 2 3 31.1018 -87 0 2.99426 0 0 -1000
973 2 3 31.1018 -84 0 2.99426 0 0 -1000
974 2 3 31.1018 -81 0 2.99426 0 0 -1000
975 2 3 31.1018 -78 0 2.99426 0 0 -1000
976 2 3 31.1018 -75 0 2.99426 0 0 -1000
977 2 3 31.1018 -72 0 2.99426 0 0 -1000
978 2 3 31.1018 -69 0 2.99426 0 0 -1000
979 2 3 31.1018 -66 0 2.99426 0 0 -1000
980 2 3 31.1018 -63 0 2.99426 0 0 -1000
981 2 3 31.1018 -60 0 2.99426 0 0 -1000
982 2 3 31.1018 -57 0 2.99426 0 0 -1000
983 2 3 31.1018 -54 0 2.99426 0 0 -1000
984 2 3 31.1018 -51 0 2.99426 0 0 -1000
985 2 3 31.1018 -48 0 2.99426 0 0 -1000
986 2 3 31.1018 -45 0 2.99426 170.377 0 24659.4
987 2 3 31.1018 -42 0 2.99426 0 0 -1000
988 2 3 31.1018 -39 0 2.99426 0 0 -1000
989 2 3 31.1018 -36 0 2.99426 0 0 -1000
990 2 3 31.1018 -33 0 2.99426 0 0 -1000
991 2 3 31.1018 -30 0 2.99426 0 0 -1000
992 2 3 31.1018 -27 0 2.99426 0 0 -1000
993 2 3 31.1018 -24 0 2.99426 0 0 -1000
994 2 3 31.1018 -21 0 2.99426 0 0 -1000
995 2 3 31.1018 -18 0 2.99426 0 0 -1000
996 2 3 31.1018 -15 0 2.99426 0 0 -1000
997 2 3 31.1018 -12 0 2.99426 0 0 -1000
998 2 3 31.1018 -9 0 2.99426 0 0 -1000
999 2 3 31.1018 -6 0 2.99426 0 0 -1000
1000 2 3 31.1018 -3 0 2.99426 0 0 -1000
1001 2 3 31.1018 -1.52884e-19 0 2.99426 -2.36637e-12 0 26562.5
376 1 3 31.1018 0 0 0 0 0 0
377 1 3 31.1018 5.63 0 0 0 0 0
378 1 3 31.1018 11.26 0 0 0 0 0
379 1 3 31.1018 16.89 0 0 0 0 0
380 1 3 31.1018 22.52 0 0 0 0 0
381 1 3 31.1018 28.15 0 0 0 0 0
382 1 3 31.1018 33.78 0 0 0 0 0
383 1 3 31.1018 39.41 0 0 0 0 0
384 1 3 31.1018 45.04 0 0 0 0 0
385 1 3 31.1018 50.67 0 0 0 0 0
386 1 3 31.1018 56.3 0 0 0 0 0
387 1 3 31.1018 61.93 0 0 0 0 0
388 1 3 31.1018 67.56 0 0 0 0 0
389 1 3 31.1018 73.19 0 0 0 0 0
390 1 3 31.1018 78.82 0 0 0 0 0
391 1 3 31.1018 84.45 0 0 0 0 0
392 1 3 31.1018 90.08 0 0 0 0 0
393 1 3 31.1018 95.71 0 0 0 0 0
394 1 3 31.1018 101.34 0 0 0 0 0
395 1 3 31.1018 106.97 0 0 0 0 0
396 1 3 31.1018 112.6 0 0 0 0 0
397 1 3 31.1018 118.23 0 0 0 0 0
398 1 3 31.1018 123.86 0 0 0 0 0
399 1 3 31.1018 129.49 0 0 0 0 0
400 1 3 31.1018 135.12 0 0 0 0 0
401 1 3 31.1018 140.75 0 0 0 0 0
402 1 3 31.1018 146.38 0 0 0 0 0
403 1 3 31.1018 152.01 0 0 0 0 0
404 1 3 31.1018 157.64 0 0 0 0 0
405 1 3 31.1018 163.27 0 0 0 0 0
406 1 3 31.1018 168.9 0 0 0 0 0
407 1 3 31.1018 174.53 0 0 0 0 0
408 1 3 31.1018 180.16 0 0 0 0 0
409 1 3 31.1018 185.79 0 0 0 0 0
410 1 3 31.1018 191.42 0 0 0 0 0
411 1 3 31.1018 197.05 0 0 0 0 0
412 1 3 31.1018 202.68 0 0 0 0 0
413 1 3 31.1018 208.31 0 0 0 0 0
414 1 3 31.1018 213.94 0 0 0 0 0
415 1 3 31.1018 219.57 0 0 0 0 0
416 1 3 31.1018 225.2 0 0 0 0 0
417 1 3 31.1018 230.83 0 0 0 0 0
418 1 3 31.1018 236.46 0 0 0 0 0
419 1 3 31.1018 242.09 0 0 0 0 0
420 1 3 31.1018 247.72 0 0 0 0 0
421 1 3 31.1018 253.35 0 0 0 0 0
422 1 3 31.1018 258.98 0 0 0 0 0
423 1 3 31.1018 264.61 0 0 0 0 0
424 1 3 31.1018 270.24 0 0 0 0 0
425 1 3 31.1018 275.87 0 0 0 0 0
426 1 3 31.1018 281.5 0 0 0 0 0
427 1 3 31.1018 287.13 0 0 0 0 0
428 1 3 31.1018 292.76 0 0 0 0 0
429 1 3 31.1018 298.39 0 0 0 0 0
430 1 3 31.1018 304.02 0 0 0 0 0
431 1 3 31.1018 309.65 0 0 0 0 0
432 1 3 31.1018 315.28 0 0 0 0 0
433 1 3 31.1018 320.91 0 0 0 0 0
434 1 3 31.1018 326.54 0 0 0 0 0
435 1 3 31.1018 332.17 0 0 0 0 0
436 1 3 31.1018 337.8 0 0 0 0 0
437 1 3 31.1018 343.43 0 0 0 0 0
438 1 3 31.1018 349.06 0 0 0 0 0
439 1 3 31.1018 354.69 0 0 0 0 0
440 1 3 31.1018 360.32 0 0 0 0 0
441 1 3 31.1018 365.95 0 0 0 0 0
442 1 3 31.1018 371.58 0 0 0 0 0
443 1 3 31.1018 377.21 0 0 0 0 0
444 1 3 31.1018 382.84 0 0 0 0 0
445 1 3 31.1018 388.47 0 0 0 0 0
446 1 3 31.1018 394.1 0 0 0 0 0
447 1 3 31.1018 399.73 0 0 0 0 0
448 1 3 31.1018 405.36 0 0 0 0 0
449 1 3 31.1018 410.99 0 0 0 0 0
450 1 3 31.1018 416.62 0 0 0 0 0
451 1 3 31.1018 422.25 0 0 0 0 0
452 1 3 31.1018 427.88 0 0 0 0 0
453 1 3 31.1018 433.51 0 0 0 0 0
454 1 3 31.1018 439.14 0 0 0 0 0
455 1 3 31.1018 444.77 0 0 0 0 0
456 1 3 31.1018 450.4 0 0 0 0 0
457 1 3 31.1018 456.03 0 0 0 0 0
458 1 3 31.1018 461.66 0 0 0 0 0
459 1 3 31.1018 467.29 0 0 0 0 0
460 1 3 31.1018 472.92 0 0 0 0 0
461 1 3 31.1018 478.55 0 0 0 0 0
462 1 3 31.1018 484.18 0 0 0 0 0
463 1 3 31.1018 489.81 0 0 0 0 0
464 1 3 31.1018 495.44 0 0 0 0 0
465 1 3 31.1018 501.07 0 0 0 0 0
466 1 3 31.1018 506.7 0 0 0 0 0
467 1 3 31.1018 512.33 0 0 0 0 0
468 1 3 31.1018 517.96 0 0 0 0 0
469 1 3 31.1018 523.59 0 0 0 0 0
470 1 3 31.1018 529.22 0 0 0 0 0
471 1 3 31.1018 534.85 0 0 0 0 0
472 1 3 31.1018 540.48 0 0 0 0 0
473 1 3 31.1018 546.11 0 0 0 0 0
474 1 3 31.1018 551.74 0 0 0 0 0
475 1 3 31.1018 557.37 0 0 0 0 0
476 1 3 31.1018 563 0 0 0 0 0
477 1 3 31.1018 568.63 0 0 0 0 0
478 1 3 31.1018 574.26 0 0 0 0 0
479 1 3 31.1018 579.89 0 0 0 0 0
480 1 3 31.1018 585.52 0 0 0 0 0
481 1 3 31.1018 591.15 0 0 0 0 0
482 1 3 31.1018 596.78 0 0 0 0 0
483 1 3 31.1018 602.41 0 0 0 0 0
484 1 3 31.1018 608.04 0 0 0 0 0
485 1 3 31.1018 613.67 0 0 0 0 0
486 1 3 31.1018 619.3 0 0 0 0 0
487 1 3 31.1018 624.93 0 0 0 0 0
488 1 3 31.1018 630.56 0 0 0 0 0
489 1 3 31.1018 636.19 0 0 0 0 0
490 1 3 31.1018 641.82 0 0 0 0 0
491 1 3 31.1018 647.45 0 0 0 0 0
492 1 3 31.1018 653.08 0 0 0 0 0
493 1 3 31.1018 658.71 0 0 0 0 0
494 1 3 31.1018 664.34 0 0 0 0 0
495 1 3 31.1018 669.97 0 0 0 0 0
496 1 3 31.1018 675.6 0 0 0 0 0
497 1 3 31.1018 681.23 0 0 0 0 0
498 1 3 31.1018 686.86 0 0 0 0 0
499 1 3 31.1018 692.49 0 0 0 0 0
500 1 3 31.1018 698.12 0 0 0 0 0
501 1 3 31.1018 703.75 0 0 0 0 0
502 1 3 31.1018 709.38 0 0 0 0 0
503 1 3 31.1018 715.01 0 0 0 0 0
504 1 3 31.1018 720.64 0 0 0 0 0
505 1 3 31.1018 726.27 0 0 0 0 0
506 1 3 31.1018 731.9 0 0 0 0 0
507 1 3 31.1018 737.53 0 0 0 0 0
508 1 3 31.1018 743.16 0 0 0 0 0
509 1 3 31.1018 748.79 0 0 0 0 0
510 1 3 31.1018 754.42 0 0 0 0 0
511 1 3 31.1018 760.05 0 0 0 0 0
512 1 3 31.1018 765.68 0 0 0 0 0
513 1 3 31.1018 771.31 0 0 0 0 0
514 1 3 31.1018 776.94 0 0 0 0 0
515 1 3 31.1018 782.57 0 0 0 0 0
516 1 3 31.1018 788.2 0 0 0 0 0
517 1 3 31.1018 793.83 0 0 0 0 0
518 1 3 31.1018 799.46 0 0 0 0 0
519 1 3 31.1018 805.09 0 0 0 0 0
520 1 3 31.1018 810.72 0 0 0 0 0
521 1 3 31.1018 816.35 0 0 0 0 0
522 1 3 31.1018 821.98 0 0 0 0 0
523 1 3 31.1018 827.61 0 0 0 0 0
524 1 3 31.1018 833.24 0 0 0 0 0
525 1 3 31.1018 838.87 0 0 0 0 0
526 1 3 31.1018 844.5 0 0 0 0 0
527 1 3 31.1018 850.13 0 0 0 0 0
528 1 3 31.1018 855.76 0 0 0 0 0
529 1 3 31.1018 861.39 0 0 0 0 0
530 1 3 31.1018 867.02 0 0 0 0 0
531 1 3 31.1018 872.65 0 0 0 0 0
532 1 3 31.1018 878.28 0 0 0 0 0
533 1 3 31.1018 883.91 0 0 0 0 0
534 1 3 31.1018 889.54 0 0 0 0 0
535 1 3 31.1018 895.17 0 0 0 0 0
536 1 3 31.1018 900.8 0 0 0 0 0
537 1 3 31.1018 906.43 0 0 0 0 0
538 1 3 31.1018 912.06 0 0 0 0 0
539 1 3 31.1018 917.69 0 0 0 0 0
540 1 3 31.1018 923.32 0 0 0 0 0
541 1 3 31.1018 928.95 0 0 0 0 0
542 1 3 31.1018 934.58 0 0 0 0 0
543 1 3 31.1018 940.21 0 0 0 0 0
544 1 3 31.1018 945.84 0 0 0 0 0
545 1 3 31.1018 951.47 0 0 0 0 0
546 1 3 31.1018 957.1 0 0 0 0 0
547 1 3 31.1018 962.73 0 0 0 0 0
548 1 3 31.1018 968.36 0 0 0 0 0
549 1 3 31.1018 973.99 0 0 0 0 0
550 1 3 31.1018 979.62 0 0 0 0 0
551 1 3 31.1018 985.25 0 0 0 0 0
552 1 3 31.1018 990.88 0 0 0 0 0
553 1 3 31.1018 996.51 0 0 0 0 0
554 1 3 31.1018 1002.14 0 0 0 0 0
555 1 3 31.1018 1007.77 0 0 0 0 0
556 1 3 31.1018 1013.4 0 0 0 0 0
557 1 3 31.1018 1019.03 0 0 0 0 0
558 1 3 31.1018 1024.66 0 0 0 0 0
559 1 3 31.1018 1030.29 0 0 0 0 0
560 1 3 31.1018 1035.92 0 0 0 0 0
561 1 3 31.1018 1041.55 0 0 0 0 0
562 1 3 31.1018 1047.18 0 0 0 0 0
563 1 3 31.1018 1052.81 0 0 0 0 0
564 1 3 31.1018 1058.44 0 0 0 0 0
565 1 3 31.1018 1064.07 0 0 0 0 0
566 1 3 31.1018 1069.7 0 0 0 0 0
567 1 3 31.1018 1075.33 0 0 0 0 0
568 1 3 31.1018 1080.96 0 0 0 0 0
569 1 3 31.1018 1086.59 0 0 0 0 0
570 1 3 31.1018 1092.22 0 0 0 0 0
571 1 3 31.1018 1097.85 0 0 0 0 0
572 1 3 31.1018 1103.48 0 0 0 0 0
573 1 3 31.1018 1109.11 0 0 0 0 0