LAMMPS (23 Jun 2022 - Update 1)
  using 1 OpenMP thread(s) per MPI task
Lattice spacing in x,y,z = 5 5 5
Created orthogonal box = (-1875 -100 -100) to (1875 100 100)
  2 by 1 by 1 MPI processor grid
Created 750 atoms
  using lattice units in orthogonal box = (-1875 -100 -100) to (1875 100 100)
  create_atoms CPU = 0.001 seconds
Lattice spacing in x,y,z = 3 3 3
Created 501 atoms
  using lattice units in orthogonal box = (-1875 -100 -100) to (1875 100 100)
  create_atoms CPU = 0.001 seconds
Setting atom values ...
  750 settings made for diameter
Setting atom values ...
  750 settings made for mass
Setting atom values ...
  501 settings made for diameter
Setting atom values ...
  501 settings made for mass
750 atoms in group substrate
501 atoms in group slider1
  1 rigid bodies with 501 atoms
Generated 0 of 1 mixed pair_coeff terms from geometric mixing rule
Neighbor list info ...
  update every 1 steps, delay 0 steps, check yes
  max neighbors/atom: 2000, page size: 100000
  master list distance cutoff = 3.1
  ghost atom cutoff = 3.1
  binsize = 1.55, bins = 2420 130 130
  1 neighbor lists, perpetual/occasional/extra = 1 0 0
  (1) pair granular, perpetual
      attributes: half, newton on, size, history
      pair build: half/size/bin/newton
      stencil: half/bin/3d
      bin: standard
Setting up Verlet run ...
  Unit style    : micro
  Current step  : 0
  Time step     : 1e-05
Per MPI rank memory allocation (min/avg/max) = 97.32 | 97.32 | 97.32 Mbytes
   Step           Lx             Ly             Lz           Press           Pxx            Pyy            Pzz           KinEng         PotEng          Temp          c_1[1]         c_1[2]         c_1[3]    
         0   3750           200            200            0              0              0              0              0              0              0              0              0              6            
    100000   3750           200            200            0.0027243137  -3.3658062e-37  0              0.008172941    294271.87      0              5.6837341e+10  0              0              3.3280478    
    200000   3750           200            200            0.00098143117  2.740706e-45   0              0.0029442935   73580.728      0              1.42118e+10    0              0              3.0750753    
    300000   3750           200            200            0.00012021477  7.9689867e-43  0              0.0003606443   2144.9755      0              4.1429277e+08  0              0              3.0477357    
    400000   3750           200            200           -0.0001286787  -1.3463215e-36  0             -0.00038603611  3818.3243      0              7.3749286e+08  0              0              3.0027538    
    500000   3750           200            200            0.00053602488 -3.9968953e-37  0              0.0016080747   790.92073      0              1.5276293e+08  0              0              2.9994186    
    600000   3750           200            200            0.0056409659   7.5730649e-37  0              0.016922898    25.609453      0              4946355.2      0              0              2.9974091    
    700000   3750           200            200            0.0029467611   2.524355e-37   0              0.0088402834   16.382928      0              3164291.9      0              0              2.9983211    
    800000   3750           200            200            0.0030225361  -1.6829032e-37  0              0.0090676084   0.015096752    0              2915.8724      0              0              2.9982888    
    900000   3750           200            200            0.0032636116   1.6829033e-37  0              0.0097908349   0.2283609      0              44106.922      0              0              2.9981984    
   1000000   3750           200            200            0.0033495027   1.5777218e-38  0              0.010048508    0.047212329    0              9118.8576      0              0              2.9981672    
   1100000   3750           200            200            0.003352882   -6.3108872e-38  0              0.010058646    0.00075543388  0              145.90879      0              0              2.9981661    
   1200000   3750           200            200            0.003342728    2.1036291e-38  0              0.010028184    0.00031077858  0              60.025542      0              0              2.9981698    
   1300000   3750           200            200            0.0033379749  -2.1036291e-38  0              0.010013925    0.00012505927  0              24.154658      0              0              2.9981716    
   1400000   3750           200            200            0.0033373267   6.3108872e-38  0              0.01001198     5.6110288e-06  0              1.083746       0              0              2.9981718    
   1500000   3750           200            200            0.0033376923   1.6983487e-47  0              0.010013077    2.5261256e-07  0              0.048791027    0              0              2.9981717    
   1600000   3750           200            200            0.0033379349  -3.1554436e-38  0              0.010013805    2.8372001e-07  0              0.054799295    0              0              2.9981716    
   1700000   3750           200            200            0.0033379885   2.1036291e-38  0              0.010013966    2.5045299e-08  0              0.0048373915   0              0              2.9981716    
   1800000   3750           200            200            0.0033379786   3.139608e-50   0              0.010013936    2.174494e-11   0              4.1999412e-06  0              0              2.9981716    
   1900000   3750           200            200            0.0033379671  -1.0518145e-37  0              0.010013901    5.4367129e-10  0              0.00010500776  0              0              2.9981716    
   2000000   3750           200            200            0.0033379636  -1.0518145e-37  0              0.010013891    8.5847255e-11  0              1.6581027e-05  0              0              2.9981716    
   2100000   3750           200            200            0.0033379637   8.4145163e-38  0              0.010013891    6.2126261e-13  0              1.1999419e-07  0              0              2.9981716    
   2200000   3750           200            200            0.0033379642   4.2072582e-38  0              0.010013892    8.3738353e-13  0              1.6173701e-07  0              0              2.9981716    
   2300000   3750           200            200            0.0033379644  -1.0518145e-38  0              0.010013893    2.4450688e-13  0              4.7225448e-08  0              0              2.9981716    
   2400000   3750           200            200            0.0033379644  -5.2590727e-38  0              0.010013893    7.4487677e-15  0              1.4386973e-09  0              0              2.9981716    
   2500000   3750           200            200            0.0033379644  -1.0518145e-37  0              0.010013893    9.3007995e-16  0              1.7964093e-10  0              0              2.9981716    
   2600000   3750           200            200            0.0033379643  -8.4145163e-38  0              0.010013893    5.977447e-16   0              1.1545181e-10  0              0              2.9981716    
   2700000   3750           200            200            0.0033379643  -1.0518145e-38  0              0.010013893    2.1653892e-17  0              4.1823557e-12  0              0              2.9981716    
   2800000   3750           200            200            0.0033379643  -4.2072582e-38  0              0.010013893    7.5864099e-18  0              1.4652823e-12  0              0              2.9981716    
   2900000   3750           200            200            0.0033379643  -3.7865323e-37  0              0.010013893    3.8447693e-18  0              7.4260061e-13  0              0              2.9981716    
   3000000   3750           200            200            0.0033379643   8.4145183e-38  0              0.010013893    1.4590451e-20  0              2.8180827e-15  0              0              2.9981716    
Loop time of 206.14 on 2 procs for 3000000 steps with 1251 atoms

Performance: 12573967.383 ns/day, 0.000 hours/ns, 14553.203 timesteps/s
99.9% CPU use with 2 MPI tasks x 1 OpenMP threads

MPI task timing breakdown:
Section |  min time  |  avg time  |  max time  |%varavg| %total
---------------------------------------------------------------
Pair    | 48.88      | 48.939     | 48.999     |   0.9 | 23.74
Neigh   | 4.7865     | 4.7872     | 4.788      |   0.0 |  2.32
Comm    | 16.335     | 16.405     | 16.475     |   1.7 |  7.96
Output  | 0.20773    | 0.20777    | 0.20782    |   0.0 |  0.10
Modify  | 121.99     | 122.53     | 123.07     |   4.9 | 59.44
Other   |            | 13.27      |            |       |  6.44

Nlocal:          625.5 ave         626 max         625 min
Histogram: 1 0 0 0 0 0 0 0 0 1
Nghost:            2.5 ave           3 max           2 min
Histogram: 1 0 0 0 0 0 0 0 0 1
Neighs:          300.5 ave         301 max         300 min
Histogram: 1 0 0 0 0 0 0 0 0 1

Total # of neighbors = 601
Ave neighs/atom = 0.48041567
Neighbor list builds = 168
Dangerous builds = 0
  using 1 OpenMP thread(s) per MPI task
Lattice spacing in x,y,z = 5.01 5.01 5.01
Created orthogonal box = (-1878.75 -100 -100) to (1878.75 100 100)
  2 by 1 by 1 MPI processor grid
Created 750 atoms
  using lattice units in orthogonal box = (-1878.75 -100 -100) to (1878.75 100 100)
  create_atoms CPU = 0.001 seconds
Lattice spacing in x,y,z = 3 3 3
Created 501 atoms
  using lattice units in orthogonal box = (-1878.75 -100 -100) to (1878.75 100 100)
  create_atoms CPU = 0.000 seconds
Setting atom values ...
  750 settings made for diameter
Setting atom values ...
  750 settings made for mass
Setting atom values ...
  501 settings made for diameter
Setting atom values ...
  501 settings made for mass
750 atoms in group substrate
501 atoms in group slider1
  1 rigid bodies with 501 atoms
Generated 0 of 1 mixed pair_coeff terms from geometric mixing rule
Neighbor list info ...
  update every 1 steps, delay 0 steps, check yes
  max neighbors/atom: 2000, page size: 100000
  master list distance cutoff = 3.1
  ghost atom cutoff = 3.1
  binsize = 1.55, bins = 2425 130 130
  1 neighbor lists, perpetual/occasional/extra = 1 0 0
  (1) pair granular, perpetual
      attributes: half, newton on, size, history
      pair build: half/size/bin/newton
      stencil: half/bin/3d
      bin: standard
Setting up Verlet run ...
  Unit style    : micro
  Current step  : 0
  Time step     : 1e-05
Per MPI rank memory allocation (min/avg/max) = 97.53 | 97.53 | 97.53 Mbytes
   Step           Lx             Ly             Lz           Press           Pxx            Pyy            Pzz           KinEng         PotEng          Temp          c_1[1]         c_1[2]         c_1[3]    
         0   3757.5         200            200            0              0              0              0              0              0              0              0              0              6            
    100000   3757.5         200            200            0.0026973478   5.3746259e-36  0              0.0080920434   291035.27      0              5.6212207e+10  0              0              3.3295249    
    200000   3757.5         200            200            0.00093171478  2.6872796e-36  0              0.0027951443   68147.323      0              1.3162361e+10  0              0              3.0795825    
    300000   3757.5         200            200            2.4976522e-05 -2.0994302e-38  0              7.4929565e-05  106.19902      0              20511882       0              0              3.0451977    
    400000   3757.5         200            200            7.5488835e-05  4.1988611e-38  0              0.0002264665   922.58747      0              1.7819379e+08  0              0              3.0046564    
    500000   3757.5         200            200            0.0082309574   0.0064587047   0              0.018234167    388.37683      0              75013308       0              0              2.9928983    
    600000   3757.5         200            200            0.002677393    0.0017104244   0              0.0063217546   0.42442744     0              81976.328      0              0              2.9958359    
    700000   3757.5         200            200            0.0046672427   0.0026862932   0              0.011315435    2.1968252      0              424307.3       0              0              2.9944208    
    800000   3757.5         200            200            0.0040002879   0.0024986203   0              0.0095022435   0.25064999     0              48411.965      0              0              2.9948968    
    900000   3757.5         200            200            0.0042355962   0.0025407401   0              0.010166049    0.021164842    0              4087.8979      0              0              2.9947173    
   1000000   3757.5         200            200            0.0041464984   0.0025256948   0              0.0099138005   0.0015061348   0              290.90343      0              0              2.9947848    
   1100000   3757.5         200            200            0.0041798955   0.002531446    0              0.01000824     7.8762712e-05  0              15.212678      0              0              2.9947595    
   1200000   3757.5         200            200            0.0041674544   0.0025293238   0              0.0099730394   1.5739024e-06  0              0.30399246     0              0              2.9947689    
   1300000   3757.5         200            200            0.004172056    0.0025301099   0              0.009986058    7.8057856e-08  0              0.015076538    0              0              2.9947654    
   1400000   3757.5         200            200            0.0041703651   0.0025298218   0              0.0099812734   1.4000751e-07  0              0.027041846    0              0              2.9947667    
   1500000   3757.5         200            200            0.0041709822   0.0025299268   0              0.0099830199   5.5891379e-08  0              0.010795179    0              0              2.9947662    
   1600000   3757.5         200            200            0.0041707585   0.0025298888   0              0.0099823867   1.5045585e-08  0              0.0029059898   0              0              2.9947664    
   1700000   3757.5         200            200            0.004170839    0.0025299025   0              0.0099826146   3.3560054e-09  0              0.00064819795  0              0              2.9947663    
   1800000   3757.5         200            200            0.0041708102   0.0025298976   0              0.0099825331   6.6941746e-10  0              0.00012929509  0              0              2.9947664    
   1900000   3757.5         200            200            0.0041708205   0.0025298993   0              0.009982562    1.2387895e-10  0              2.3926685e-05  0              0              2.9947664    
   2000000   3757.5         200            200            0.0041708169   0.0025298987   0              0.0099825519   2.1710963e-11  0              4.1933788e-06  0              0              2.9947664    
   2100000   3757.5         200            200            0.0041708181   0.0025298989   0              0.0099825554   3.6475779e-12  0              7.0451394e-07  0              0              2.9947664    
   2200000   3757.5         200            200            0.0041708177   0.0025298989   0              0.0099825542   5.9312791e-13  0              1.145601e-07   0              0              2.9947664    
   2300000   3757.5         200            200            0.0041708178   0.0025298989   0              0.0099825546   9.3431707e-14  0              1.8045931e-08  0              0              2.9947664    
   2400000   3757.5         200            200            0.0041708178   0.0025298989   0              0.0099825545   1.4468409e-14  0              2.7945108e-09  0              0              2.9947664    
   2500000   3757.5         200            200            0.0041708178   0.0025298989   0              0.0099825545   2.2154259e-15  0              4.2789994e-10  0              0              2.9947664    
   2600000   3757.5         200            200            0.0041708178   0.0025298989   0              0.0099825545   3.3248302e-16  0              6.421766e-11   0              0              2.9947664    
   2700000   3757.5         200            200            0.0041708178   0.0025298989   0              0.0099825545   4.7005878e-17  0              9.0789825e-12  0              0              2.9947664    
   2800000   3757.5         200            200            0.0041708178   0.0025298989   0              0.0099825545   6.0827924e-18  0              1.1748651e-12  0              0              2.9947664    
   2900000   3757.5         200            200            0.0041708178   0.0025298989   0              0.0099825545   2.6527816e-20  0              5.1237331e-15  0              0              2.9947664    
   3000000   3757.5         200            200            0.0041708178   0.0025298989   0              0.0099825545   1.304619e-18   0              2.5198154e-13  0              0              2.9947664    
Loop time of 187.378 on 2 procs for 3000000 steps with 1251 atoms

Performance: 13832977.147 ns/day, 0.000 hours/ns, 16010.390 timesteps/s
99.9% CPU use with 2 MPI tasks x 1 OpenMP threads

MPI task timing breakdown:
Section |  min time  |  avg time  |  max time  |%varavg| %total
---------------------------------------------------------------
Pair    | 41.027     | 41.989     | 42.951     |  14.8 | 22.41
Neigh   | 4.607      | 4.6081     | 4.6092     |   0.1 |  2.46
Comm    | 16.112     | 17.096     | 18.08      |  23.8 |  9.12
Output  | 0.27497    | 0.27507    | 0.27516    |   0.0 |  0.15
Modify  | 110.23     | 110.27     | 110.31     |   0.4 | 58.85
Other   |            | 13.14      |            |       |  7.01

Nlocal:          625.5 ave         626 max         625 min
Histogram: 1 0 0 0 0 0 0 0 0 1
Nghost:            2.5 ave           3 max           2 min
Histogram: 1 0 0 0 0 0 0 0 0 1
Neighs:          329.5 ave         330 max         329 min
Histogram: 1 0 0 0 0 0 0 0 0 1

Total # of neighbors = 659
Ave neighs/atom = 0.52677858
Neighbor list builds = 164
Dangerous builds = 0
  using 1 OpenMP thread(s) per MPI task
Lattice spacing in x,y,z = 5.02 5.02 5.02
Created orthogonal box = (-1882.5 -100 -100) to (1882.5 100 100)
  2 by 1 by 1 MPI processor grid
Created 750 atoms
  using lattice units in orthogonal box = (-1882.5 -100 -100) to (1882.5 100 100)
  create_atoms CPU = 0.001 seconds
Lattice spacing in x,y,z = 3 3 3
Created 501 atoms
  using lattice units in orthogonal box = (-1882.5 -100 -100) to (1882.5 100 100)
  create_atoms CPU = 0.000 seconds
Setting atom values ...
  750 settings made for diameter
Setting atom values ...
  750 settings made for mass
Setting atom values ...
  501 settings made for diameter
Setting atom values ...
  501 settings made for mass
750 atoms in group substrate
501 atoms in group slider1
  1 rigid bodies with 501 atoms
Generated 0 of 1 mixed pair_coeff terms from geometric mixing rule
Neighbor list info ...
  update every 1 steps, delay 0 steps, check yes
  max neighbors/atom: 2000, page size: 100000
  master list distance cutoff = 3.1
  ghost atom cutoff = 3.1
  binsize = 1.55, bins = 2430 130 130
  1 neighbor lists, perpetual/occasional/extra = 1 0 0
  (1) pair granular, perpetual
      attributes: half, newton on, size, history
      pair build: half/size/bin/newton
      stencil: half/bin/3d
      bin: standard
Setting up Verlet run ...
  Unit style    : micro
  Current step  : 0
  Time step     : 1e-05
Per MPI rank memory allocation (min/avg/max) = 97.67 | 97.67 | 97.67 Mbytes
   Step           Lx             Ly             Lz           Press           Pxx            Pyy            Pzz           KinEng         PotEng          Temp          c_1[1]         c_1[2]         c_1[3]    
         0   3765           200            200            0              0              0              0              0              0              0              0              0              6            
    100000   3765           200            200            0.0026913275  -5.363807e-36   0              0.0080739824   290936.1       0              5.6193052e+10  0              0              3.3295986    
    200000   3765           200            200            0.0009285633   2.681953e-36   0              0.0027856899   68001.455      0              1.3134187e+10  0              0              3.0796953    
    300000   3765           200            200            2.2866162e-05  1.2117208e-41  0              6.8598487e-05  89.692443      0              17323708       0              0              3.0450368    
    400000   3765           200            200            6.879499e-05   8.5312804e-44  0              0.00020638497  776.28539      0              1.4993617e+08  0              0              3.0047989    
    500000   3765           200            200            0.0030188353  -0.012499666    0              0.021556172    66.843021      0              12910441       0              0              2.9921322    
    600000   3765           200            200            0.00066598454 -0.0057767593   0              0.0077747129   67.608561      0              13058302       0              0              2.9952397    
    700000   3765           200            200            0.0015338313  -0.0060883561   0              0.01068985     10.179444      0              1966115.6      0              0              2.9944521    
    800000   3765           200            200            0.0012738894  -0.0059273733   0              0.0097490414   1.5209884      0              293772.34      0              0              2.9946925    
    900000   3765           200            200            0.0013407526  -0.0059498273   0              0.0099720851   0.24501486     0              47323.563      0              0              2.9946354    
   1000000   3765           200            200            0.0013456595  -0.0059520864   0              0.0099890648   0.028070122    0              5421.6228      0              0              2.9946296    
   1100000   3765           200            200            0.0013319692  -0.0059471342   0              0.009943042    0.001939964    0              374.69568      0              0              2.9946424    
   1200000   3765           200            200            0.0013404002  -0.0059501243   0              0.0099713248   4.294711e-05   0              8.295049       0              0              2.9946347    
   1300000   3765           200            200            0.0013366663  -0.0059488174   0              0.0099588162   2.5986015e-06  0              0.50190866     0              0              2.9946381    
   1400000   3765           200            200            0.0013379996  -0.0059492801   0              0.009963279    3.8143464e-06  0              0.73672455     0              0              2.9946369    
   1500000   3765           200            200            0.0013376208  -0.0059491504   0              0.0099620129   1.1571549e-06  0              0.22349947     0              0              2.9946372    
   1600000   3765           200            200            0.0013376916  -0.0059491738   0              0.0099622485   2.0125124e-07  0              0.038870809    0              0              2.9946372    
   1700000   3765           200            200            0.0013376959  -0.0059491758   0              0.0099622635   2.3040545e-08  0              0.0044501818   0              0              2.9946372    
   1800000   3765           200            200            0.0013376835  -0.0059491713   0              0.0099622218   1.5940393e-09  0              0.00030788181  0              0              2.9946372    
   1900000   3765           200            200            0.0013376911  -0.005949174    0              0.0099622474   3.5235798e-11  0              6.8056424e-06  0              0              2.9946372    
   2000000   3765           200            200            0.0013376877  -0.0059491728   0              0.0099622361   2.1386879e-12  0              4.1307833e-07  0              0              2.9946372    
   2100000   3765           200            200            0.001337689   -0.0059491733   0              0.0099622401   3.1336566e-12  0              6.0525225e-07  0              0              2.9946372    
   2200000   3765           200            200            0.0013376886  -0.0059491731   0              0.009962239    9.5108639e-13  0              1.8369823e-07  0              0              2.9946372    
   2300000   3765           200            200            0.0013376887  -0.0059491732   0              0.0099622392   1.653816e-13   0              3.1942741e-08  0              0              2.9946372    
   2400000   3765           200            200            0.0013376887  -0.0059491732   0              0.0099622392   1.8905555e-14  0              3.6515263e-09  0              0              2.9946372    
   2500000   3765           200            200            0.0013376887  -0.0059491732   0              0.0099622391   1.3303929e-15  0              2.5695965e-10  0              0              2.9946372    
   2600000   3765           200            200            0.0013376887  -0.0059491732   0              0.0099622392   2.8658863e-17  0              5.5353358e-12  0              0              2.9946372    
   2700000   3765           200            200            0.0013376887  -0.0059491732   0              0.0099622392   5.6384018e-19  0              1.089033e-13   0              0              2.9946372    
   2800000   3765           200            200            0.0013376887  -0.0059491732   0              0.0099622392   1.355409e-18   0              2.6179139e-13  0              0              2.9946372    
   2900000   3765           200            200            0.0013376887  -0.0059491732   0              0.0099622392   1.3319468e-18  0              2.5725977e-13  0              0              2.9946372    
   3000000   3765           200            200            0.0013376887  -0.0059491732   0              0.0099622392   1.3865238e-20  0              2.6780108e-15  0              0              2.9946372    
Loop time of 182.429 on 2 procs for 3000000 steps with 1251 atoms

Performance: 14208297.967 ns/day, 0.000 hours/ns, 16444.789 timesteps/s
99.9% CPU use with 2 MPI tasks x 1 OpenMP threads

MPI task timing breakdown:
Section |  min time  |  avg time  |  max time  |%varavg| %total
---------------------------------------------------------------
Pair    | 39.604     | 39.633     | 39.662     |   0.5 | 21.73
Neigh   | 4.6527     | 4.6532     | 4.6538     |   0.0 |  2.55
Comm    | 16.178     | 16.195     | 16.212     |   0.4 |  8.88
Output  | 0.21277    | 0.21282    | 0.21287    |   0.0 |  0.12
Modify  | 108.54     | 108.64     | 108.73     |   0.9 | 59.55
Other   |            | 13.1       |            |       |  7.18

Nlocal:          625.5 ave         626 max         625 min
Histogram: 1 0 0 0 0 0 0 0 0 1
Nghost:            2.5 ave           3 max           2 min
Histogram: 1 0 0 0 0 0 0 0 0 1
Neighs:          328.5 ave         329 max         328 min
Histogram: 1 0 0 0 0 0 0 0 0 1

Total # of neighbors = 657
Ave neighs/atom = 0.52517986
Neighbor list builds = 164
Dangerous builds = 0
  using 1 OpenMP thread(s) per MPI task
Lattice spacing in x,y,z = 5.03 5.03 5.03
Created orthogonal box = (-1886.25 -100 -100) to (1886.25 100 100)
  2 by 1 by 1 MPI processor grid
Created 750 atoms
  using lattice units in orthogonal box = (-1886.25 -100 -100) to (1886.25 100 100)
  create_atoms CPU = 0.001 seconds
Lattice spacing in x,y,z = 3 3 3
Created 501 atoms
  using lattice units in orthogonal box = (-1886.25 -100 -100) to (1886.25 100 100)
  create_atoms CPU = 0.000 seconds
Setting atom values ...
  750 settings made for diameter
Setting atom values ...
  750 settings made for mass
Setting atom values ...
  501 settings made for diameter
Setting atom values ...
  501 settings made for mass
750 atoms in group substrate
501 atoms in group slider1
  1 rigid bodies with 501 atoms
Generated 0 of 1 mixed pair_coeff terms from geometric mixing rule
Neighbor list info ...
  update every 1 steps, delay 0 steps, check yes
  max neighbors/atom: 2000, page size: 100000
  master list distance cutoff = 3.1
  ghost atom cutoff = 3.1
  binsize = 1.55, bins = 2434 130 130
  1 neighbor lists, perpetual/occasional/extra = 1 0 0
  (1) pair granular, perpetual
      attributes: half, newton on, size, history
      pair build: half/size/bin/newton
      stencil: half/bin/3d
      bin: standard
Setting up Verlet run ...
  Unit style    : micro
  Current step  : 0
  Time step     : 1e-05
Per MPI rank memory allocation (min/avg/max) = 97.8 | 97.8 | 97.8 Mbytes
   Step           Lx             Ly             Lz           Press           Pxx            Pyy            Pzz           KinEng         PotEng          Temp          c_1[1]         c_1[2]         c_1[3]    
         0   3772.5         200            200            0              0              0              0              0              0              0              0              0              6            
    100000   3772.5         200            200            0.0026866232   5.6548163e-42  0              0.0080598695   291035.36      0              5.6212225e+10  0              0              3.3295244    
    200000   3772.5         200            200            0.00092801365 -5.0185977e-37  0              0.0027840409   68147.737      0              1.3162441e+10  0              0              3.0795813    
    300000   3772.5         200            200            2.4885583e-05  1.6728673e-37  0              7.465675e-05   106.26901      0              20525402       0              0              3.0451974    
    400000   3772.5         200            200            7.5196631e-05  4.8862376e-43  0              0.00022558989  922.77265      0              1.7822956e+08  0              0              3.004656     
    500000   3772.5         200            200            0.007570697    0.0045764838   0              0.018135607    390.62834      0              75448178       0              0              2.992903     
    600000   3772.5         200            200            0.0024368028   0.0010123795   0              0.006298029    0.14506529     0              28018.735      0              0              2.9958367    
    700000   3772.5         200            200            0.0042653946   0.0017941684   0              0.011002015    6.361637       0              1228722.7      0              0              2.9944901    
    800000   3772.5         200            200            0.0037644702   0.0013488578   0              0.0099445529   1.841809       0              355737.46      0              0              2.9947689    
    900000   3772.5         200            200            0.0037256017   0.0013811107   0              0.0097956945   0.10619148     0              20510.426      0              0              2.9948052    
   1000000   3772.5         200            200            0.0038036017   0.0013976418   0              0.010013163    0.00071346696  0              137.80306      0              0              2.9947483    
   1100000   3772.5         200            200            0.0037735326   0.0013914898   0              0.009929108    0.0032410032   0              625.98578      0              0              2.9947706    
   1200000   3772.5         200            200            0.0037774355   0.001392346    0              0.0099399604   0.00055990852  0              108.14391      0              0              2.9947676    
   1300000   3772.5         200            200            0.0037796336   0.0013927887   0              0.009946112    1.3239813e-05  0              2.5572127      0              0              2.994766     
   1400000   3772.5         200            200            0.0037780544   0.0013924622   0              0.0099417011   2.1158273e-06  0              0.40866292     0              0              2.9947672    
   1500000   3772.5         200            200            0.0037785137   0.0013925589   0              0.0099429823   1.4115314e-06  0              0.27263121     0              0              2.9947668    
   1600000   3772.5         200            200            0.0037785071   0.0013925567   0              0.0099429647   1.3867228e-07  0              0.026783953    0              0              2.9947668    
   1700000   3772.5         200            200            0.0037784482   0.0013925447   0              0.0099428      3.1714559e-10  0              6.1255303e-05  0              0              2.9947669    
   1800000   3772.5         200            200            0.0037784773   0.0013925508   0              0.0099428812   1.7456688e-09  0              0.0003371684   0              0              2.9947668    
   1900000   3772.5         200            200            0.0037784714   0.0013925495   0              0.0099428646   5.0231921e-10  0              9.7020788e-05  0              0              2.9947669    
   2000000   3772.5         200            200            0.0037784703   0.0013925493   0              0.0099428616   2.5881208e-11  0              4.9988436e-06  0              0              2.9947669    
   2100000   3772.5         200            200            0.0037784716   0.0013925496   0              0.0099428653   3.4998581e-13  0              6.7598249e-08  0              0              2.9947669    
   2200000   3772.5         200            200            0.0037784711   0.0013925495   0              0.0099428639   9.4221648e-13  0              1.8198505e-07  0              0              2.9947669    
   2300000   3772.5         200            200            0.0037784712   0.0013925495   0              0.0099428641   1.4794066e-13  0              2.8574101e-08  0              0              2.9947669    
   2400000   3772.5         200            200            0.0037784712   0.0013925495   0              0.0099428642   2.8232417e-15  0              5.4529695e-10  0              0              2.9947669    
   2500000   3772.5         200            200            0.0037784712   0.0013925495   0              0.0099428641   7.4290812e-16  0              1.434895e-10   0              0              2.9947669    
   2600000   3772.5         200            200            0.0037784712   0.0013925495   0              0.0099428641   3.8649079e-16  0              7.4649028e-11  0              0              2.9947669    
   2700000   3772.5         200            200            0.0037784712   0.0013925495   0              0.0099428641   3.7347551e-17  0              7.2135184e-12  0              0              2.9947669    
   2800000   3772.5         200            200            0.0037784712   0.0013925495   0              0.0099428641   5.506926e-20   0              1.063639e-14   0              0              2.9947669    
   2900000   3772.5         200            200            0.0037784712   0.0013925495   0              0.0099428641   5.1687002e-19  0              9.9831214e-14  0              0              2.9947669    
   3000000   3772.5         200            200            0.0037784712   0.0013925495   0              0.0099428641   3.8622602e-19  0              7.4597889e-14  0              0              2.9947669    
Loop time of 183.067 on 2 procs for 3000000 steps with 1251 atoms

Performance: 14158720.736 ns/day, 0.000 hours/ns, 16387.408 timesteps/s
100.0% CPU use with 2 MPI tasks x 1 OpenMP threads

MPI task timing breakdown:
Section |  min time  |  avg time  |  max time  |%varavg| %total
---------------------------------------------------------------
Pair    | 40.428     | 40.564     | 40.701     |   2.1 | 22.16
Neigh   | 4.6611     | 4.6624     | 4.6638     |   0.1 |  2.55
Comm    | 16.205     | 16.332     | 16.458     |   3.1 |  8.92
Output  | 0.2114     | 0.21146    | 0.21152    |   0.0 |  0.12
Modify  | 108.13     | 108.2      | 108.26     |   0.6 | 59.10
Other   |            | 13.1       |            |       |  7.16

Nlocal:          625.5 ave         626 max         625 min
Histogram: 1 0 0 0 0 0 0 0 0 1
Nghost:            2.5 ave           3 max           2 min
Histogram: 1 0 0 0 0 0 0 0 0 1
Neighs:          328.5 ave         329 max         328 min
Histogram: 1 0 0 0 0 0 0 0 0 1

Total # of neighbors = 657
Ave neighs/atom = 0.52517986
Neighbor list builds = 164
Dangerous builds = 0
  using 1 OpenMP thread(s) per MPI task
Lattice spacing in x,y,z = 5.04 5.04 5.04
Created orthogonal box = (-1890 -100 -100) to (1890 100 100)
  2 by 1 by 1 MPI processor grid
Created 750 atoms
  using lattice units in orthogonal box = (-1890 -100 -100) to (1890 100 100)
  create_atoms CPU = 0.001 seconds
Lattice spacing in x,y,z = 3 3 3
Created 501 atoms
  using lattice units in orthogonal box = (-1890 -100 -100) to (1890 100 100)
  create_atoms CPU = 0.000 seconds
Setting atom values ...
  750 settings made for diameter
Setting atom values ...
  750 settings made for mass
Setting atom values ...
  501 settings made for diameter
Setting atom values ...
  501 settings made for mass
750 atoms in group substrate
501 atoms in group slider1
  1 rigid bodies with 501 atoms
Generated 0 of 1 mixed pair_coeff terms from geometric mixing rule
Neighbor list info ...
  update every 1 steps, delay 0 steps, check yes
  max neighbors/atom: 2000, page size: 100000
  master list distance cutoff = 3.1
  ghost atom cutoff = 3.1
  binsize = 1.55, bins = 2439 130 130
  1 neighbor lists, perpetual/occasional/extra = 1 0 0
  (1) pair granular, perpetual
      attributes: half, newton on, size, history
      pair build: half/size/bin/newton
      stencil: half/bin/3d
      bin: standard
Setting up Verlet run ...
  Unit style    : micro
  Current step  : 0
  Time step     : 1e-05
Per MPI rank memory allocation (min/avg/max) = 98.01 | 98.01 | 98.01 Mbytes
   Step           Lx             Ly             Lz           Press           Pxx            Pyy            Pzz           KinEng         PotEng          Temp          c_1[1]         c_1[2]         c_1[3]    
         0   3780           200            200            0              0              0              0              0              0              0              0              0              6            
    100000   3780           200            200            0.0026807052   1.6695478e-37  0              0.0080421157   290947.11      0              5.6195178e+10  0              0              3.3295573    
    200000   3780           200            200            0.00092509575  6.3421583e-43  0              0.0027752872   68027.107      0              1.3139142e+10  0              0              3.0796274    
    300000   3780           200            200            2.3356151e-05  1.3750318e-43  0              7.0068454e-05  94.229811      0              18200081       0              0              3.0450295    
    400000   3780           200            200            6.616174e-05  -2.5043201e-37  0              0.00019848522  726.11382      0              1.4024575e+08  0              0              3.0048929    
    500000   3780           200            200            0.0050990457  -0.0058997548   0              0.021196892    89.411709      0              17269486       0              0              2.9922365    
    600000   3780           200            200            0.002533726   -0.0021541873   0              0.0097553653   102.7337       0              19842571       0              0              2.9947895    
    700000   3780           200            200            0.0021663362  -0.0027546871   0              0.0092536957   10.745444      0              2075436.1      0              0              2.9949064    
    800000   3780           200            200            0.0022570281  -0.0027764762   0              0.0095475606   0.92947216     0              179523.54      0              0              2.9948258    
    900000   3780           200            200            0.0023201408  -0.0027903131   0              0.0097507355   0.057806866    0              11165.147      0              0              2.9947722    
   1000000   3780           200            200            0.0023517691  -0.002796927    0              0.0098522342   0.0015557433   0              300.48511      0              0              2.9947458    
   1100000   3780           200            200            0.0023655402  -0.002799738    0              0.0098963587   2.1844373e-05  0              4.2191464      0              0              2.9947345    
   1200000   3780           200            200            0.0023709789  -0.0028008339   0              0.0099137705   7.4456667e-05  0              14.380984      0              0              2.9947301    
   1300000   3780           200            200            0.0023729542  -0.0028012287   0              0.0099200912   2.9770656e-05  0              5.7500738      0              0              2.9947285    
   1400000   3780           200            200            0.0023736127  -0.0028013593   0              0.0099221976   7.2015538e-06  0              1.390949       0              0              2.9947279    
   1500000   3780           200            200            0.0023738105  -0.0028013982   0              0.0099228297   1.3365874e-06  0              0.25815608     0              0              2.9947278    
   1600000   3780           200            200            0.002373861   -0.002801408    0              0.009922991    2.0528654e-07  0              0.039650209    0              0              2.9947277    
   1700000   3780           200            200            0.0023738699  -0.0028014097   0              0.0099230195   2.6720426e-08  0              0.005160935    0              0              2.9947277    
   1800000   3780           200            200            0.0023738694  -0.0028014095   0              0.0099230178   2.9282229e-09  0              0.00056557361  0              0              2.9947277    
   1900000   3780           200            200            0.0023738678  -0.0028014092   0              0.0099230127   2.5899498e-10  0              5.0023763e-05  0              0              2.9947277    
   2000000   3780           200            200            0.0023738668  -0.002801409    0              0.0099230094   1.6346345e-11  0              3.1572261e-06  0              0              2.9947277    
   2100000   3780           200            200            0.0023738663  -0.0028014089   0              0.0099230077   4.6008972e-13  0              8.8864343e-08  0              0              2.9947277    
   2200000   3780           200            200            0.0023738661  -0.0028014088   0              0.009923007    4.5584582e-15  0              8.8044652e-10  0              0              2.9947277    
   2300000   3780           200            200            0.002373866   -0.0028014088   0              0.0099230067   1.9590349e-14  0              3.7837913e-09  0              0              2.9947277    
   2400000   3780           200            200            0.0023738659  -0.0028014088   0              0.0099230066   7.9983129e-15  0              1.5448396e-09  0              0              2.9947277    
   2500000   3780           200            200            0.0023738659  -0.0028014088   0              0.0099230065   1.9474239e-15  0              3.7613653e-10  0              0              2.9947277    
   2600000   3780           200            200            0.0023738659  -0.0028014088   0              0.0099230065   3.6698306e-16  0              7.0881194e-11  0              0              2.9947277    
   2700000   3780           200            200            0.0023738659  -0.0028014088   0              0.0099230065   5.551539e-17   0              1.0722558e-11  0              0              2.9947277    
   2800000   3780           200            200            0.0023738659  -0.0028014088   0              0.0099230065   7.1908488e-18  0              1.3888814e-12  0              0              2.9947277    
   2900000   3780           200            200            0.0023738659  -0.0028014088   0              0.0099230065   8.6120611e-19  0              1.6633824e-13  0              0              2.9947277    
   3000000   3780           200            200            0.0023738659  -0.0028014088   0              0.0099230065   1.0804432e-18  0              2.0868294e-13  0              0              2.9947277    
Loop time of 183.965 on 2 procs for 3000000 steps with 1251 atoms

Performance: 14089629.560 ns/day, 0.000 hours/ns, 16307.442 timesteps/s
99.9% CPU use with 2 MPI tasks x 1 OpenMP threads

MPI task timing breakdown:
Section |  min time  |  avg time  |  max time  |%varavg| %total
---------------------------------------------------------------
Pair    | 41.751     | 41.807     | 41.863     |   0.9 | 22.73
Neigh   | 4.6434     | 4.6449     | 4.6464     |   0.1 |  2.52
Comm    | 16.066     | 16.114     | 16.161     |   1.2 |  8.76
Output  | 0.21175    | 0.21179    | 0.21182    |   0.0 |  0.12
Modify  | 108.05     | 108.15     | 108.25     |   1.0 | 58.79
Other   |            | 13.04      |            |       |  7.09

Nlocal:          625.5 ave         626 max         625 min
Histogram: 1 0 0 0 0 0 0 0 0 1
Nghost:            2.5 ave           3 max           2 min
Histogram: 1 0 0 0 0 0 0 0 0 1
Neighs:          327.5 ave         328 max         327 min
Histogram: 1 0 0 0 0 0 0 0 0 1

Total # of neighbors = 655
Ave neighs/atom = 0.52358114
Neighbor list builds = 164
Dangerous builds = 0
  using 1 OpenMP thread(s) per MPI task
Lattice spacing in x,y,z = 5.05 5.05 5.05
Created orthogonal box = (-1893.75 -100 -100) to (1893.75 100 100)
  2 by 1 by 1 MPI processor grid
Created 750 atoms
  using lattice units in orthogonal box = (-1893.75 -100 -100) to (1893.75 100 100)
  create_atoms CPU = 0.001 seconds
Lattice spacing in x,y,z = 3 3 3
Created 501 atoms
  using lattice units in orthogonal box = (-1893.75 -100 -100) to (1893.75 100 100)
  create_atoms CPU = 0.000 seconds
Setting atom values ...
  750 settings made for diameter
Setting atom values ...
  750 settings made for mass
Setting atom values ...
  501 settings made for diameter
Setting atom values ...
  501 settings made for mass
750 atoms in group substrate
501 atoms in group slider1
  1 rigid bodies with 501 atoms
Generated 0 of 1 mixed pair_coeff terms from geometric mixing rule
Neighbor list info ...
  update every 1 steps, delay 0 steps, check yes
  max neighbors/atom: 2000, page size: 100000
  master list distance cutoff = 3.1
  ghost atom cutoff = 3.1
  binsize = 1.55, bins = 2444 130 130
  1 neighbor lists, perpetual/occasional/extra = 1 0 0
  (1) pair granular, perpetual
      attributes: half, newton on, size, history
      pair build: half/size/bin/newton
      stencil: half/bin/3d
      bin: standard
Setting up Verlet run ...
  Unit style    : micro
  Current step  : 0
  Time step     : 1e-05
Per MPI rank memory allocation (min/avg/max) = 98.15 | 98.15 | 98.15 Mbytes
   Step           Lx             Ly             Lz           Press           Pxx            Pyy            Pzz           KinEng         PotEng          Temp          c_1[1]         c_1[2]         c_1[3]    
         0   3787.5         200            200            0              0              0              0              0              0              0              0              0              6            
    100000   3787.5         200            200            0.0026759801   1.3329996e-36  0              0.0080279404   291034.9       0              5.6212135e+10  0              0              3.3295249    
    200000   3787.5         200            200            0.00092434682 -1.3329903e-36  0              0.0027730405   68148.758      0              1.3162638e+10  0              0              3.0795779    
    300000   3787.5         200            200            2.4849375e-05  2.6659881e-36  0              7.4548125e-05  106.79307      0              20626620       0              0              3.0451958    
    400000   3787.5         200            200            7.4933176e-05 -3.3324778e-37  0              0.00022479953  923.57627      0              1.7838477e+08  0              0              3.0046539    
    500000   3787.5         200            200            0.0072367878   0.0038517331   0              0.01785863     401.0382       0              77458798       0              0              2.9929281    
    600000   3787.5         200            200            0.0024429979   0.0010925259   0              0.0062364677   0.95737371     0              184912.6       0              0              2.995836     
    700000   3787.5         200            200            0.0039726116   0.0017035619   0              0.010214273    13.04347       0              2519290        0              0              2.9946903    
    800000   3787.5         200            200            0.0040313857   0.0016926869   0              0.01040147     0.23858517     0              46081.696      0              0              2.9946495    
    900000   3787.5         200            200            0.0038281559   0.0016651467   0              0.009819321    0.20086096     0              38795.427      0              0              2.9948005    
   1000000   3787.5         200            200            0.0038362035   0.0016664849   0              0.0098421256   0.0089928635   0              1736.9328      0              0              2.9947935    
   1100000   3787.5         200            200            0.0038630168   0.0016702711   0              0.0099187793   0.0029772303   0              575.03919      0              0              2.9947735    
   1200000   3787.5         200            200            0.0038602348   0.0016698556   0              0.0099108487   0.00026567323  0              51.313638      0              0              2.9947757    
   1300000   3787.5         200            200            0.003856789    0.0016693731   0              0.0099009939   4.0090971e-05  0              7.743398       0              0              2.9947783    
   1400000   3787.5         200            200            0.0038573845   0.0016694601   0              0.0099026932   6.7855053e-06  0              1.3105911      0              0              2.9947778    
   1500000   3787.5         200            200            0.003857812    0.0016695198   0              0.0099039163   4.7548061e-07  0              0.091837029    0              0              2.9947775    
   1600000   3787.5         200            200            0.0038577044   0.0016695043   0              0.0099036089   1.5667292e-07  0              0.030260698    0              0              2.9947776    
   1700000   3787.5         200            200            0.0038576535   0.0016694972   0              0.0099034632   4.6172982e-09  0              0.00089181123  0              0              2.9947776    
   1800000   3787.5         200            200            0.0038576713   0.0016694997   0              0.009903514    3.3408369e-09  0              0.00064526822  0              0              2.9947776    
   1900000   3787.5         200            200            0.003857677    0.0016695005   0              0.0099035305   3.0243563e-11  0              5.8414136e-06  0              0              2.9947776    
   2000000   3787.5         200            200            0.0038576742   0.0016695001   0              0.0099035226   6.6565056e-11  0              1.2856753e-05  0              0              2.9947776    
   2100000   3787.5         200            200            0.0038576736   0.0016695001   0              0.0099035208   4.9947436e-14  0              9.6471318e-09  0              0              2.9947776    
   2200000   3787.5         200            200            0.003857674    0.0016695001   0              0.009903522    1.2463202e-12  0              2.4072136e-07  0              0              2.9947776    
   2300000   3787.5         200            200            0.0038576741   0.0016695001   0              0.0099035222   1.667904e-15   0              3.2214845e-10  0              0              2.9947776    
   2400000   3787.5         200            200            0.003857674    0.0016695001   0              0.009903522    2.1968195e-14  0              4.2430622e-09  0              0              2.9947776    
   2500000   3787.5         200            200            0.003857674    0.0016695001   0              0.009903522    2.6640689e-16  0              5.1455342e-11  0              0              2.9947776    
   2600000   3787.5         200            200            0.003857674    0.0016695001   0              0.009903522    3.5299316e-16  0              6.8179106e-11  0              0              2.9947776    
   2700000   3787.5         200            200            0.003857674    0.0016695001   0              0.009903522    1.0745288e-17  0              2.0754061e-12  0              0              2.9947776    
   2800000   3787.5         200            200            0.003857674    0.0016695001   0              0.009903522    5.6032384e-18  0              1.0822413e-12  0              0              2.9947776    
   2900000   3787.5         200            200            0.003857674    0.0016695001   0              0.009903522    2.3849677e-18  0              4.6064621e-13  0              0              2.9947776    
   3000000   3787.5         200            200            0.003857674    0.0016695001   0              0.009903522    2.4743052e-18  0              4.7790138e-13  0              0              2.9947776    
Loop time of 189.223 on 2 procs for 3000000 steps with 1251 atoms

Performance: 13698139.246 ns/day, 0.000 hours/ns, 15854.328 timesteps/s
99.9% CPU use with 2 MPI tasks x 1 OpenMP threads

MPI task timing breakdown:
Section |  min time  |  avg time  |  max time  |%varavg| %total
---------------------------------------------------------------
Pair    | 41.535     | 41.953     | 42.37      |   6.4 | 22.17
Neigh   | 4.6839     | 4.6854     | 4.6869     |   0.1 |  2.48
Comm    | 15.853     | 16.277     | 16.702     |  10.5 |  8.60
Output  | 0.21025    | 0.21031    | 0.21036    |   0.0 |  0.11
Modify  | 111.17     | 112.1      | 113.03     |   8.8 | 59.24
Other   |            | 14         |            |       |  7.40

Nlocal:          625.5 ave         626 max         625 min
Histogram: 1 0 0 0 0 0 0 0 0 1
Nghost:            2.5 ave           3 max           2 min
Histogram: 1 0 0 0 0 0 0 0 0 1
Neighs:          326.5 ave         327 max         326 min
Histogram: 1 0 0 0 0 0 0 0 0 1

Total # of neighbors = 653
Ave neighs/atom = 0.52198241
Neighbor list builds = 164
Dangerous builds = 0
  using 1 OpenMP thread(s) per MPI task
Lattice spacing in x,y,z = 5.06 5.06 5.06
Created orthogonal box = (-1897.5 -100 -100) to (1897.5 100 100)
  2 by 1 by 1 MPI processor grid
Created 750 atoms
  using lattice units in orthogonal box = (-1897.5 -100 -100) to (1897.5 100 100)
  create_atoms CPU = 0.001 seconds
Lattice spacing in x,y,z = 3 3 3
Created 501 atoms
  using lattice units in orthogonal box = (-1897.5 -100 -100) to (1897.5 100 100)
  create_atoms CPU = 0.000 seconds
Setting atom values ...
  750 settings made for diameter
Setting atom values ...
  750 settings made for mass
Setting atom values ...
  501 settings made for diameter
Setting atom values ...
  501 settings made for mass
750 atoms in group substrate
501 atoms in group slider1
  1 rigid bodies with 501 atoms
Generated 0 of 1 mixed pair_coeff terms from geometric mixing rule
Neighbor list info ...
  update every 1 steps, delay 0 steps, check yes
  max neighbors/atom: 2000, page size: 100000
  master list distance cutoff = 3.1
  ghost atom cutoff = 3.1
  binsize = 1.55, bins = 2449 130 130
  1 neighbor lists, perpetual/occasional/extra = 1 0 0
  (1) pair granular, perpetual
      attributes: half, newton on, size, history
      pair build: half/size/bin/newton
      stencil: half/bin/3d
      bin: standard
Setting up Verlet run ...
  Unit style    : micro
  Current step  : 0
  Time step     : 1e-05
Per MPI rank memory allocation (min/avg/max) = 98.36 | 98.36 | 98.36 Mbytes
   Step           Lx             Ly             Lz           Press           Pxx            Pyy            Pzz           KinEng         PotEng          Temp          c_1[1]         c_1[2]         c_1[3]    
         0   3795           200            200            0              0              0              0              0              0              0              0              0              6            
    100000   3795           200            200            0.0026700521   9.9227875e-42  0              0.0080101564   290936.1       0              5.6193052e+10  0              0              3.3295986    
    200000   3795           200            200            0.00092122288 -2.6606986e-36  0              0.0027636686   68001.455      0              1.3134187e+10  0              0              3.0796953    
    300000   3795           200            200            2.2685402e-05  1.3736088e-42  0              6.8056207e-05  89.692443      0              17323708       0              0              3.0450368    
    400000   3795           200            200            6.8251156e-05  4.494965e-44   0              0.00020475347  776.28539      0              1.4993617e+08  0              0              3.0047989    
    500000   3795           200            200            0.0049869522  -0.0064249111   0              0.021385768    66.843021      0              12910441       0              0              2.9921322    
    600000   3795           200            200            0.0025804963   2.8236091e-05  0              0.0077132527   67.608561      0              13058302       0              0              2.9952397    
    700000   3795           200            200            0.003454772   -0.00024102907  0              0.010605345    10.179444      0              1966115.6      0              0              2.9944521    
    800000   3795           200            200            0.0031592124  -0.00019433659  0              0.0096719739   1.5209884      0              293772.34      0              0              2.9946925    
    900000   3795           200            200            0.0032302945  -0.00020237102  0              0.0098932544   0.24501486     0              47323.563      0              0              2.9946354    
   1000000   3795           200            200            0.0032356396  -0.00020318099  0              0.0099100999   0.028070121    0              5421.6228      0              0              2.9946296    
   1100000   3795           200            200            0.0032210114  -0.00020140678  0              0.0098644409   0.001939964    0              374.69568      0              0              2.9946424    
   1200000   3795           200            200            0.0032300074  -0.00020247788  0              0.0098925001   4.294711e-05   0              8.2950489      0              0              2.9946347    
   1300000   3795           200            200            0.0032260269  -0.00020200969  0              0.0098800904   2.5986016e-06  0              0.50190869     0              0              2.9946381    
   1400000   3795           200            200            0.0032274475  -0.00020217544  0              0.0098845179   3.8143465e-06  0              0.73672457     0              0              2.9946369    
   1500000   3795           200            200            0.0032270443  -0.00020212897  0              0.0098832618   1.157155e-06   0              0.22349949     0              0              2.9946372    
   1600000   3795           200            200            0.0032271194  -0.00020213736  0              0.0098834956   2.012512e-07   0              0.038870802    0              0              2.9946372    
   1700000   3795           200            200            0.0032271241  -0.00020213808  0              0.0098835105   2.3040549e-08  0              0.0044501826   0              0              2.9946372    
   1800000   3795           200            200            0.0032271108  -0.00020213647  0              0.009883469    1.5940385e-09  0              0.00030788165  0              0              2.9946372    
   1900000   3795           200            200            0.003227119   -0.00020213744  0              0.0098834945   3.5237326e-11  0              6.8059375e-06  0              0              2.9946372    
   2000000   3795           200            200            0.0032271154  -0.00020213702  0              0.0098834832   2.1389513e-12  0              4.131292e-07   0              0              2.9946372    
   2100000   3795           200            200            0.0032271167  -0.00020213717  0              0.0098834872   3.134143e-12   0              6.053462e-07   0              0              2.9946372    
   2200000   3795           200            200            0.0032271163  -0.00020213713  0              0.0098834861   9.5120674e-13  0              1.8372148e-07  0              0              2.9946372    
   2300000   3795           200            200            0.0032271164  -0.00020213713  0              0.0098834863   1.6537868e-13  0              3.1942179e-08  0              0              2.9946372    
   2400000   3795           200            200            0.0032271164  -0.00020213713  0              0.0098834863   1.8889376e-14  0              3.6484015e-09  0              0              2.9946372    
   2500000   3795           200            200            0.0032271164  -0.00020213713  0              0.0098834863   1.3279646e-15  0              2.5649062e-10  0              0              2.9946372    
   2600000   3795           200            200            0.0032271164  -0.00020213713  0              0.0098834863   2.7853221e-17  0              5.3797294e-12  0              0              2.9946372    
   2700000   3795           200            200            0.0032271164  -0.00020213713  0              0.0098834863   6.9794591e-19  0              1.3480524e-13  0              0              2.9946372    
   2800000   3795           200            200            0.0032271164  -0.00020213713  0              0.0098834863   1.2483805e-18  0              2.411193e-13   0              0              2.9946372    
   2900000   3795           200            200            0.0032271164  -0.00020213713  0              0.0098834863   8.1154304e-20  0              1.5674604e-14  0              0              2.9946372    
   3000000   3795           200            200            0.0032271164  -0.00020213713  0              0.0098834863   8.1760798e-19  0              1.5791745e-13  0              0              2.9946372    
Loop time of 185.493 on 2 procs for 3000000 steps with 1251 atoms

Performance: 13973571.289 ns/day, 0.000 hours/ns, 16173.115 timesteps/s
99.9% CPU use with 2 MPI tasks x 1 OpenMP threads

MPI task timing breakdown:
Section |  min time  |  avg time  |  max time  |%varavg| %total
---------------------------------------------------------------
Pair    | 40.843     | 40.948     | 41.052     |   1.6 | 22.07
Neigh   | 4.6552     | 4.6558     | 4.6564     |   0.0 |  2.51
Comm    | 16.588     | 16.72      | 16.853     |   3.2 |  9.01
Output  | 0.21339    | 0.21344    | 0.21349    |   0.0 |  0.12
Modify  | 109.75     | 109.91     | 110.07     |   1.5 | 59.25
Other   |            | 13.05      |            |       |  7.03

Nlocal:          625.5 ave         626 max         625 min
Histogram: 1 0 0 0 0 0 0 0 0 1
Nghost:            2.5 ave           3 max           2 min
Histogram: 1 0 0 0 0 0 0 0 0 1
Neighs:          328.5 ave         329 max         328 min
Histogram: 1 0 0 0 0 0 0 0 0 1

Total # of neighbors = 657
Ave neighs/atom = 0.52517986
Neighbor list builds = 164
Dangerous builds = 0
  using 1 OpenMP thread(s) per MPI task
Lattice spacing in x,y,z = 5.07 5.07 5.07
Created orthogonal box = (-1901.25 -100 -100) to (1901.25 100 100)
  2 by 1 by 1 MPI processor grid
Created 750 atoms
  using lattice units in orthogonal box = (-1901.25 -100 -100) to (1901.25 100 100)
  create_atoms CPU = 0.001 seconds
Lattice spacing in x,y,z = 3 3 3
Created 501 atoms
  using lattice units in orthogonal box = (-1901.25 -100 -100) to (1901.25 100 100)
  create_atoms CPU = 0.001 seconds
Setting atom values ...
  750 settings made for diameter
Setting atom values ...
  750 settings made for mass
Setting atom values ...
  501 settings made for diameter
Setting atom values ...
  501 settings made for mass
750 atoms in group substrate
501 atoms in group slider1
  1 rigid bodies with 501 atoms
Generated 0 of 1 mixed pair_coeff terms from geometric mixing rule
Neighbor list info ...
  update every 1 steps, delay 0 steps, check yes
  max neighbors/atom: 2000, page size: 100000
  master list distance cutoff = 3.1
  ghost atom cutoff = 3.1
  binsize = 1.55, bins = 2454 130 130
  1 neighbor lists, perpetual/occasional/extra = 1 0 0
  (1) pair granular, perpetual
      attributes: half, newton on, size, history
      pair build: half/size/bin/newton
      stencil: half/bin/3d
      bin: standard
Setting up Verlet run ...
  Unit style    : micro
  Current step  : 0
  Time step     : 1e-05
Per MPI rank memory allocation (min/avg/max) = 98.5 | 98.5 | 98.5 Mbytes
   Step           Lx             Ly             Lz           Press           Pxx            Pyy            Pzz           KinEng         PotEng          Temp          c_1[1]         c_1[2]         c_1[3]    
         0   3802.5         200            200            0              0              0              0              0              0              0              0              0              6            
    100000   3802.5         200            200            0.0026654265  -1.6596667e-37  0              0.0079962796   291035.27      0              5.6212207e+10  0              0              3.3295249    
    200000   3802.5         200            200            0.00092068857  2.2389376e-42  0              0.0027620657   68147.323      0              1.3162361e+10  0              0              3.0795825    
    300000   3802.5         200            200            2.4680942e-05  2.4895023e-37  0              7.4042825e-05  106.19902      0              20511882       0              0              3.0451977    
    400000   3802.5         200            200            7.4595476e-05 -6.6386715e-37  0              0.00022378643  922.58747      0              1.7819379e+08  0              0              3.0046564    
    500000   3802.5         200            200            0.0065411777   0.0016051546   0              0.018018379    388.37683      0              75013308       0              0              2.9928983    
    600000   3802.5         200            200            0.001368396   -0.0021417528   0              0.0062469409   0.42442743     0              81976.327      0              0              2.9958359    
    700000   3802.5         200            200            0.0035364641  -0.00057213219  0              0.011181524    2.1968252      0              424307.3       0              0              2.9944208    
    800000   3802.5         200            200            0.0028769912  -0.00075881722  0              0.009389791    0.25064999     0              48411.965      0              0              2.9948968    
    900000   3802.5         200            200            0.0031059836  -0.00072778943  0              0.01004574     0.021164842    0              4087.8979      0              0              2.9947173    
   1000000   3802.5         200            200            0.0030194402  -0.00073815673  0              0.0097964774   0.0015061348   0              290.90343      0              0              2.9947848    
   1100000   3802.5         200            200            0.0030519026  -0.000734092    0              0.0098897997   7.8762712e-05  0              15.212678      0              0              2.9947595    
   1200000   3802.5         200            200            0.0030398125  -0.00073557771  0              0.0098550152   1.5739025e-06  0              0.30399248     0              0              2.9947689    
   1300000   3802.5         200            200            0.0030442848  -0.00073502539  0              0.0098678798   7.8057881e-08  0              0.015076543    0              0              2.9947654    
   1400000   3802.5         200            200            0.0030426414  -0.00073522756  0              0.0098631518   1.4000732e-07  0              0.027041809    0              0              2.9947667    
   1500000   3802.5         200            200            0.0030432413  -0.00073515381  0              0.0098648776   5.5891317e-08  0              0.010795167    0              0              2.9947662    
   1600000   3802.5         200            200            0.0030430238  -0.0007351805   0              0.0098642519   1.5045601e-08  0              0.002905993    0              0              2.9947664    
   1700000   3802.5         200            200            0.0030431021  -0.0007351709   0              0.0098644772   3.3560113e-09  0              0.0006481991   0              0              2.9947663    
   1800000   3802.5         200            200            0.0030430741  -0.00073517433  0              0.0098643967   6.6942108e-10  0              0.00012929579  0              0              2.9947664    
   1900000   3802.5         200            200            0.003043084   -0.00073517312  0              0.0098644252   1.2388025e-10  0              2.3926935e-05  0              0              2.9947664    
   2000000   3802.5         200            200            0.0030430805  -0.00073517354  0              0.0098644152   2.1710268e-11  0              4.1932446e-06  0              0              2.9947664    
   2100000   3802.5         200            200            0.0030430818  -0.00073517339  0              0.0098644187   3.6477153e-12  0              7.0454047e-07  0              0              2.9947664    
   2200000   3802.5         200            200            0.0030430813  -0.00073517344  0              0.0098644175   5.9307315e-13  0              1.1454952e-07  0              0              2.9947664    
   2300000   3802.5         200            200            0.0030430815  -0.00073517343  0              0.0098644179   9.3463941e-14  0              1.8052157e-08  0              0              2.9947664    
   2400000   3802.5         200            200            0.0030430814  -0.00073517343  0              0.0098644177   1.4479573e-14  0              2.796667e-09   0              0              2.9947664    
   2500000   3802.5         200            200            0.0030430815  -0.00073517343  0              0.0098644178   2.2176882e-15  0              4.2833691e-10  0              0              2.9947664    
   2600000   3802.5         200            200            0.0030430814  -0.00073517343  0              0.0098644178   3.329374e-16   0              6.4305423e-11  0              0              2.9947664    
   2700000   3802.5         200            200            0.0030430814  -0.00073517343  0              0.0098644178   4.6603048e-17  0              9.0011776e-12  0              0              2.9947664    
   2800000   3802.5         200            200            0.0030430814  -0.00073517343  0              0.0098644178   6.5864863e-18  0              1.2721514e-12  0              0              2.9947664    
   2900000   3802.5         200            200            0.0030430814  -0.00073517343  0              0.0098644178   1.6298113e-18  0              3.1479101e-13  0              0              2.9947664    
   3000000   3802.5         200            200            0.0030430814  -0.00073517343  0              0.0098644178   1.1366945e-18  0              2.1954764e-13  0              0              2.9947664    
Loop time of 184.421 on 2 procs for 3000000 steps with 1251 atoms

Performance: 14054780.991 ns/day, 0.000 hours/ns, 16267.108 timesteps/s
99.9% CPU use with 2 MPI tasks x 1 OpenMP threads

MPI task timing breakdown:
Section |  min time  |  avg time  |  max time  |%varavg| %total
---------------------------------------------------------------
Pair    | 42.115     | 42.183     | 42.252     |   1.1 | 22.87
Neigh   | 4.6517     | 4.6529     | 4.654      |   0.1 |  2.52
Comm    | 16.155     | 16.253     | 16.351     |   2.4 |  8.81
Output  | 0.21247    | 0.21251    | 0.21256    |   0.0 |  0.12
Modify  | 108.03     | 108.11     | 108.18     |   0.7 | 58.62
Other   |            | 13.01      |            |       |  7.05

Nlocal:          625.5 ave         626 max         625 min
Histogram: 1 0 0 0 0 0 0 0 0 1
Nghost:            2.5 ave           3 max           2 min
Histogram: 1 0 0 0 0 0 0 0 0 1
Neighs:          328.5 ave         329 max         328 min
Histogram: 1 0 0 0 0 0 0 0 0 1

Total # of neighbors = 657
Ave neighs/atom = 0.52517986
Neighbor list builds = 164
Dangerous builds = 0
  using 1 OpenMP thread(s) per MPI task
Lattice spacing in x,y,z = 5.08 5.08 5.08
Created orthogonal box = (-1905 -100 -100) to (1905 100 100)
  2 by 1 by 1 MPI processor grid
Created 750 atoms
  using lattice units in orthogonal box = (-1905 -100 -100) to (1905 100 100)
  create_atoms CPU = 0.001 seconds
Lattice spacing in x,y,z = 3 3 3
Created 501 atoms
  using lattice units in orthogonal box = (-1905 -100 -100) to (1905 100 100)
  create_atoms CPU = 0.001 seconds
Setting atom values ...
  750 settings made for diameter
Setting atom values ...
  750 settings made for mass
Setting atom values ...
  501 settings made for diameter
Setting atom values ...
  501 settings made for mass
750 atoms in group substrate
501 atoms in group slider1
  1 rigid bodies with 501 atoms
Generated 0 of 1 mixed pair_coeff terms from geometric mixing rule
Neighbor list info ...
  update every 1 steps, delay 0 steps, check yes
  max neighbors/atom: 2000, page size: 100000
  master list distance cutoff = 3.1
  ghost atom cutoff = 3.1
  binsize = 1.55, bins = 2459 130 130
  1 neighbor lists, perpetual/occasional/extra = 1 0 0
  (1) pair granular, perpetual
      attributes: half, newton on, size, history
      pair build: half/size/bin/newton
      stencil: half/bin/3d
      bin: standard
Setting up Verlet run ...
  Unit style    : micro
  Current step  : 0
  Time step     : 1e-05
Per MPI rank memory allocation (min/avg/max) = 98.71 | 98.71 | 98.71 Mbytes
   Step           Lx             Ly             Lz           Press           Pxx            Pyy            Pzz           KinEng         PotEng          Temp          c_1[1]         c_1[2]         c_1[3]    
         0   3810           200            200            0              0              0              0              0              0              0              0              0              6            
    100000   3810           200            200            0.0026595424   2.6429801e-42  0              0.0079786273   290936.56      0              5.6193141e+10  0              0              3.3295967    
    200000   3810           200            200            0.00091759507  5.0603475e-43  0              0.0027527852   68001.351      0              1.3134168e+10  0              0              3.0796952    
    300000   3810           200            200            2.2590014e-05  2.1148105e-43  0              6.7770041e-05  89.645181      0              17314580       0              0              3.0450366    
    400000   3810           200            200            6.8094215e-05 -9.9384006e-37  0              0.00020428264  778.71827      0              1.5040607e+08  0              0              3.0047938    
    500000   3810           200            200            0.0074573533   0.001097199    0              0.021274861    71.74535       0              13857305       0              0              2.9921391    
    600000   3810           200            200            0.0019190287  -0.0019081559   0              0.0076652419   68.213536      0              13175150       0              0              2.9952387    
    700000   3810           200            200            0.0031982638  -0.0015711543   0              0.011165946    2.3306592      0              450156.76      0              0              2.9943036    
    800000   3810           200            200            0.002567287   -0.0016775796   0              0.0093794407   0.33328398     0              64372.363      0              0              2.9947691    
    900000   3810           200            200            0.0027386271  -0.0016701493   0              0.0098860307   0.23501283     0              45391.714      0              0              2.9946311    
   1000000   3810           200            200            0.0027395379  -0.00167017     0              0.0098887837   0.020534688    0              3966.1863      0              0              2.9946315    
   1100000   3810           200            200            0.0027159249  -0.0016710016   0              0.0098187763   2.7545119e-08  0              0.0053202209   0              0              2.9946499    
   1200000   3810           200            200            0.0027265938  -0.0016706128   0              0.0098503941   0.00037732665  0              72.879014      0              0              2.9946414    
   1300000   3810           200            200            0.0027249214  -0.0016706753   0              0.0098454396   7.797944e-05   0              15.061392      0              0              2.9946428    
   1400000   3810           200            200            0.0027242421  -0.0016706988   0              0.0098434251   1.9619769e-06  0              0.37894738     0              0              2.9946433    
   1500000   3810           200            200            0.0027247777  -0.0016706796   0              0.0098450127   3.0752871e-07  0              0.059397844    0              0              2.9946429    
   1600000   3810           200            200            0.0027246254  -0.0016706852   0              0.0098445613   1.9535199e-07  0              0.037731394    0              0              2.994643     
   1700000   3810           200            200            0.0027246224  -0.0016706852   0              0.0098445526   1.6010004e-08  0              0.0030922632   0              0              2.994643     
   1800000   3810           200            200            0.0027246443  -0.0016706845   0              0.0098446175   4.1655029e-12  0              8.0454891e-07  0              0              2.994643     
   1900000   3810           200            200            0.0027246348  -0.0016706848   0              0.0098445891   3.2486145e-10  0              6.2745588e-05  0              0              2.994643     
   2000000   3810           200            200            0.0027246362  -0.0016706848   0              0.0098445933   6.3031496e-11  0              1.2174261e-05  0              0              2.994643     
   2100000   3810           200            200            0.0027246368  -0.0016706847   0              0.0098445952   1.4007534e-12  0              2.7054947e-07  0              0              2.994643     
   2200000   3810           200            200            0.0027246363  -0.0016706848   0              0.0098445938   2.8449161e-13  0              5.4948327e-08  0              0              2.994643     
[...]
   2900000   4477.5         200            200            0.00251134    -0.00084329963  0              0.0083773196   6.6763453e-19  0              1.2895073e-13  0              0              2.9947664    
   3000000   4477.5         200            200            0.00251134    -0.00084329963  0              0.0083773196   2.4003874e-19  0              4.6362447e-14  0              0              2.9947664    
Loop time of 183.72 on 2 procs for 3000000 steps with 1251 atoms

Performance: 14108429.405 ns/day, 0.000 hours/ns, 16329.201 timesteps/s
99.9% CPU use with 2 MPI tasks x 1 OpenMP threads

MPI task timing breakdown:
Section |  min time  |  avg time  |  max time  |%varavg| %total
---------------------------------------------------------------
Pair    | 38.451     | 38.459     | 38.466     |   0.1 | 20.93
Neigh   | 5.4705     | 5.4705     | 5.4705     |   0.0 |  2.98
Comm    | 17.806     | 17.85      | 17.893     |   1.0 |  9.72
Output  | 0.22381    | 0.22383    | 0.22385    |   0.0 |  0.12
Modify  | 108.37     | 108.38     | 108.38     |   0.1 | 58.99
Other   |            | 13.34      |            |       |  7.26

Nlocal:          625.5 ave         626 max         625 min
Histogram: 1 0 0 0 0 0 0 0 0 1
Nghost:            2.5 ave           3 max           2 min
Histogram: 1 0 0 0 0 0 0 0 0 1
Neighs:          328.5 ave         329 max         328 min
Histogram: 1 0 0 0 0 0 0 0 0 1

Total # of neighbors = 657
Ave neighs/atom = 0.52517986
Neighbor list builds = 164
Dangerous builds = 0
  using 1 OpenMP thread(s) per MPI task
Lattice spacing in x,y,z = 5.98 5.98 5.98
Created orthogonal box = (-2242.5 -100 -100) to (2242.5 100 100)
  2 by 1 by 1 MPI processor grid
Created 750 atoms
  using lattice units in orthogonal box = (-2242.5 -100 -100) to (2242.5 100 100)
  create_atoms CPU = 0.000 seconds
Lattice spacing in x,y,z = 3 3 3
Created 501 atoms
  using lattice units in orthogonal box = (-2242.5 -100 -100) to (2242.5 100 100)
  create_atoms CPU = 0.000 seconds
Setting atom values ...
  750 settings made for diameter
Setting atom values ...
  750 settings made for mass
Setting atom values ...
  501 settings made for diameter
Setting atom values ...
  501 settings made for mass
750 atoms in group substrate
501 atoms in group slider1
  1 rigid bodies with 501 atoms
Generated 0 of 1 mixed pair_coeff terms from geometric mixing rule
Neighbor list info ...
  update every 1 steps, delay 0 steps, check yes
  max neighbors/atom: 2000, page size: 100000
  master list distance cutoff = 3.1
  ghost atom cutoff = 3.1
  binsize = 1.55, bins = 2894 130 130
  1 neighbor lists, perpetual/occasional/extra = 1 0 0
  (1) pair granular, perpetual
      attributes: half, newton on, size, history
      pair build: half/size/bin/newton
      stencil: half/bin/3d
      bin: standard
Setting up Verlet run ...
  Unit style    : micro
  Current step  : 0
  Time step     : 1e-05
Per MPI rank memory allocation (min/avg/max) = 113.8 | 113.8 | 113.8 Mbytes
   Step           Lx             Ly             Lz           Press           Pxx            Pyy            Pzz           KinEng         PotEng          Temp          c_1[1]         c_1[2]         c_1[3]    
         0   4485           200            200            0              0              0              0              0              0              0              0              0              6            
    100000   4485           200            200            0.0022330861  -4.5026216e-36  0              0.0066992583   285925.33      0              5.5225243e+10  0              0              3.337073     
    200000   4485           200            200            0.00071663649  5.6284395e-37  0              0.0021499095   59581.661      0              1.1507941e+10  0              0              3.0929577    
    300000   4485           200            200           -7.1631971e-05 -4.5027358e-36  0             -0.00021489591  1498.5788      0              2.8944403e+08  0              0              3.0376855    
    400000   4485           200            200            0.0041551225  -0.0092864091   0              0.021751777    2712.237       0              5.2385687e+08  0              0              2.9879671    
    500000   4485           200            200            0.0031936138  -0.002675709    0              0.012256551    470.79818      0              90932636       0              0              2.9910825    
    600000   4485           200            200            0.0015724357  -0.0014249204   0              0.0061422276   12.957695      0              2502722.9      0              0              2.9936672    
    700000   4485           200            200            0.0019456874  -0.0018011947   0              0.0076382571   4.5841492      0              885408.63      0              0              2.9929172    
    800000   4485           200            200            0.0021647965  -0.0018805869   0              0.0083749765   1.5426113      0              297948.73      0              0              2.9925874    
    900000   4485           200            200            0.0021938836  -0.0018798633   0              0.008461514    0.063268221    0              12219.984      0              0              2.9925518    
   1000000   4485           200            200            0.0021748873  -0.0018763488   0              0.0084010107   0.0030761502   0              594.14514      0              0              2.9925792    
   1100000   4485           200            200            0.002162862   -0.0018741413   0              0.0083627272   0.0034466173   0              665.69925      0              0              2.9925962    
   1200000   4485           200            200            0.0021600533  -0.0018736352   0              0.0083537949   0.00035203021  0              67.993115      0              0              2.9926       
   1300000   4485           200            200            0.0021604195  -0.00187371     0              0.0083549684   2.0950189e-07  0              0.040464386    0              0              2.9925994    
   1400000   4485           200            200            0.002160963   -0.001873812    0              0.0083567009   5.4356636e-06  0              1.049875       0              0              2.9925987    
   1500000   4485           200            200            0.0021611566  -0.0018738475   0              0.0083573173   1.2202561e-06  0              0.23568719     0              0              2.9925984    
   1600000   4485           200            200            0.0021611697  -0.0018738496   0              0.0083573587   3.2017277e-08  0              0.0061839989   0              0              2.9925984    
   1700000   4485           200            200            0.0021611494  -0.0018738457   0              0.008357294    4.7998817e-09  0              0.00092707643  0              0              2.9925984    
   1800000   4485           200            200            0.0021611386  -0.0018738437   0              0.0083572594   3.0439896e-09  0              0.00058793346  0              0              2.9925984    
   1900000   4485           200            200            0.0021611365  -0.0018738433   0              0.0083572527   2.3445729e-10  0              4.5284414e-05  0              0              2.9925984    
   2000000   4485           200            200            0.002161137   -0.0018738434   0              0.0083572544   3.7110124e-13  0              7.1676602e-08  0              0              2.9925984    
   2100000   4485           200            200            0.0021611375  -0.0018738435   0              0.008357256    5.4836086e-12  0              1.0591353e-06  0              0              2.9925984    
   2200000   4485           200            200            0.0021611377  -0.0018738435   0              0.0083572565   9.315706e-13   0              1.7992884e-07  0              0              2.9925984    
   2300000   4485           200            200            0.0021611377  -0.0018738435   0              0.0083572566   1.3262627e-14  0              2.5616192e-09  0              0              2.9925984    
   2400000   4485           200            200            0.0021611376  -0.0018738435   0              0.0083572565   6.2440504e-15  0              1.2060114e-09  0              0              2.9925984    
   2500000   4485           200            200            0.0021611376  -0.0018738435   0              0.0083572565   2.5942354e-15  0              5.0106537e-10  0              0              2.9925984    
   2600000   4485           200            200            0.0021611376  -0.0018738435   0              0.0083572564   1.4635737e-16  0              2.8268293e-11  0              0              2.9925984    
   2700000   4485           200            200            0.0021611376  -0.0018738435   0              0.0083572565   4.7263171e-20  0              9.1286776e-15  0              0              2.9925984    
   2800000   4485           200            200            0.0021611376  -0.0018738435   0              0.0083572565   2.9786877e-18  0              5.7532068e-13  0              0              2.9925984    
   2900000   4485           200            200            0.0021611376  -0.0018738435   0              0.0083572565   3.2888325e-18  0              6.352238e-13   0              0              2.9925984    
   3000000   4485           200            200            0.0021611376  -0.0018738435   0              0.0083572565   3.2048843e-19  0              6.1900956e-14  0              0              2.9925984    
Loop time of 179.712 on 2 procs for 3000000 steps with 1251 atoms

Performance: 14423094.331 ns/day, 0.000 hours/ns, 16693.396 timesteps/s
99.9% CPU use with 2 MPI tasks x 1 OpenMP threads

MPI task timing breakdown:
Section |  min time  |  avg time  |  max time  |%varavg| %total
---------------------------------------------------------------
Pair    | 35.647     | 35.733     | 35.819     |   1.4 | 19.88
Neigh   | 5.45       | 5.45       | 5.4501     |   0.0 |  3.03
Comm    | 17.749     | 17.868     | 17.987     |   2.8 |  9.94
Output  | 0.27682    | 0.27684    | 0.27686    |   0.0 |  0.15
Modify  | 107.27     | 107.46     | 107.64     |   1.8 | 59.79
Other   |            | 12.93      |            |       |  7.19

Nlocal:          625.5 ave         626 max         625 min
Histogram: 1 0 0 0 0 0 0 0 0 1
Nghost:            2.5 ave           3 max           2 min
Histogram: 1 0 0 0 0 0 0 0 0 1
Neighs:          304.5 ave         305 max         304 min
Histogram: 1 0 0 0 0 0 0 0 0 1

Total # of neighbors = 609
Ave neighs/atom = 0.48681055
Neighbor list builds = 164
Dangerous builds = 0
  using 1 OpenMP thread(s) per MPI task
Lattice spacing in x,y,z = 5.99 5.99 5.99
Created orthogonal box = (-2246.25 -100 -100) to (2246.25 100 100)
  2 by 1 by 1 MPI processor grid
Created 750 atoms
  using lattice units in orthogonal box = (-2246.25 -100 -100) to (2246.25 100 100)
  create_atoms CPU = 0.000 seconds
Lattice spacing in x,y,z = 3 3 3
Created 501 atoms
  using lattice units in orthogonal box = (-2246.25 -100 -100) to (2246.25 100 100)
  create_atoms CPU = 0.000 seconds
Setting atom values ...
  750 settings made for diameter
Setting atom values ...
  750 settings made for mass
Setting atom values ...
  501 settings made for diameter
Setting atom values ...
  501 settings made for mass
750 atoms in group substrate
501 atoms in group slider1
  1 rigid bodies with 501 atoms
Generated 0 of 1 mixed pair_coeff terms from geometric mixing rule
Neighbor list info ...
  update every 1 steps, delay 0 steps, check yes
  max neighbors/atom: 2000, page size: 100000
  master list distance cutoff = 3.1
  ghost atom cutoff = 3.1
  binsize = 1.55, bins = 2899 130 130
  1 neighbor lists, perpetual/occasional/extra = 1 0 0
  (1) pair granular, perpetual
      attributes: half, newton on, size, history
      pair build: half/size/bin/newton
      stencil: half/bin/3d
      bin: standard
Setting up Verlet run ...
  Unit style    : micro
  Current step  : 0
  Time step     : 1e-05
Per MPI rank memory allocation (min/avg/max) = 114 | 114 | 114 Mbytes
   Step           Lx             Ly             Lz           Press           Pxx            Pyy            Pzz           KinEng         PotEng          Temp          c_1[1]         c_1[2]         c_1[3]    
         0   4492.5         200            200            0              0              0              0              0              0              0              0              0              6            
    100000   4492.5         200            200            0.0022560458  -1.7980516e-35  0              0.0067681375   291035.36      0              5.6212225e+10  0              0              3.3295244    
    200000   4492.5         200            200            0.00077928358  5.6190589e-37  0              0.0023378507   68147.737      0              1.3162441e+10  0              0              3.0795813    
    300000   4492.5         200            200            2.0897243e-05 -2.2476141e-36  0              6.2691728e-05  106.26901      0              20525402       0              0              3.0451974    
    400000   4492.5         200            200            6.3145084e-05 -4.4952293e-36  0              0.00018943525  922.77265      0              1.7822956e+08  0              0              3.004656     
    500000   4492.5         200            200            0.002918262   -0.0064742799   0              0.015229066    390.62834      0              75448178       0              0              2.992903     
    600000   4492.5         200            200            0.0011918854  -0.0017130059   0              0.0052886621   0.14506529     0              28018.735      0              0              2.9958367    
    700000   4492.5         200            200            0.002179808   -0.0026993302   0              0.0092387541   6.361637       0              1228722.7      0              0              2.9944901    
    800000   4492.5         200            200            0.0019370536  -0.0025396075   0              0.0083507681   1.841809       0              355737.46      0              0              2.9947689    
    900000   4492.5         200            200            0.0018966673  -0.0025357649   0              0.0082257668   0.10619148     0              20510.426      0              0              2.9948052    
   1000000   4492.5         200            200            0.001952826   -0.0025499044   0              0.0084083826   0.00071346696  0              137.80307      0              0              2.9947483    
   1100000   4492.5         200            200            0.0019311052  -0.0025444829   0              0.0083377986   0.0032410032   0              625.98579      0              0              2.9947706    
   1200000   4492.5         200            200            0.0019338955  -0.0025452252   0              0.0083469116   0.00055990851  0              108.14391      0              0              2.9947676    
   1300000   4492.5         200            200            0.0019354889  -0.0025456107   0              0.0083520773   1.3239813e-05  0              2.5572127      0              0              2.994766     
   1400000   4492.5         200            200            0.001934349   -0.0025453263   0              0.0083483734   2.1158277e-06  0              0.40866299     0              0              2.9947672    
   1500000   4492.5         200            200            0.0019346796  -0.0025454105   0              0.0083494492   1.4115316e-06  0              0.27263124     0              0              2.9947668    
   1600000   4492.5         200            200            0.0019346753  -0.0025454086   0              0.0083494344   1.3867226e-07  0              0.026783949    0              0              2.9947668    
   1700000   4492.5         200            200            0.0019346327  -0.0025453981   0              0.0083492962   3.171403e-10   0              6.125428e-05   0              0              2.9947669    
   1800000   4492.5         200            200            0.0019346537  -0.0025454034   0              0.0083493644   1.7456271e-09  0              0.00033716034  0              0              2.9947668    
   1900000   4492.5         200            200            0.0019346494  -0.0025454023   0              0.0083493504   5.023143e-10   0              9.701984e-05   0              0              2.9947669    
   2000000   4492.5         200            200            0.0019346486  -0.0025454021   0              0.0083493479   2.5881467e-11  0              4.9988936e-06  0              0              2.9947669    
   2100000   4492.5         200            200            0.0019346495  -0.0025454023   0              0.008349351    3.5000075e-13  0              6.7601134e-08  0              0              2.9947669    
   2200000   4492.5         200            200            0.0019346492  -0.0025454022   0              0.0083493498   9.4189409e-13  0              1.8192278e-07  0              0              2.9947669    
   2300000   4492.5         200            200            0.0019346492  -0.0025454023   0              0.0083493499   1.4785375e-13  0              2.8557315e-08  0              0              2.9947669    
   2400000   4492.5         200            200            0.0019346493  -0.0025454023   0              0.00834935     2.8158784e-15  0              5.4387476e-10  0              0              2.9947669    
   2500000   4492.5         200            200            0.0019346492  -0.0025454023   0              0.00834935     7.4025018e-16  0              1.4297613e-10  0              0              2.9947669    
   2600000   4492.5         200            200            0.0019346492  -0.0025454023   0              0.00834935     3.8513384e-16  0              7.4386939e-11  0              0              2.9947669    
   2700000   4492.5         200            200            0.0019346492  -0.0025454023   0              0.00834935     3.7858268e-17  0              7.312161e-12   0              0              2.9947669    
   2800000   4492.5         200            200            0.0019346492  -0.0025454023   0              0.00834935     6.9874169e-20  0              1.3495894e-14  0              0              2.9947669    
   2900000   4492.5         200            200            0.0019346492  -0.0025454023   0              0.00834935     1.5689963e-18  0              3.0304486e-13  0              0              2.9947669    
   3000000   4492.5         200            200            0.0019346492  -0.0025454023   0              0.00834935     3.2033746e-18  0              6.1871798e-13  0              0              2.9947669    
Loop time of 181.32 on 2 procs for 3000000 steps with 1251 atoms

Performance: 14295150.013 ns/day, 0.000 hours/ns, 16545.313 timesteps/s
99.9% CPU use with 2 MPI tasks x 1 OpenMP threads

MPI task timing breakdown:
Section |  min time  |  avg time  |  max time  |%varavg| %total
---------------------------------------------------------------
Pair    | 37.571     | 37.769     | 37.966     |   3.2 | 20.83
Neigh   | 5.4574     | 5.4578     | 5.4581     |   0.0 |  3.01
Comm    | 17.406     | 17.627     | 17.848     |   5.3 |  9.72
Output  | 0.21394    | 0.21397    | 0.214      |   0.0 |  0.12
Modify  | 107.31     | 107.36     | 107.42     |   0.5 | 59.21
Other   |            | 12.89      |            |       |  7.11

Nlocal:          625.5 ave         626 max         625 min
Histogram: 1 0 0 0 0 0 0 0 0 1
Nghost:            2.5 ave           3 max           2 min
Histogram: 1 0 0 0 0 0 0 0 0 1
Neighs:          328.5 ave         329 max         328 min
Histogram: 1 0 0 0 0 0 0 0 0 1

Total # of neighbors = 657
Ave neighs/atom = 0.52517986
Neighbor list builds = 164
Dangerous builds = 0
  using 1 OpenMP thread(s) per MPI task
Total wall time: 5:06:53
