LAMMPS (23 Jun 2022 - Update 1)
  using 1 OpenMP thread(s) per MPI task
Lattice spacing in x,y,z = 3 3 3
Created orthogonal box = (-3000 -50 -50) to (3000 50 50)
  2 by 1 by 1 MPI processor grid
Created 2000 atoms
  using lattice units in orthogonal box = (-3000 -50 -50) to (3000 50 50)
  create_atoms CPU = 0.001 seconds
Lattice spacing in x,y,z = 3 3 3
Created 2000 atoms
  using lattice units in orthogonal box = (-3000 -50 -50) to (3000 50 50)
  create_atoms CPU = 0.001 seconds
Setting atom values ...
  2000 settings made for diameter
Setting atom values ...
  2000 settings made for mass
Setting atom values ...
  2000 settings made for diameter
Setting atom values ...
  2000 settings made for mass
2000 atoms in group substrate
2000 atoms in group slider1
  1 rigid bodies with 2000 atoms
Generated 0 of 1 mixed pair_coeff terms from geometric mixing rule
Neighbor list info ...
  update every 1 steps, delay 0 steps, check yes
  max neighbors/atom: 2000, page size: 100000
  master list distance cutoff = 3.1
  ghost atom cutoff = 3.1
  binsize = 1.55, bins = 3871 65 65
  1 neighbor lists, perpetual/occasional/extra = 1 0 0
  (1) pair granular, perpetual
      attributes: half, newton on, size, history
      pair build: half/size/bin/newton
      stencil: half/bin/3d
      bin: standard
Setting up Verlet run ...
  Unit style    : micro
  Current step  : 0
  Time step     : 1e-05
Per MPI rank memory allocation (min/avg/max) = 49.16 | 49.16 | 49.16 Mbytes
   Step           Lx             Ly             Lz           Press           Pxx            Pyy            Pzz           KinEng         PotEng          Temp          c_1[1]         c_1[2]         c_1[3]    
         0   6000           100            100            0              0              0              0              0              0              0             -1.5            0              6            
    100000   6000           100            100            0.027670994    1.9348287e-21  0              0.083012981    1206852.5      0              5.8274589e+13 -1.5            0              3.3125953    
    200000   6000           100            100            0.011017331   -4.8181296e-22  0              0.033051992    353103.29      0              1.7050094e+13 -1.5            0              3.0464093    
    300000   6000           100            100            0.0032595211   5.4447681e-23  0              0.0097785632   51312.046      0              2.4776751e+12 -1.5            0              3.0301406    
    400000   6000           100            100            0.34149139    -1.7569565e-16  0              1.0244742      5782.8815      0              2.7923465e+11 -1.5            0              2.9968673    
    500000   6000           100            100           -0.0002096079  -8.0260715e-22  0             -0.00062882371  326.39325      0              1.5760362e+10 -1.5            0              3.0021839    
    600000   6000           100            100            0.042271378   -2.1889314e-17  0              0.12681413     885.66172      0              4.2765435e+10 -1.5            0              2.9992165    
    700000   6000           100            100            0.040084093   -2.0587116e-17  0              0.12025228     103.83737      0              5.0139349e+09 -1.5            0              2.9992464    
    800000   6000           100            100            0.039367181   -2.013607e-17   0              0.11810154     1.7843055      0              86157728      -1.5            0              2.9992571    
    900000   6000           100            100            0.033973036   -1.7376e-17     0              0.10191911     1.8808375      0              90818913      -1.5            0              2.9993267    
   1000000   6000           100            100            0.032879601   -1.6823359e-17  0              0.098638802    0.18371858     0              8871112.8     -1.5            0              2.9993411    
   1100000   6000           100            100            0.033035702   -1.6906073e-17  0              0.099107107    0.00049164532  0              23739.793     -1.5            0              2.9993389    
   1200000   6000           100            100            0.033248333   -1.7015334e-17  0              0.099745       0.0020396638   0              98488.064     -1.5            0              2.9993361    
   1300000   6000           100            100            0.03332737    -1.7055633e-17  0              0.09998211     0.0005722343   0              27631.146     -1.5            0              2.999335     
   1400000   6000           100            100            0.033336656   -1.7060254e-17  0              0.10000997     2.810854e-05   0              1357.2608     -1.5            0              2.9993349    
   1500000   6000           100            100            0.033330752   -1.705719e-17   0              0.099992255    3.9087368e-07  0              18.873891     -1.5            0              2.999335     
   1600000   6000           100            100            0.033326799   -1.7055164e-17  0              0.099980396    9.5550153e-07  0              46.137749     -1.5            0              2.999335     
   1700000   6000           100            100            0.033325721   -1.7054617e-17  0              0.099977162    1.4035184e-07  0              6.7770881     -1.5            0              2.999335     
   1800000   6000           100            100            0.03332573    -1.7054624e-17  0              0.09997719     2.3124212e-09  0              0.11165854    -1.5            0              2.999335     
   1900000   6000           100            100            0.033325874   -1.7054698e-17  0              0.099977621    6.800314e-10   0              0.032836283   -1.5            0              2.999335     
   2000000   6000           100            100            0.03332594    -1.7054732e-17  0              0.099977819    3.3767538e-10  0              0.016305136   -1.5            0              2.999335     
   2100000   6000           100            100            0.033325952   -1.7054738e-17  0              0.099977855    2.6917403e-11  0              0.0012997451  -1.5            0              2.999335     
   2200000   6000           100            100            0.033325949   -1.7054737e-17  0              0.099977846    1.4811371e-15  0              7.1518809e-08 -1.5            0              2.999335     
   2300000   6000           100            100            0.033325946   -1.7054735e-17  0              0.099977837    4.2670971e-13  0              2.0604285e-05 -1.5            0              2.999335     
   2400000   6000           100            100            0.033325945   -1.7054734e-17  0              0.099977834    9.5518274e-14  0              4.6122356e-06 -1.5            0              2.999335     
   2500000   6000           100            100            0.033325945   -1.7054734e-17  0              0.099977834    3.4564105e-15  0              1.6689769e-07 -1.5            0              2.999335     
   2600000   6000           100            100            0.033325945   -1.7054734e-17  0              0.099977834    2.4056441e-16  0              1.1615994e-08 -1.5            0              2.999335     
   2700000   6000           100            100            0.033325945   -1.7054735e-17  0              0.099977835    1.5271816e-16  0              7.3742136e-09 -1.5            0              2.999335     
   2800000   6000           100            100            0.033325945   -1.7054735e-17  0              0.099977835    7.3972839e-19  0              3.5718837e-11 -1.5            0              2.999335     
   2900000   6000           100            100            0.033325945   -1.7054735e-17  0              0.099977835    1.3430695e-17  0              6.485202e-10  -1.5            0              2.999335     
   3000000   6000           100            100            0.033325945   -1.7054734e-17  0              0.099977835    6.0369234e-19  0              2.9150143e-11 -1.5            0              2.999335     
Loop time of 946.762 on 2 procs for 3000000 steps with 4000 atoms

Performance: 2737751.029 ns/day, 0.000 hours/ns, 3168.693 timesteps/s
100.0% CPU use with 2 MPI tasks x 1 OpenMP threads

MPI task timing breakdown:
Section |  min time  |  avg time  |  max time  |%varavg| %total
---------------------------------------------------------------
Pair    | 450.31     | 460.4      | 470.49     |  47.0 | 48.63
Neigh   | 1.9971     | 1.9974     | 1.9976     |   0.0 |  0.21
Comm    | 18.108     | 28.154     | 38.199     | 189.3 |  2.97
Output  | 0.50118    | 0.50125    | 0.50133    |   0.0 |  0.05
Modify  | 413.32     | 414.33     | 415.33     |   4.9 | 43.76
Other   |            | 41.38      |            |       |  4.37

Nlocal:           2000 ave        2000 max        2000 min
Histogram: 2 0 0 0 0 0 0 0 0 0
Nghost:              6 ave           6 max           6 min
Histogram: 2 0 0 0 0 0 0 0 0 0
Neighs:           3000 ave        3000 max        3000 min
Histogram: 2 0 0 0 0 0 0 0 0 0

Total # of neighbors = 6000
Ave neighs/atom = 1.5
Neighbor list builds = 174
Dangerous builds = 0
  using 1 OpenMP thread(s) per MPI task
Lattice spacing in x,y,z = 3 3 3
Created orthogonal box = (-3000 -50 -50) to (3000 50 50)
  2 by 1 by 1 MPI processor grid
Created 2000 atoms
  using lattice units in orthogonal box = (-3000 -50 -50) to (3000 50 50)
  create_atoms CPU = 0.001 seconds
Lattice spacing in x,y,z = 3 3 3
Created 2000 atoms
  using lattice units in orthogonal box = (-3000 -50 -50) to (3000 50 50)
  create_atoms CPU = 0.001 seconds
Setting atom values ...
  2000 settings made for diameter
Setting atom values ...
  2000 settings made for mass
Setting atom values ...
  2000 settings made for diameter
Setting atom values ...
  2000 settings made for mass
2000 atoms in group substrate
2000 atoms in group slider1
  1 rigid bodies with 2000 atoms
Generated 0 of 1 mixed pair_coeff terms from geometric mixing rule
Neighbor list info ...
  update every 1 steps, delay 0 steps, check yes
  max neighbors/atom: 2000, page size: 100000
  master list distance cutoff = 3.1
  ghost atom cutoff = 3.1
  binsize = 1.55, bins = 3871 65 65
  1 neighbor lists, perpetual/occasional/extra = 1 0 0
  (1) pair granular, perpetual
      attributes: half, newton on, size, history
      pair build: half/size/bin/newton
      stencil: half/bin/3d
      bin: standard
Setting up Verlet run ...
  Unit style    : micro
  Current step  : 0
  Time step     : 1e-05
Per MPI rank memory allocation (min/avg/max) = 49.16 | 49.16 | 49.16 Mbytes
   Step           Lx             Ly             Lz           Press           Pxx            Pyy            Pzz           KinEng         PotEng          Temp          c_1[1]         c_1[2]         c_1[3]    
         0   6000           100            100            0              0              0              0              0              0              0             -1.5            0              6            
    100000   6000           100            100            0.027671469    2.1665354e-21  0              0.083014406    1206883.5      0              5.8276087e+13 -1.5            0              3.312583     
    200000   6000           100            100            0.011018339    5.9593622e-22  0              0.033055016    353153.3       0              1.7052509e+13 -1.5            0              3.0463877    
    300000   6000           100            100            0.0032611409   4.5985058e-22  0              0.0097834227   51355.878      0              2.4797916e+12 -1.5            0              3.0301226    
    400000   6000           100            100            0.3444927     -1.7279699e-16  0              1.0334781      5472.2678      0              2.6423623e+11 -1.5            0              2.9968532    
    500000   6000           100            100           -0.00020319951 -3.5524888e-22  0             -0.00060959853  306.3444       0              1.4792275e+10 -1.5            0              3.0021959    
    600000   6000           100            100            0.038229585   -1.9420595e-17  0              0.11468875     907.71164      0              4.3830146e+10 -1.5            0              2.9992679    
    700000   6000           100            100            0.035756325   -1.8020704e-17  0              0.10726897     119.2824       0              5.7597204e+09 -1.5            0              2.9993024    
    800000   6000           100            100            0.03971176    -1.9928943e-17  0              0.11913528     0.15760128     0              7610002       -1.5            0              2.9992536    
    900000   6000           100            100            0.035133701   -1.7624233e-17  0              0.1054011      0.76465434     0              36922421      -1.5            0              2.9993123    
   1000000   6000           100            100            0.033514433   -1.6814509e-17  0              0.1005433      0.25097466     0              12118668      -1.5            0              2.9993336    
   1100000   6000           100            100            0.033200704   -1.6659486e-17  0              0.099602113    0.027894401    0              1346920.8     -1.5            0              2.9993377    
   1200000   6000           100            100            0.033231223   -1.6675774e-17  0              0.099693668    0.00083997813  0              40559.538     -1.5            0              2.9993372    
   1300000   6000           100            100            0.033288948   -1.670496e-17   0              0.099866843    2.8564592e-05  0              1379.2819     -1.5            0              2.9993365    
   1400000   6000           100            100            0.033317437   -1.6719263e-17  0              0.09995231     4.5606161e-05  0              2202.1583     -1.5            0              2.9993361    
   1500000   6000           100            100            0.033325962   -1.6723514e-17  0              0.099977887    9.6114025e-06  0              464.10023     -1.5            0              2.999336     
   1600000   6000           100            100            0.033327062   -1.672405e-17   0              0.099981186    7.5119897e-07  0              36.27271      -1.5            0              2.999336     
   1700000   6000           100            100            0.033326576   -1.67238e-17    0              0.099979727    7.2955139e-09  0              0.35227426    -1.5            0              2.999336     
   1800000   6000           100            100            0.03332616    -1.6723591e-17  0              0.099978481    4.1237343e-09  0              0.19912037    -1.5            0              2.999336     
   1900000   6000           100            100            0.03332599    -1.6723506e-17  0              0.099977971    2.2195132e-09  0              0.10717235    -1.5            0              2.999336     
   2000000   6000           100            100            0.033325948   -1.6723485e-17  0              0.099977845    3.2915077e-10  0              0.015893513   -1.5            0              2.999336     
   2100000   6000           100            100            0.033325947   -1.6723484e-17  0              0.099977841    1.6713922e-11  0              0.00080705549 -1.5            0              2.999336     
   2200000   6000           100            100            0.033325951   -1.6723487e-17  0              0.099977854    2.6675714e-15  0              1.2880747e-07 -1.5            0              2.999336     
   2300000   6000           100            100            0.033325954   -1.6723488e-17  0              0.099977863    3.1242446e-13  0              1.5085859e-05 -1.5            0              2.999336     
   2400000   6000           100            100            0.033325955   -1.6723488e-17  0              0.099977866    9.4358794e-14  0              4.5562485e-06 -1.5            0              2.999336     
   2500000   6000           100            100            0.033325955   -1.6723489e-17  0              0.099977866    1.004598e-14   0              4.8508442e-07 -1.5            0              2.999336     
   2600000   6000           100            100            0.033325955   -1.6723488e-17  0              0.099977866    2.1129006e-16  0              1.0202441e-08 -1.5            0              2.999336     
   2700000   6000           100            100            0.033325955   -1.6723489e-17  0              0.099977866    3.6807426e-19  0              1.7772989e-11 -1.5            0              2.999336     
   2800000   6000           100            100            0.033325955   -1.6723488e-17  0              0.099977866    2.6644274e-17  0              1.2865566e-09 -1.5            0              2.999336     
   2900000   6000           100            100            0.033325955   -1.6723489e-17  0              0.099977866    2.5471198e-18  0              1.229913e-10  -1.5            0              2.999336     
   3000000   6000           100            100            0.033325955   -1.6723488e-17  0              0.099977866    6.3175618e-18  0              3.0505245e-10 -1.5            0              2.999336     
Loop time of 900.528 on 2 procs for 3000000 steps with 4000 atoms

Performance: 2878310.867 ns/day, 0.000 hours/ns, 3331.378 timesteps/s
100.0% CPU use with 2 MPI tasks x 1 OpenMP threads

MPI task timing breakdown:
Section |  min time  |  avg time  |  max time  |%varavg| %total
---------------------------------------------------------------
Pair    | 448.94     | 451.17     | 453.41     |  10.5 | 50.10
Neigh   | 1.9887     | 1.9891     | 1.9894     |   0.0 |  0.22
Comm    | 17.983     | 20.08      | 22.177     |  46.8 |  2.23
Output  | 0.50407    | 0.50412    | 0.50418    |   0.0 |  0.06
Modify  | 385.99     | 386        | 386.01     |   0.1 | 42.86
Other   |            | 40.78      |            |       |  4.53

Nlocal:           2000 ave        2000 max        2000 min
Histogram: 2 0 0 0 0 0 0 0 0 0
Nghost:              6 ave           6 max           6 min
Histogram: 2 0 0 0 0 0 0 0 0 0
Neighs:           3000 ave        3000 max        3000 min
Histogram: 2 0 0 0 0 0 0 0 0 0

Total # of neighbors = 6000
Ave neighs/atom = 1.5
Neighbor list builds = 174
Dangerous builds = 0
  using 1 OpenMP thread(s) per MPI task
Lattice spacing in x,y,z = 3 3 3
Created orthogonal box = (-3000 -50 -50) to (3000 50 50)
  2 by 1 by 1 MPI processor grid
Created 2000 atoms
  using lattice units in orthogonal box = (-3000 -50 -50) to (3000 50 50)
  create_atoms CPU = 0.001 seconds
Lattice spacing in x,y,z = 3 3 3
Created 2000 atoms
  using lattice units in orthogonal box = (-3000 -50 -50) to (3000 50 50)
  create_atoms CPU = 0.001 seconds
Setting atom values ...
  2000 settings made for diameter
Setting atom values ...
  2000 settings made for mass
Setting atom values ...
  2000 settings made for diameter
Setting atom values ...
  2000 settings made for mass
2000 atoms in group substrate
2000 atoms in group slider1
  1 rigid bodies with 2000 atoms
Generated 0 of 1 mixed pair_coeff terms from geometric mixing rule
Neighbor list info ...
  update every 1 steps, delay 0 steps, check yes
  max neighbors/atom: 2000, page size: 100000
  master list distance cutoff = 3.1
  ghost atom cutoff = 3.1
  binsize = 1.55, bins = 3871 65 65
  1 neighbor lists, perpetual/occasional/extra = 1 0 0
  (1) pair granular, perpetual
      attributes: half, newton on, size, history
      pair build: half/size/bin/newton
      stencil: half/bin/3d
      bin: standard
Setting up Verlet run ...
  Unit style    : micro
  Current step  : 0
  Time step     : 1e-05
Per MPI rank memory allocation (min/avg/max) = 49.16 | 49.16 | 49.16 Mbytes
   Step           Lx             Ly             Lz           Press           Pxx            Pyy            Pzz           KinEng         PotEng          Temp          c_1[1]         c_1[2]         c_1[3]    
         0   6000           100            100            0              0              0              0              0              0              0             -1.5            0              6            
    100000   6000           100            100            0.027671988    2.539098e-21   0              0.083015963    1206917.3      0              5.8277719e+13 -1.5            0              3.31257      
    200000   6000           100            100            0.011019433    3.0191647e-22  0              0.0330583      353207.6       0              1.7055131e+13 -1.5            0              3.0463644    
    300000   6000           100            100            0.0032629122  -1.8765081e-22  0              0.0097887366   51403.824      0              2.4821067e+12 -1.5            0              3.0301031    
    400000   6000           100            100            0.34769839    -1.7105984e-16  0              1.0430952      5139.9169      0              2.4818819e+11 -1.5            0              2.9968384    
    500000   6000           100            100           -0.00019619211 -3.9227175e-23  0             -0.00058857633  285.17304      0              1.3769985e+10 -1.5            0              3.0022085    
    600000   6000           100            100            0.033912616   -1.692068e-17   0              0.10173785     918.10935      0              4.4332215e+10 -1.5            0              2.9993246    
    700000   6000           100            100            0.031033054   -1.5343359e-17  0              0.093099162    119.82616      0              5.7859763e+09 -1.5            0              2.999366     
    800000   6000           100            100            0.038652716   -1.9027063e-17  0              0.11595815     4.8336958      0              2.3340187e+08 -1.5            0              2.9992678    
    900000   6000           100            100            0.035608921   -1.7516327e-17  0              0.10682676     0.0021707037   0              104815.51     -1.5            0              2.9993071    
   1000000   6000           100            100            0.034065564   -1.6755944e-17  0              0.10219669     0.049024914    0              2367237.7     -1.5            0              2.9993273    
   1100000   6000           100            100            0.033506723   -1.6481848e-17  0              0.10052017     0.021426511    0              1034609.5     -1.5            0              2.9993346    
   1200000   6000           100            100            0.033346661   -1.6403728e-17  0              0.10003998     0.0042742521   0              206388.34     -1.5            0              2.9993367    
   1300000   6000           100            100            0.033315887   -1.6388902e-17  0              0.09994766     0.00053287375  0              25730.566     -1.5            0              2.9993371    
   1400000   6000           100            100            0.033316807   -1.6389467e-17  0              0.099950422    4.0670228e-05  0              1963.8198     -1.5            0              2.9993371    
   1500000   6000           100            100            0.033321383   -1.6391754e-17  0              0.09996415     1.2355536e-06  0              59.660461     -1.5            0              2.9993371    
   1600000   6000           100            100            0.033324206   -1.6393149e-17  0              0.099972618    1.2304763e-08  0              0.59415297    -1.5            0              2.999337     
   1700000   6000           100            100            0.033325428   -1.639375e-17   0              0.099976285    4.6298813e-08  0              2.235604      -1.5            0              2.999337     
   1800000   6000           100            100            0.033325848   -1.6393956e-17  0              0.099977545    1.5365053e-08  0              0.7419234     -1.5            0              2.999337     
   1900000   6000           100            100            0.03332596    -1.6394011e-17  0              0.099977881    2.6861173e-09  0              0.12970299    -1.5            0              2.999337     
   2000000   6000           100            100            0.033325978   -1.6394019e-17  0              0.099977934    2.9828642e-10  0              0.014403183   -1.5            0              2.999337     
   2100000   6000           100            100            0.033325975   -1.6394018e-17  0              0.099977924    1.9294222e-11  0              0.00093164892 -1.5            0              2.999337     
   2200000   6000           100            100            0.03332597    -1.6394015e-17  0              0.099977911    3.4718672e-13  0              1.6764404e-05 -1.5            0              2.999337     
   2300000   6000           100            100            0.033325968   -1.6394014e-17  0              0.099977904    3.6377447e-14  0              1.7565367e-06 -1.5            0              2.999337     
   2400000   6000           100            100            0.033325967   -1.6394014e-17  0              0.099977901    3.9124613e-14  0              1.8891875e-06 -1.5            0              2.999337     
   2500000   6000           100            100            0.033325967   -1.6394014e-17  0              0.099977901    1.053071e-14   0              5.0849029e-07 -1.5            0              2.999337     
   2600000   6000           100            100            0.033325967   -1.6394014e-17  0              0.0999779      1.6103603e-15  0              7.7758536e-08 -1.5            0              2.999337     
   2700000   6000           100            100            0.033325967   -1.6394014e-17  0              0.0999779      1.8864359e-16  0              9.1089239e-09 -1.5            0              2.999337     
   2800000   6000           100            100            0.033325967   -1.6394014e-17  0              0.0999779      4.4817597e-20  0              2.1640814e-12 -1.5            0              2.999337     
   2900000   6000           100            100            0.033325967   -1.6394014e-17  0              0.0999779      3.2056863e-18  0              1.5479112e-10 -1.5            0              2.999337     
   3000000   6000           100            100            0.033325967   -1.6394013e-17  0              0.0999779      3.4216253e-18  0              1.6521804e-10 -1.5            0              2.999337     
Loop time of 913.321 on 2 procs for 3000000 steps with 4000 atoms

Performance: 2837995.813 ns/day, 0.000 hours/ns, 3284.717 timesteps/s
100.0% CPU use with 2 MPI tasks x 1 OpenMP threads

MPI task timing breakdown:
Section |  min time  |  avg time  |  max time  |%varavg| %total
---------------------------------------------------------------
Pair    | 454.79     | 458        | 461.21     |  15.0 | 50.15
Neigh   | 1.9805     | 1.9806     | 1.9806     |   0.0 |  0.22
Comm    | 18.023     | 21.19      | 24.358     |  68.8 |  2.32
Output  | 0.50403    | 0.50411    | 0.50419    |   0.0 |  0.06
Modify  | 390.5      | 390.55     | 390.6      |   0.2 | 42.76
Other   |            | 41.09      |            |       |  4.50

Nlocal:           2000 ave        2000 max        2000 min
Histogram: 2 0 0 0 0 0 0 0 0 0
Nghost:              6 ave           6 max           6 min
Histogram: 2 0 0 0 0 0 0 0 0 0
Neighs:           3000 ave        3000 max        3000 min
Histogram: 2 0 0 0 0 0 0 0 0 0

Total # of neighbors = 6000
Ave neighs/atom = 1.5
Neighbor list builds = 174
Dangerous builds = 0
  using 1 OpenMP thread(s) per MPI task
Lattice spacing in x,y,z = 3 3 3
Created orthogonal box = (-3000 -50 -50) to (3000 50 50)
  2 by 1 by 1 MPI processor grid
Created 2000 atoms
  using lattice units in orthogonal box = (-3000 -50 -50) to (3000 50 50)
  create_atoms CPU = 0.001 seconds
Lattice spacing in x,y,z = 3 3 3
Created 2000 atoms
  using lattice units in orthogonal box = (-3000 -50 -50) to (3000 50 50)
  create_atoms CPU = 0.001 seconds
Setting atom values ...
  2000 settings made for diameter
Setting atom values ...
  2000 settings made for mass
Setting atom values ...
  2000 settings made for diameter
Setting atom values ...
  2000 settings made for mass
2000 atoms in group substrate
2000 atoms in group slider1
  1 rigid bodies with 2000 atoms
Generated 0 of 1 mixed pair_coeff terms from geometric mixing rule
Neighbor list info ...
  update every 1 steps, delay 0 steps, check yes
  max neighbors/atom: 2000, page size: 100000
  master list distance cutoff = 3.1
  ghost atom cutoff = 3.1
  binsize = 1.55, bins = 3871 65 65
  1 neighbor lists, perpetual/occasional/extra = 1 0 0
  (1) pair granular, perpetual
      attributes: half, newton on, size, history
      pair build: half/size/bin/newton
      stencil: half/bin/3d
      bin: standard
Setting up Verlet run ...
  Unit style    : micro
  Current step  : 0
  Time step     : 1e-05
Per MPI rank memory allocation (min/avg/max) = 49.16 | 49.16 | 49.16 Mbytes
   Step           Lx             Ly             Lz           Press           Pxx            Pyy            Pzz           KinEng         PotEng          Temp          c_1[1]         c_1[2]         c_1[3]    
         0   6000           100            100            0              0              0              0              0              0              0             -1.5            0              6            
    100000   6000           100            100            0.027672555    1.3993314e-21  0              0.083017665    1206954.4      0              5.8279509e+13 -1.5            0              3.3125552    
    200000   6000           100            100            0.01102065     4.1606344e-23  0              0.033061949    353267.99      0              1.7058047e+13 -1.5            0              3.0463382    
    300000   6000           100            100            0.0032648595  -2.0777173e-22  0              0.0097945784   51456.554      0              2.4846528e+12 -1.5            0              3.0300814    
    400000   6000           100            100            0.35113068    -1.6867772e-16  0              1.053392       4782.9637      0              2.309522e+11  -1.5            0              2.9968227    
    500000   6000           100            100           -0.00018853492 -3.5215342e-22  0             -0.00056560476  262.93282      0              1.2696085e+10 -1.5            0              3.0022219    
    600000   6000           100            100            0.029389947   -1.4365772e-17  0              0.08816984     913.32404      0              4.4101149e+10 -1.5            0              2.9993865    
    700000   6000           100            100            0.026317752   -1.2735454e-17  0              0.078953256    101.78173      0              4.9146754e+09 -1.5            0              2.9994328    
    800000   6000           100            100            0.036121096   -1.7407233e-17  0              0.10836329     12.730345      0              6.1470281e+08 -1.5            0              2.9993011    
    900000   6000           100            100            0.034934319   -1.6818599e-17  0              0.10480296     1.0242161      0              49455732      -1.5            0              2.9993168    
   1000000   6000           100            100            0.034029322   -1.6378406e-17  0              0.10208797     0.068677735    0              3316202       -1.5            0              2.9993288    
   1100000   6000           100            100            0.033607234   -1.6173911e-17  0              0.1008217      0.0028807925   0              139103.16     -1.5            0              2.9993344    
   1200000   6000           100            100            0.033431571   -1.6089099e-17  0              0.10029471     1.3854076e-05  0              668.96377     -1.5            0              2.9993367    
   1300000   6000           100            100            0.033363426   -1.6056264e-17  0              0.10009028     1.8800126e-05  0              907.79081     -1.5            0              2.9993376    
   1400000   6000           100            100            0.033338501   -1.6044281e-17  0              0.1000155      1.234417e-05   0              596.05579     -1.5            0              2.999338     
   1500000   6000           100            100            0.03332989    -1.6040151e-17  0              0.099989669    3.5940495e-06  0              173.54379     -1.5            0              2.9993381    
   1600000   6000           100            100            0.033327093   -1.6038813e-17  0              0.099981279    7.5868595e-07  0              36.634229     -1.5            0              2.9993381    
   1700000   6000           100            100            0.033326252   -1.6038412e-17  0              0.099978756    1.3231261e-07  0              6.3889024     -1.5            0              2.9993381    
   1800000   6000           100            100            0.033326026   -1.6038304e-17  0              0.099978078    2.0061351e-08  0              0.96869083    -1.5            0              2.9993381    
   1900000   6000           100            100            0.033325977   -1.6038281e-17  0              0.09997793     2.701004e-09   0              0.13042182    -1.5            0              2.9993381    
   2000000   6000           100            100            0.033325971   -1.6038279e-17  0              0.099977914    3.2442233e-10  0              0.015665193   -1.5            0              2.9993381    
   2100000   6000           100            100            0.033325974   -1.603828e-17   0              0.099977922    3.4434519e-11  0              0.0016627197  -1.5            0              2.9993381    
   2200000   6000           100            100            0.033325977   -1.6038282e-17  0              0.09997793     3.1382051e-12  0              0.0001515327  -1.5            0              2.9993381    
   2300000   6000           100            100            0.033325978   -1.6038282e-17  0              0.099977934    2.2928708e-13  0              1.1071453e-05 -1.5            0              2.9993381    
   2400000   6000           100            100            0.033325979   -1.6038283e-17  0              0.099977936    1.1064915e-14  0              5.3428516e-07 -1.5            0              2.9993381    
   2500000   6000           100            100            0.033325979   -1.6038283e-17  0              0.099977937    1.6159489e-16  0              7.8028388e-09 -1.5            0              2.9993381    
   2600000   6000           100            100            0.033325979   -1.6038283e-17  0              0.099977938    4.9240199e-17  0              2.377633e-09  -1.5            0              2.9993381    
   2700000   6000           100            100            0.033325979   -1.6038283e-17  0              0.099977938    5.6975412e-18  0              2.7511387e-10 -1.5            0              2.9993381    
   2800000   6000           100            100            0.033325979   -1.6038283e-17  0              0.099977938    1.5828656e-17  0              7.6430914e-10 -1.5            0              2.9993381    
   2900000   6000           100            100            0.033325979   -1.6038283e-17  0              0.099977938    3.2802043e-20  0              1.5838933e-12 -1.5            0              2.9993381    
   3000000   6000           100            100            0.033325979   -1.6038283e-17  0              0.099977938    4.4735485e-18  0              2.1601165e-10 -1.5            0              2.9993381    
Loop time of 903.435 on 2 procs for 3000000 steps with 4000 atoms

Performance: 2869049.937 ns/day, 0.000 hours/ns, 3320.660 timesteps/s
100.0% CPU use with 2 MPI tasks x 1 OpenMP threads

MPI task timing breakdown:
Section |  min time  |  avg time  |  max time  |%varavg| %total
---------------------------------------------------------------
Pair    | 432.02     | 441.24     | 450.47     |  43.9 | 48.84
Neigh   | 2.0028     | 2.003      | 2.0032     |   0.0 |  0.22
Comm    | 17.849     | 27.106     | 36.363     | 177.8 |  3.00
Output  | 0.50143    | 0.50149    | 0.50155    |   0.0 |  0.06
Modify  | 390.45     | 391.29     | 392.12     |   4.2 | 43.31
Other   |            | 41.3       |            |       |  4.57

Nlocal:           2000 ave        2000 max        2000 min
Histogram: 2 0 0 0 0 0 0 0 0 0
Nghost:              6 ave           6 max           6 min
Histogram: 2 0 0 0 0 0 0 0 0 0
Neighs:           3000 ave        3000 max        3000 min
Histogram: 2 0 0 0 0 0 0 0 0 0

Total # of neighbors = 6000
Ave neighs/atom = 1.5
Neighbor list builds = 174
Dangerous builds = 0
  using 1 OpenMP thread(s) per MPI task
Lattice spacing in x,y,z = 3 3 3
Created orthogonal box = (-3000 -50 -50) to (3000 50 50)
  2 by 1 by 1 MPI processor grid
Created 2000 atoms
  using lattice units in orthogonal box = (-3000 -50 -50) to (3000 50 50)
  create_atoms CPU = 0.001 seconds
Lattice spacing in x,y,z = 3 3 3
Created 2000 atoms
  using lattice units in orthogonal box = (-3000 -50 -50) to (3000 50 50)
  create_atoms CPU = 0.001 seconds
Setting atom values ...
  2000 settings made for diameter
Setting atom values ...
  2000 settings made for mass
Setting atom values ...
  2000 settings made for diameter
Setting atom values ...
  2000 settings made for mass
2000 atoms in group substrate
2000 atoms in group slider1
  1 rigid bodies with 2000 atoms
Generated 0 of 1 mixed pair_coeff terms from geometric mixing rule
Neighbor list info ...
  update every 1 steps, delay 0 steps, check yes
  max neighbors/atom: 2000, page size: 100000
  master list distance cutoff = 3.1
  ghost atom cutoff = 3.1
  binsize = 1.55, bins = 3871 65 65
  1 neighbor lists, perpetual/occasional/extra = 1 0 0
  (1) pair granular, perpetual
      attributes: half, newton on, size, history
      pair build: half/size/bin/newton
      stencil: half/bin/3d
      bin: standard
Setting up Verlet run ...
  Unit style    : micro
  Current step  : 0
  Time step     : 1e-05
Per MPI rank memory allocation (min/avg/max) = 49.16 | 49.16 | 49.16 Mbytes
   Step           Lx             Ly             Lz           Press           Pxx            Pyy            Pzz           KinEng         PotEng          Temp          c_1[1]         c_1[2]         c_1[3]    
         0   6000           100            100            0              0              0              0              0              0              0             -1.5            0              6            
    100000   6000           100            100            0.027673167    1.4789903e-21  0              0.083019501    1206994.3      0              5.8281434e+13 -1.5            0              3.3125397    
    200000   6000           100            100            0.011021942    9.205017e-22   0              0.033065827    353332.12      0              1.7061144e+13 -1.5            0              3.0463107    
    300000   6000           100            100            0.0032669457   6.1534396e-22  0              0.009800837    51513.066      0              2.4873816e+12 -1.5            0              3.0300583    
    400000   6000           100            100            0.35472826    -1.6740229e-16  0              1.0641848      4408.3121      0              2.1286161e+11 -1.5            0              2.9968066    
    500000   6000           100            100           -0.00018025111 -4.2990087e-22  0             -0.00054075333  239.92018      0              1.1584887e+10 -1.5            0              3.0022359    
    600000   6000           100            100            0.024767973   -1.1875996e-17  0              0.07430392     890.27004      0              4.2987954e+10 -1.5            0              2.9994529    
    700000   6000           100            100            0.022102909   -1.0454941e-17  0              0.066308728    68.111165      0              3.2888444e+09 -1.5            0              2.9994961    
    800000   6000           100            100            0.032628555   -1.5379159e-17  0              0.097885666    15.662036      0              7.5626365e+08 -1.5            0              2.999348     
    900000   6000           100            100            0.033256761   -1.5657641e-17  0              0.099770283    2.0499591      0              98985186      -1.5            0              2.99934      
   1000000   6000           100            100            0.033305007   -1.5674202e-17  0              0.099915022    0.26542231     0              12816293      -1.5            0              2.9993395    
   1100000   6000           100            100            0.033316398   -1.5677422e-17  0              0.099949194    0.034344433    0              1658369.7     -1.5            0              2.9993394    
   1200000   6000           100            100            0.033321569   -1.5679047e-17  0              0.099964706    0.0044428156   0              214527.67     -1.5            0              2.9993394    
   1300000   6000           100            100            0.033324031   -1.567992e-17   0              0.099972092    0.00057459733  0              27745.249     -1.5            0              2.9993394    
   1400000   6000           100            100            0.033325151   -1.5680348e-17  0              0.099975454    7.4298183e-05  0              3587.5933     -1.5            0              2.9993394    
   1500000   6000           100            100            0.033325641   -1.568054e-17   0              0.099976923    9.605148e-06   0              463.79822     -1.5            0              2.9993393    
   1600000   6000           100            100            0.033325849   -1.5680625e-17  0              0.099977546    1.241487e-06   0              59.946965     -1.5            0              2.9993393    
   1700000   6000           100            100            0.033325934   -1.5680661e-17  0              0.099977803    1.6043241e-07  0              7.7467067     -1.5            0              2.9993393    
   1800000   6000           100            100            0.033325969   -1.5680675e-17  0              0.099977908    2.0727965e-08  0              1.0008793     -1.5            0              2.9993393    
   1900000   6000           100            100            0.033325984   -1.5680681e-17  0              0.099977951    2.6775021e-09  0              0.12928699    -1.5            0              2.9993393    
   2000000   6000           100            100            0.033325989   -1.5680684e-17  0              0.099977967    3.4580999e-10  0              0.016697927   -1.5            0              2.9993393    
   2100000   6000           100            100            0.033325991   -1.5680685e-17  0              0.099977974    4.4652227e-11  0              0.0021560962  -1.5            0              2.9993393    
   2200000   6000           100            100            0.033325992   -1.5680685e-17  0              0.099977976    5.759856e-12   0              0.00027812283 -1.5            0              2.9993393    
   2300000   6000           100            100            0.033325992   -1.5680685e-17  0              0.099977977    7.4352076e-13  0              3.5901957e-05 -1.5            0              2.9993393    
   2400000   6000           100            100            0.033325993   -1.5680685e-17  0              0.099977978    9.5822678e-14  0              4.6269342e-06 -1.5            0              2.9993393    
   2500000   6000           100            100            0.033325993   -1.5680685e-17  0              0.099977978    1.2323756e-14  0              5.9507009e-07 -1.5            0              2.9993393    
   2600000   6000           100            100            0.033325993   -1.5680685e-17  0              0.099977978    1.625399e-15   0              7.8484699e-08 -1.5            0              2.9993393    
   2700000   6000           100            100            0.033325993   -1.5680685e-17  0              0.099977978    1.967426e-16   0              9.4999961e-09 -1.5            0              2.9993393    
   2800000   6000           100            100            0.033325993   -1.5680685e-17  0              0.099977978    2.5033421e-17  0              1.2087743e-09 -1.5            0              2.9993393    
   2900000   6000           100            100            0.033325993   -1.5680685e-17  0              0.099977978    5.4968358e-18  0              2.6542253e-10 -1.5            0              2.9993393    
   3000000   6000           100            100            0.033325993   -1.5680685e-17  0              0.099977978    3.4406839e-18  0              1.6613831e-10 -1.5            0              2.9993393    
Loop time of 896.515 on 2 procs for 3000000 steps with 4000 atoms

Performance: 2891195.059 ns/day, 0.000 hours/ns, 3346.291 timesteps/s
100.0% CPU use with 2 MPI tasks x 1 OpenMP threads

MPI task timing breakdown:
Section |  min time  |  avg time  |  max time  |%varavg| %total
---------------------------------------------------------------
Pair    | 441.26     | 444.84     | 448.43     |  17.0 | 49.62
Neigh   | 1.9877     | 1.988      | 1.9884     |   0.0 |  0.22
Comm    | 18.141     | 21.636     | 25.131     |  75.1 |  2.41
Output  | 0.50178    | 0.50186    | 0.50194    |   0.0 |  0.06
Modify  | 386.59     | 386.67     | 386.76     |   0.4 | 43.13
Other   |            | 40.87      |            |       |  4.56

Nlocal:           2000 ave        2000 max        2000 min
Histogram: 2 0 0 0 0 0 0 0 0 0
Nghost:              6 ave           6 max           6 min
Histogram: 2 0 0 0 0 0 0 0 0 0
Neighs:           3000 ave        3000 max        3000 min
Histogram: 2 0 0 0 0 0 0 0 0 0

Total # of neighbors = 6000
Ave neighs/atom = 1.5
Neighbor list builds = 174
Dangerous builds = 0
  using 1 OpenMP thread(s) per MPI task
Lattice spacing in x,y,z = 3 3 3
Created orthogonal box = (-3000 -50 -50) to (3000 50 50)
  2 by 1 by 1 MPI processor grid
Created 2000 atoms
  using lattice units in orthogonal box = (-3000 -50 -50) to (3000 50 50)
  create_atoms CPU = 0.001 seconds
Lattice spacing in x,y,z = 3 3 3
Created 2000 atoms
  using lattice units in orthogonal box = (-3000 -50 -50) to (3000 50 50)
  create_atoms CPU = 0.001 seconds
Setting atom values ...
  2000 settings made for diameter
Setting atom values ...
  2000 settings made for mass
Setting atom values ...
  2000 settings made for diameter
Setting atom values ...
  2000 settings made for mass
2000 atoms in group substrate
2000 atoms in group slider1
  1 rigid bodies with 2000 atoms
Generated 0 of 1 mixed pair_coeff terms from geometric mixing rule
Neighbor list info ...
  update every 1 steps, delay 0 steps, check yes
  max neighbors/atom: 2000, page size: 100000
  master list distance cutoff = 3.1
  ghost atom cutoff = 3.1
  binsize = 1.55, bins = 3871 65 65
  1 neighbor lists, perpetual/occasional/extra = 1 0 0
  (1) pair granular, perpetual
      attributes: half, newton on, size, history
      pair build: half/size/bin/newton
      stencil: half/bin/3d
      bin: standard
Setting up Verlet run ...
  Unit style    : micro
  Current step  : 0
  Time step     : 1e-05
Per MPI rank memory allocation (min/avg/max) = 49.16 | 49.16 | 49.16 Mbytes
   Step           Lx             Ly             Lz           Press           Pxx            Pyy            Pzz           KinEng         PotEng          Temp          c_1[1]         c_1[2]         c_1[3]    
         0   6000           100            100            0              0              0              0              0              0              0             -1.5            0              6            
    100000   6000           100            100            0.027673825    2.8540462e-21  0              0.083021476    1207037.2      0              5.8283504e+13 -1.5            0              3.3125231    
    200000   6000           100            100            0.011023336    1.1472262e-21  0              0.033070008    353401.29      0              1.7064484e+13 -1.5            0              3.0462809    
    300000   6000           100            100            0.0032691975   8.2372343e-22  0              0.0098075926   51574.092      0              2.4903283e+12 -1.5            0              3.0300334    
    400000   6000           100            100            0.3584774     -1.6548926e-16  0              1.0754322      4017.418       0              1.9398674e+11 -1.5            0              2.9967902    
    500000   6000           100            100           -0.00017133711 -2.0281159e-22  0             -0.00051401134  216.36782      0              1.0447628e+10 -1.5            0              3.0022504    
    600000   6000           100            100            0.020168464   -9.5085009e-18  0              0.060505393    846.85654      0              4.0891672e+10 -1.5            0              2.999523     
    700000   6000           100            100            0.018886567   -8.7404358e-18  0              0.056659701    29.843109      0              1.4410169e+09 -1.5            0              2.9995474    
    800000   6000           100            100            0.029246029   -1.3492126e-17  0              0.087738087    9.1429725      0              4.4148142e+08 -1.5            0              2.9993951    
    900000   6000           100            100            0.031551672   -1.4539232e-17  0              0.094655015    0.80019811     0              38638703      -1.5            0              2.9993641    
   1000000   6000           100            100            0.032575325   -1.5005564e-17  0              0.097725976    0.042411795    0              2047913.8     -1.5            0              2.9993506    
   1100000   6000           100            100            0.033034016   -1.5215378e-17  0              0.099102047    0.00063454833  0              30640.068     -1.5            0              2.9993445    
   1200000   6000           100            100            0.033221059   -1.5301217e-17  0              0.099663176    8.7193406e-05  0              4210.2575     -1.5            0              2.999342     
   1300000   6000           100            100            0.033291176   -1.5333473e-17  0              0.099873529    9.4709147e-05  0              4573.1658     -1.5            0              2.9993411    
   1400000   6000           100            100            0.033315486   -1.5344682e-17  0              0.099946459    3.0554416e-05  0              1475.3634     -1.5            0              2.9993408    
   1500000   6000           100            100            0.033323234   -1.5348265e-17  0              0.099969702    6.5854134e-06  0              317.98604     -1.5            0              2.9993407    
   1600000   6000           100            100            0.03332545    -1.5349295e-17  0              0.099976349    1.1250607e-06  0              54.325157     -1.5            0              2.9993407    
   1700000   6000           100            100            0.03332598    -1.5349543e-17  0              0.099977941    1.6158518e-07  0              7.8023703     -1.5            0              2.9993406    
   1800000   6000           100            100            0.033326061   -1.5349582e-17  0              0.099978182    1.9861126e-08  0              0.9590227     -1.5            0              2.9993406    
   1900000   6000           100            100            0.033326048   -1.5349577e-17  0              0.099978143    2.0714045e-09  0              0.10002071    -1.5            0              2.9993406    
   2000000   6000           100            100            0.033326028   -1.5349568e-17  0              0.099978085    1.7578795e-10  0              0.0084881712  -1.5            0              2.9993406    
   2100000   6000           100            100            0.033326017   -1.5349562e-17  0              0.09997805     1.0787084e-11  0              0.00052086966 -1.5            0              2.9993406    
   2200000   6000           100            100            0.033326011   -1.534956e-17   0              0.099978033    3.1143164e-13  0              1.5037919e-05 -1.5            0              2.9993406    
   2300000   6000           100            100            0.033326009   -1.5349559e-17  0              0.099978026    1.5383807e-15  0              7.4282897e-08 -1.5            0              2.9993406    
   2400000   6000           100            100            0.033326008   -1.5349558e-17  0              0.099978023    9.3906089e-15  0              4.534389e-07  -1.5            0              2.9993406    
   2500000   6000           100            100            0.033326007   -1.5349558e-17  0              0.099978022    4.067494e-15   0              1.9640473e-07 -1.5            0              2.9993406    
   2600000   6000           100            100            0.033326007   -1.5349558e-17  0              0.099978022    8.990632e-16   0              4.3412544e-08 -1.5            0              2.9993406    
   2700000   6000           100            100            0.033326007   -1.5349558e-17  0              0.099978022    1.9725732e-16  0              9.5248499e-09 -1.5            0              2.9993406    
   2800000   6000           100            100            0.033326007   -1.5349558e-17  0              0.099978022    7.3067542e-18  0              3.5281701e-10 -1.5            0              2.9993406    
   2900000   6000           100            100            0.033326007   -1.5349558e-17  0              0.099978022    9.5373713e-20  0              4.6052553e-12 -1.5            0              2.9993406    
   3000000   6000           100            100            0.033326007   -1.5349558e-17  0              0.099978022    8.805149e-18   0              4.2516913e-10 -1.5            0              2.9993406    
Loop time of 874.643 on 2 procs for 3000000 steps with 4000 atoms

Performance: 2963494.006 ns/day, 0.000 hours/ns, 3429.970 timesteps/s
100.0% CPU use with 2 MPI tasks x 1 OpenMP threads

MPI task timing breakdown:
Section |  min time  |  avg time  |  max time  |%varavg| %total
---------------------------------------------------------------
Pair    | 422.12     | 423.58     | 425.04     |   7.1 | 48.43
Neigh   | 2.01       | 2.0107     | 2.0114     |   0.0 |  0.23
Comm    | 20.897     | 22.281     | 23.666     |  29.3 |  2.55
Output  | 0.50275    | 0.50281    | 0.50288    |   0.0 |  0.06
Modify  | 385.27     | 385.33     | 385.38     |   0.3 | 44.06
Other   |            | 40.94      |            |       |  4.68

Nlocal:           2000 ave        2000 max        2000 min
Histogram: 2 0 0 0 0 0 0 0 0 0
Nghost:              6 ave           6 max           6 min
Histogram: 2 0 0 0 0 0 0 0 0 0
Neighs:           3000 ave        3000 max        3000 min
Histogram: 2 0 0 0 0 0 0 0 0 0

Total # of neighbors = 6000
Ave neighs/atom = 1.5
Neighbor list builds = 174
Dangerous builds = 0
  using 1 OpenMP thread(s) per MPI task
Lattice spacing in x,y,z = 3 3 3
Created orthogonal box = (-3000 -50 -50) to (3000 50 50)
  2 by 1 by 1 MPI processor grid
Created 2000 atoms
  using lattice units in orthogonal box = (-3000 -50 -50) to (3000 50 50)
  create_atoms CPU = 0.001 seconds
Lattice spacing in x,y,z = 3 3 3
Created 2000 atoms
  using lattice units in orthogonal box = (-3000 -50 -50) to (3000 50 50)
  create_atoms CPU = 0.001 seconds
Setting atom values ...
  2000 settings made for diameter
Setting atom values ...
  2000 settings made for mass
Setting atom values ...
  2000 settings made for diameter
Setting atom values ...
  2000 settings made for mass
2000 atoms in group substrate
2000 atoms in group slider1
  1 rigid bodies with 2000 atoms
Generated 0 of 1 mixed pair_coeff terms from geometric mixing rule
Neighbor list info ...
  update every 1 steps, delay 0 steps, check yes
  max neighbors/atom: 2000, page size: 100000
  master list distance cutoff = 3.1
  ghost atom cutoff = 3.1
  binsize = 1.55, bins = 3871 65 65
  1 neighbor lists, perpetual/occasional/extra = 1 0 0
  (1) pair granular, perpetual
      attributes: half, newton on, size, history
      pair build: half/size/bin/newton
      stencil: half/bin/3d
      bin: standard
Setting up Verlet run ...
  Unit style    : micro
  Current step  : 0
  Time step     : 1e-05
Per MPI rank memory allocation (min/avg/max) = 49.16 | 49.16 | 49.16 Mbytes
   Step           Lx             Ly             Lz           Press           Pxx            Pyy            Pzz           KinEng         PotEng          Temp          c_1[1]         c_1[2]         c_1[3]    
         0   6000           100            100            0              0              0              0              0              0              0             -1.5            0              6            
    100000   6000           100            100            0.027674531    2.3365777e-21  0              0.083023593    1207083.2      0              5.8285726e+13 -1.5            0              3.3125051    
    200000   6000           100            100            0.011024836    5.3700002e-22  0              0.033074508    353475.74      0              1.7068079e+13 -1.5            0              3.0462488    
    300000   6000           100            100            0.003271605   -9.1438974e-23  0              0.009814815    51639.363      0              2.49348e+12   -1.5            0              3.0300067    
    400000   6000           100            100            0.36234096    -1.6293358e-16  0              1.0870229      3614.5464      0              1.7453351e+11 -1.5            0              2.9967737    
    500000   6000           100            100           -0.00016178084 -2.5511139e-22  0             -0.00048534251  192.50627      0              9.2954389e+09 -1.5            0              3.0022651    
    600000   6000           100            100            0.015726043   -7.2704063e-18  0              0.047178129    782.41907      0              3.7780217e+10 -1.5            0              2.9995957    
    700000   6000           100            100            0.017114462   -7.7151135e-18  0              0.051343385    3.552985       0              1.7156093e+08 -1.5            0              2.9995777    
    800000   6000           100            100            0.027270335   -1.2273064e-17  0              0.081811005    0.77931717     0              37630437      -1.5            0              2.9994242    
    900000   6000           100            100            0.031137107   -1.4002746e-17  0              0.093411321    0.13148336     0              6348861       -1.5            0              2.9993712    
   1000000   6000           100            100            0.032762651   -1.4733066e-17  0              0.098287954    0.13939418     0              6730846.2     -1.5            0              2.9993495    
   1100000   6000           100            100            0.03326881    -1.4961686e-17  0              0.09980643     0.033124786    0              1599477.3     -1.5            0              2.9993428    
   1200000   6000           100            100            0.033364352   -1.5005365e-17  0              0.10009306     0.0038930304   0              187980.51     -1.5            0              2.9993415    
   1300000   6000           100            100            0.033356737   -1.5002248e-17  0              0.10007021     0.00020710424  0              10000.323     -1.5            0              2.9993416    
   1400000   6000           100            100            0.033339743   -1.4994701e-17  0              0.10001923     4.5983404e-07  0              22.20374      -1.5            0              2.9993419    
   1500000   6000           100            100            0.033330393   -1.4990515e-17  0              0.09999118     2.1032801e-06  0              101.55987     -1.5            0              2.999342     
   1600000   6000           100            100            0.033326906   -1.4988945e-17  0              0.099980717    9.410104e-07   0              45.438025     -1.5            0              2.999342     
   1700000   6000           100            100            0.033325994   -1.4988532e-17  0              0.099977982    1.6193159e-07  0              7.8190969     -1.5            0              2.999342     
   1800000   6000           100            100            0.033325891   -1.4988484e-17  0              0.099977673    1.4216615e-08  0              0.68646944    -1.5            0              2.999342     
   1900000   6000           100            100            0.033325946   -1.4988508e-17  0              0.099977839    4.1798642e-10  0              0.020183068   -1.5            0              2.999342     
   2000000   6000           100            100            0.033325993   -1.4988529e-17  0              0.09997798     8.987381e-12   0              0.00043396846 -1.5            0              2.999342     
   2100000   6000           100            100            0.033326015   -1.4988539e-17  0              0.099978044    1.997692e-11   0              0.00096461398 -1.5            0              2.999342     
   2200000   6000           100            100            0.033326022   -1.4988542e-17  0              0.099978065    5.4350117e-12  0              0.00026243727 -1.5            0              2.999342     
   2300000   6000           100            100            0.033326023   -1.4988543e-17  0              0.099978069    7.0496249e-13  0              3.4040115e-05 -1.5            0              2.999342     
   2400000   6000           100            100            0.033326023   -1.4988543e-17  0              0.099978069    4.3849563e-14  0              2.1173385e-06 -1.5            0              2.999342     
   2500000   6000           100            100            0.033326023   -1.4988542e-17  0              0.099978069    3.2347575e-16  0              1.5619486e-08 -1.5            0              2.999342     
   2600000   6000           100            100            0.033326023   -1.4988542e-17  0              0.099978068    1.8369539e-16  0              8.8699928e-09 -1.5            0              2.999342     
   2700000   6000           100            100            0.033326023   -1.4988542e-17  0              0.099978068    1.6808155e-16  0              8.1160565e-09 -1.5            0              2.999342     
   2800000   6000           100            100            0.033326023   -1.4988542e-17  0              0.099978068    1.1564447e-17  0              5.5840576e-10 -1.5            0              2.999342     
   2900000   6000           100            100            0.033326023   -1.4988542e-17  0              0.099978068    1.9213663e-18  0              9.2775902e-11 -1.5            0              2.999342     
   3000000   6000           100            100            0.033326023   -1.4988542e-17  0              0.099978068    9.3603226e-18  0              4.5197648e-10 -1.5            0              2.999342     
Loop time of 814.282 on 2 procs for 3000000 steps with 4000 atoms

Performance: 3183172.387 ns/day, 0.000 hours/ns, 3684.227 timesteps/s
100.0% CPU use with 2 MPI tasks x 1 OpenMP threads

MPI task timing breakdown:
Section |  min time  |  avg time  |  max time  |%varavg| %total
---------------------------------------------------------------
Pair    | 363.98     | 366.8      | 369.61     |  14.7 | 45.05
Neigh   | 1.972      | 1.9722     | 1.9724     |   0.0 |  0.24
Comm    | 16.92      | 19.729     | 22.537     |  63.2 |  2.42
Output  | 0.50112    | 0.50115    | 0.50118    |   0.0 |  0.06
Modify  | 384.56     | 384.61     | 384.65     |   0.2 | 47.23
Other   |            | 40.68      |            |       |  5.00

Nlocal:           2000 ave        2000 max        2000 min
Histogram: 2 0 0 0 0 0 0 0 0 0
Nghost:              6 ave           6 max           6 min
Histogram: 2 0 0 0 0 0 0 0 0 0
Neighs:           3000 ave        3000 max        3000 min
Histogram: 2 0 0 0 0 0 0 0 0 0

Total # of neighbors = 6000
Ave neighs/atom = 1.5
Neighbor list builds = 174
Dangerous builds = 0
  using 1 OpenMP thread(s) per MPI task
Lattice spacing in x,y,z = 3 3 3
Created orthogonal box = (-3000 -50 -50) to (3000 50 50)
  2 by 1 by 1 MPI processor grid
Created 2000 atoms
  using lattice units in orthogonal box = (-3000 -50 -50) to (3000 50 50)
  create_atoms CPU = 0.001 seconds
Lattice spacing in x,y,z = 3 3 3
Created 2000 atoms
  using lattice units in orthogonal box = (-3000 -50 -50) to (3000 50 50)
  create_atoms CPU = 0.001 seconds
Setting atom values ...
  2000 settings made for diameter
Setting atom values ...
  2000 settings made for mass
Setting atom values ...
  2000 settings made for diameter
Setting atom values ...
  2000 settings made for mass
2000 atoms in group substrate
2000 atoms in group slider1
  1 rigid bodies with 2000 atoms
Generated 0 of 1 mixed pair_coeff terms from geometric mixing rule
Neighbor list info ...
  update every 1 steps, delay 0 steps, check yes
  max neighbors/atom: 2000, page size: 100000
  master list distance cutoff = 3.1
  ghost atom cutoff = 3.1
  binsize = 1.55, bins = 3871 65 65
  1 neighbor lists, perpetual/occasional/extra = 1 0 0
  (1) pair granular, perpetual
      attributes: half, newton on, size, history
      pair build: half/size/bin/newton
      stencil: half/bin/3d
      bin: standard
Setting up Verlet run ...
  Unit style    : micro
  Current step  : 0
  Time step     : 1e-05
Per MPI rank memory allocation (min/avg/max) = 49.16 | 49.16 | 49.16 Mbytes
   Step           Lx             Ly             Lz           Press           Pxx            Pyy            Pzz           KinEng         PotEng          Temp          c_1[1]         c_1[2]         c_1[3]    
         0   6000           100            100            0              0              0              0              0              0              0             -1.5            0              6            
    100000   6000           100            100            0.027675284    3.9721325e-21  0              0.083025852    1207132.3      0              5.8288099e+13 -1.5            0              3.3124858    
    200000   6000           100            100            0.011026445    8.8262409e-22  0              0.033079334    353555.61      0              1.7071935e+13 -1.5            0              3.0462141    
    300000   6000           100            100            0.0032741966   4.8245884e-22  0              0.0098225898   51709.663      0              2.4968746e+12 -1.5            0              3.0299778    
    400000   6000           100            100            0.36631048    -1.6133294e-16  0              1.0989315      3200.6468      0              1.5454778e+11 -1.5            0              2.9967572    
    500000   6000           100            100           -0.00015156204 -1.9431082e-22  0             -0.00045468611  168.57155      0              8.1397169e+09 -1.5            0              3.0022802    
    600000   6000           100            100            0.011585286   -5.272797e-18   0              0.034755859    698.15641      0              3.3711474e+10 -1.5            0              2.9996697    
    700000   6000           100            100            0.017182166   -7.5195479e-18  0              0.051546497    4.6447527      0              2.2427849e+08 -1.5            0              2.9995783    
    800000   6000           100            100            0.027748612   -1.2153197e-17  0              0.083245836    3.0950804      0              1.4945036e+08 -1.5            0              2.9994193    
    900000   6000           100            100            0.032617207   -1.428961e-17   0              0.097851621    1.8561021      0              89624528      -1.5            0              2.9993531    
   1000000   6000           100            100            0.033755497   -1.479437e-17   0              0.10126649     0.1950588      0              9418691.3     -1.5            0              2.999338     
   1100000   6000           100            100            0.033618868   -1.4737114e-17  0              0.1008566      0.00082728704  0              39946.73      -1.5            0              2.9993397    
   1200000   6000           100            100            0.033406231   -1.4644384e-17  0              0.10021869     0.0019189506   0              92659.257     -1.5            0              2.9993425    
   1300000   6000           100            100            0.033325382   -1.4608826e-17  0              0.099976145    0.00057844658  0              27931.115     -1.5            0              2.9993435    
   1400000   6000           100            100            0.033315355   -1.4604314e-17  0              0.099946066    3.018179e-05   0              1457.3706     -1.5            0              2.9993437    
   1500000   6000           100            100            0.033321165   -1.4606822e-17  0              0.099963494    3.1755749e-07  0              15.333715     -1.5            0              2.9993436    
   1600000   6000           100            100            0.03332516    -1.460857e-17   0              0.099975479    9.4634932e-07  0              45.695822     -1.5            0              2.9993435    
   1700000   6000           100            100            0.033326262   -1.4609056e-17  0              0.099978786    1.4332109e-07  0              6.9204625     -1.5            0              2.9993435    
   1800000   6000           100            100            0.033326256   -1.4609056e-17  0              0.099978769    2.4781665e-09  0              0.11966179    -1.5            0              2.9993435    
   1900000   6000           100            100            0.033326111   -1.4608993e-17  0              0.099978334    6.7089601e-10  0              0.032395167   -1.5            0              2.9993435    
   2000000   6000           100            100            0.033326044   -1.4608964e-17  0              0.099978133    3.4103459e-10  0              0.01646734    -1.5            0              2.9993435    
   2100000   6000           100            100            0.033326032   -1.4608958e-17  0              0.099978097    2.7231585e-11  0              0.0013149158  -1.5            0              2.9993435    
   2200000   6000           100            100            0.033326035   -1.4608959e-17  0              0.099978106    1.0426338e-15  0              5.0345054e-08 -1.5            0              2.9993435    
   2300000   6000           100            100            0.033326038   -1.4608961e-17  0              0.099978115    4.3686225e-13  0              2.1094515e-05 -1.5            0              2.9993435    
   2400000   6000           100            100            0.033326039   -1.4608961e-17  0              0.099978118    9.6518073e-14  0              4.6605123e-06 -1.5            0              2.9993435    
   2500000   6000           100            100            0.033326039   -1.4608961e-17  0              0.099978118    3.2751326e-15  0              1.5814443e-07 -1.5            0              2.9993435    
   2600000   6000           100            100            0.033326039   -1.4608961e-17  0              0.099978118    1.2572802e-16  0              6.0709559e-09 -1.5            0              2.9993435    
   2700000   6000           100            100            0.033326039   -1.4608961e-17  0              0.099978118    1.9192084e-16  0              9.2671704e-09 -1.5            0              2.9993435    
   2800000   6000           100            100            0.033326039   -1.4608961e-17  0              0.099978118    1.7137502e-17  0              8.2750865e-10 -1.5            0              2.9993435    
   2900000   6000           100            100            0.033326039   -1.4608961e-17  0              0.099978118    1.55625e-17    0              7.5145744e-10 -1.5            0              2.9993435    
   3000000   6000           100            100            0.033326039   -1.4608961e-17  0              0.099978118    1.0635448e-19  0              5.1354772e-12 -1.5            0              2.9993435    
Loop time of 818.742 on 2 procs for 3000000 steps with 4000 atoms

Performance: 3165833.399 ns/day, 0.000 hours/ns, 3664.159 timesteps/s
100.0% CPU use with 2 MPI tasks x 1 OpenMP threads

MPI task timing breakdown:
Section |  min time  |  avg time  |  max time  |%varavg| %total
---------------------------------------------------------------
Pair    | 366.82     | 369.99     | 373.16     |  16.5 | 45.19
Neigh   | 2.0047     | 2.005      | 2.0052     |   0.0 |  0.24
Comm    | 16.903     | 20.068     | 23.232     |  70.6 |  2.45
Output  | 0.50026    | 0.50028    | 0.50031    |   0.0 |  0.06
Modify  | 383.44     | 383.49     | 383.54     |   0.3 | 46.84
Other   |            | 42.69      |            |       |  5.21

Nlocal:           2000 ave        2000 max        2000 min
Histogram: 2 0 0 0 0 0 0 0 0 0
Nghost:              6 ave           6 max           6 min
Histogram: 2 0 0 0 0 0 0 0 0 0
Neighs:           3000 ave        3000 max        3000 min
Histogram: 2 0 0 0 0 0 0 0 0 0

Total # of neighbors = 6000
Ave neighs/atom = 1.5
Neighbor list builds = 174
Dangerous builds = 0
  using 1 OpenMP thread(s) per MPI task
Lattice spacing in x,y,z = 3 3 3
Created orthogonal box = (-3000 -50 -50) to (3000 50 50)
  2 by 1 by 1 MPI processor grid
Created 2000 atoms
  using lattice units in orthogonal box = (-3000 -50 -50) to (3000 50 50)
  create_atoms CPU = 0.001 seconds
Lattice spacing in x,y,z = 3 3 3
Created 2000 atoms
  using lattice units in orthogonal box = (-3000 -50 -50) to (3000 50 50)
  create_atoms CPU = 0.001 seconds
Setting atom values ...
  2000 settings made for diameter
Setting atom values ...
  2000 settings made for mass
Setting atom values ...
  2000 settings made for diameter
Setting atom values ...
  2000 settings made for mass
2000 atoms in group substrate
2000 atoms in group slider1
  1 rigid bodies with 2000 atoms
Generated 0 of 1 mixed pair_coeff terms from geometric mixing rule
Neighbor list info ...
  update every 1 steps, delay 0 steps, check yes
  max neighbors/atom: 2000, page size: 100000
  master list distance cutoff = 3.1
  ghost atom cutoff = 3.1
  binsize = 1.55, bins = 3871 65 65
  1 neighbor lists, perpetual/occasional/extra = 1 0 0
  (1) pair granular, perpetual
      attributes: half, newton on, size, history
      pair build: half/size/bin/newton
      stencil: half/bin/3d
      bin: standard
Setting up Verlet run ...
  Unit style    : micro
  Current step  : 0
  Time step     : 1e-05
Per MPI rank memory allocation (min/avg/max) = 49.16 | 49.16 | 49.16 Mbytes
   Step           Lx             Ly             Lz           Press           Pxx            Pyy            Pzz           KinEng         PotEng          Temp          c_1[1]         c_1[2]         c_1[3]    
         0   6000           100            100            0              0              0              0              0              0              0             -1.5            0              6            
    100000   6000           100            100            0.027676085    3.0445804e-21  0              0.083028254    1207184.6      0              5.8290622e+13 -1.5            0              3.3124652    
    200000   6000           100            100            0.011028139    1.0648115e-21  0              0.033084417    353639.72      0              1.7075996e+13 -1.5            0              3.0461779    
    300000   6000           100            100            0.0032769265   4.5339963e-22  0              0.0098307794   51783.75       0              2.5004519e+12 -1.5            0              3.0299475    
    400000   6000           100            100            0.37030594    -1.5908001e-16  0              1.1109178      2785.3357      0              1.3449389e+11 -1.5            0              2.9967411    
    500000   6000           100            100           -0.0001407146  -4.7526406e-22  0             -0.00042214379  144.94305      0              6.9987813e+09 -1.5            0              3.0022953    
    600000   6000           100            100            0.0078939703  -3.5278772e-18  0              0.023681911    597.49166      0              2.8850734e+10 -1.5            0              2.9997433    
    700000   6000           100            100            0.019475964   -8.2905234e-18  0              0.058427891    37.850093      0              1.8276456e+09 -1.5            0              2.9995434    
    800000   6000           100            100            0.030978928   -1.3221602e-17  0              0.092936783    13.685183      0              6.6080853e+08 -1.5            0              2.9993768    
    900000   6000           100            100            0.03489723    -1.491245e-17   0              0.10469169     1.1097692      0              53586784      -1.5            0              2.9993248    
   1000000   6000           100            100            0.034095496   -1.4577523e-17  0              0.10228649     0.034786238    0              1679702.9     -1.5            0              2.999335     
   1100000   6000           100            100            0.033326917   -1.4249082e-17  0              0.099980751    0.034575565    0              1669530.3     -1.5            0              2.9993451    
   1200000   6000           100            100            0.033226944   -1.4205374e-17  0              0.099680833    0.0006230206   0              30083.435     -1.5            0              2.9993464    
   1300000   6000           100            100            0.033299794   -1.4236247e-17  0              0.099899383    0.00030612633  0              14781.745     -1.5            0              2.9993455    
   1400000   6000           100            100            0.033331976   -1.4250059e-17  0              0.099995928    6.1473998e-05  0              2968.3593     -1.5            0              2.999345     
   1500000   6000           100            100            0.033331016   -1.4249699e-17  0              0.099993047    4.0330544e-08  0              1.9474176     -1.5            0              2.999345     
   1600000   6000           100            100            0.033326596   -1.4247815e-17  0              0.099979788    1.1404904e-06  0              55.0702       -1.5            0              2.9993451    
   1700000   6000           100            100            0.033325557   -1.4247366e-17  0              0.09997667     6.5132268e-08  0              3.1450041     -1.5            0              2.9993451    
   1800000   6000           100            100            0.033325855   -1.4247492e-17  0              0.099977566    5.0491892e-09  0              0.24380728    -1.5            0              2.9993451    
   1900000   6000           100            100            0.033326068   -1.4247583e-17  0              0.099978205    2.6782549e-09  0              0.12932334    -1.5            0              2.9993451    
   2000000   6000           100            100            0.033326086   -1.4247591e-17  0              0.099978258    1.9610354e-11  0              0.00094691382 -1.5            0              2.9993451    
   2100000   6000           100            100            0.033326063   -1.4247581e-17  0              0.099978189    3.0632036e-11  0              0.0014791114  -1.5            0              2.9993451    
   2200000   6000           100            100            0.033326055   -1.4247578e-17  0              0.099978164    4.128833e-12   0              0.00019936657 -1.5            0              2.9993451    
   2300000   6000           100            100            0.033326055   -1.4247578e-17  0              0.099978166    3.290214e-14   0              1.5887266e-06 -1.5            0              2.9993451    
[...]
   2900000   6000           100            100            0.033326843   -3.6099957e-18  0              0.099980529    1.3099209e-17  0              6.3251395e-10 -1.5            0              2.9994159    
   3000000   6000           100            100            0.033326843   -3.6099957e-18  0              0.099980529    9.5962972e-18  0              4.6337085e-10 -1.5            0              2.9994159    
Loop time of 821.134 on 2 procs for 3000000 steps with 4000 atoms

Performance: 3156609.174 ns/day, 0.000 hours/ns, 3653.483 timesteps/s
100.0% CPU use with 2 MPI tasks x 1 OpenMP threads

MPI task timing breakdown:
Section |  min time  |  avg time  |  max time  |%varavg| %total
---------------------------------------------------------------
Pair    | 373.91     | 374.45     | 374.99     |   2.8 | 45.60
Neigh   | 1.9705     | 1.9711     | 1.9716     |   0.0 |  0.24
Comm    | 17.117     | 17.748     | 18.379     |  15.0 |  2.16
Output  | 0.49946    | 0.49948    | 0.4995     |   0.0 |  0.06
Modify  | 384.53     | 384.67     | 384.82     |   0.7 | 46.85
Other   |            | 41.8       |            |       |  5.09

Nlocal:           2000 ave        2000 max        2000 min
Histogram: 2 0 0 0 0 0 0 0 0 0
Nghost:              6 ave           6 max           6 min
Histogram: 2 0 0 0 0 0 0 0 0 0
Neighs:           3000 ave        3000 max        3000 min
Histogram: 2 0 0 0 0 0 0 0 0 0

Total # of neighbors = 6000
Ave neighs/atom = 1.5
Neighbor list builds = 174
Dangerous builds = 0
  using 1 OpenMP thread(s) per MPI task
Lattice spacing in x,y,z = 3 3 3
Created orthogonal box = (-3000 -50 -50) to (3000 50 50)
  2 by 1 by 1 MPI processor grid
Created 2000 atoms
  using lattice units in orthogonal box = (-3000 -50 -50) to (3000 50 50)
  create_atoms CPU = 0.001 seconds
Lattice spacing in x,y,z = 3 3 3
Created 2000 atoms
  using lattice units in orthogonal box = (-3000 -50 -50) to (3000 50 50)
  create_atoms CPU = 0.001 seconds
Setting atom values ...
  2000 settings made for diameter
Setting atom values ...
  2000 settings made for mass
Setting atom values ...
  2000 settings made for diameter
Setting atom values ...
  2000 settings made for mass
2000 atoms in group substrate
2000 atoms in group slider1
  1 rigid bodies with 2000 atoms
Generated 0 of 1 mixed pair_coeff terms from geometric mixing rule
Neighbor list info ...
  update every 1 steps, delay 0 steps, check yes
  max neighbors/atom: 2000, page size: 100000
  master list distance cutoff = 3.1
  ghost atom cutoff = 3.1
  binsize = 1.55, bins = 3871 65 65
  1 neighbor lists, perpetual/occasional/extra = 1 0 0
  (1) pair granular, perpetual
      attributes: half, newton on, size, history
      pair build: half/size/bin/newton
      stencil: half/bin/3d
      bin: standard
Setting up Verlet run ...
  Unit style    : micro
  Current step  : 0
  Time step     : 1e-05
Per MPI rank memory allocation (min/avg/max) = 49.16 | 49.16 | 49.16 Mbytes
   Step           Lx             Ly             Lz           Press           Pxx            Pyy            Pzz           KinEng         PotEng          Temp          c_1[1]         c_1[2]         c_1[3]    
         0   6000           100            100            0              0              0              0              0              0              0             -1.5            0              6            
    100000   6000           100            100            0.02771499     2.9816953e-21  0              0.08314497     1209723.5      0              5.8413217e+13 -1.5            0              3.3114684    
    200000   6000           100            100            0.011110936   -3.5280861e-22  0              0.033332809    357757.95      0              1.7274851e+13 -1.5            0              3.0443949    
    300000   6000           100            100            0.0034107148   5.9194043e-22  0              0.010232144    55461.883      0              2.6780559e+12 -1.5            0              3.0284285    
    400000   6000           100            100            0.23535151    -2.3117186e-17  0              0.70605453     17782.216      0              8.5863957e+11 -1.5            0              2.9978558    
    500000   6000           100            100            0.00040165935  9.348182e-23   0              0.0012049781   1099.4683      0              5.3089391e+10 -1.5            0              3.0019749    
    600000   6000           100            100            0.010278693   -1.0038088e-18  0              0.030836078    752.79699      0              3.6349873e+10 -1.5            0              2.9997298    
    700000   6000           100            100            0.051349535   -4.7990891e-18  0              0.1540486      29.719994      0              1.4350721e+09 -1.5            0              2.9992269    
    800000   6000           100            100            0.030836952   -2.8862158e-18  0              0.092510856    14.904604      0              7.1968999e+08 -1.5            0              2.9994498    
    900000   6000           100            100            0.031083839   -2.914407e-18   0              0.093251518    0.44049269     0              21269816      -1.5            0              2.9994464    
   1000000   6000           100            100            0.032437016   -3.0421075e-18  0              0.097311049    0.011968106    0              577897.03     -1.5            0              2.9994304    
   1100000   6000           100            100            0.033112945   -3.1053387e-18  0              0.099338836    0.021677324    0              1046720.4     -1.5            0              2.9994225    
   1200000   6000           100            100            0.033320653   -3.124624e-18   0              0.099961959    0.0048566656   0              234511        -1.5            0              2.9994201    
   1300000   6000           100            100            0.033351113   -3.1273917e-18  0              0.10005334     0.00042555933  0              20548.737     -1.5            0              2.9994197    
   1400000   6000           100            100            0.033341513   -3.1264661e-18  0              0.10002454     7.4047569e-06  0              357.54921     -1.5            0              2.9994199    
   1500000   6000           100            100            0.033332087   -3.1255792e-18  0              0.09999626     1.2662299e-06  0              61.141712     -1.5            0              2.99942      
   1600000   6000           100            100            0.033327956   -3.1251934e-18  0              0.099983868    9.9026132e-07  0              47.816175     -1.5            0              2.99942      
   1700000   6000           100            100            0.033326823   -3.1250885e-18  0              0.099980469    1.7776214e-07  0              8.5834974     -1.5            0              2.99942      
   1800000   6000           100            100            0.033326713   -3.1250787e-18  0              0.099980139    1.239894e-08   0              0.59870044    -1.5            0              2.99942      
   1900000   6000           100            100            0.033326797   -3.1250867e-18  0              0.099980392    7.7330503e-11  0              0.0037340132  -1.5            0              2.99942      
   2000000   6000           100            100            0.03332686    -3.1250926e-18  0              0.099980579    8.9110211e-11  0              0.0043028132  -1.5            0              2.99942      
   2100000   6000           100            100            0.033326884   -3.1250949e-18  0              0.099980653    4.2566154e-11  0              0.0020553672  -1.5            0              2.99942      
   2200000   6000           100            100            0.03332689    -3.1250954e-18  0              0.099980671    6.2384809e-12  0              0.00030123392 -1.5            0              2.99942      
   2300000   6000           100            100            0.03332689    -3.1250955e-18  0              0.099980671    3.3400449e-13  0              1.6127881e-05 -1.5            0              2.99942      
   2400000   6000           100            100            0.03332689    -3.1250954e-18  0              0.099980669    1.9387774e-17  0              9.3616623e-10 -1.5            0              2.99942      
   2500000   6000           100            100            0.033326889   -3.1250953e-18  0              0.099980668    5.3625578e-15  0              2.5893872e-07 -1.5            0              2.99942      
   2600000   6000           100            100            0.033326889   -3.1250953e-18  0              0.099980668    1.6737765e-15  0              8.0820677e-08 -1.5            0              2.99942      
   2700000   6000           100            100            0.033326889   -3.1250953e-18  0              0.099980668    1.20082e-16    0              5.7983302e-09 -1.5            0              2.99942      
   2800000   6000           100            100            0.033326889   -3.1250953e-18  0              0.099980668    2.6075864e-17  0              1.2591101e-09 -1.5            0              2.99942      
   2900000   6000           100            100            0.033326889   -3.1250953e-18  0              0.099980668    2.7023845e-19  0              1.3048848e-11 -1.5            0              2.99942      
   3000000   6000           100            100            0.033326889   -3.1250954e-18  0              0.099980668    2.7591264e-18  0              1.3322834e-10 -1.5            0              2.99942      
Loop time of 811.701 on 2 procs for 3000000 steps with 4000 atoms

Performance: 3193295.507 ns/day, 0.000 hours/ns, 3695.944 timesteps/s
100.0% CPU use with 2 MPI tasks x 1 OpenMP threads

MPI task timing breakdown:
Section |  min time  |  avg time  |  max time  |%varavg| %total
---------------------------------------------------------------
Pair    | 365.66     | 366.69     | 367.73     |   5.4 | 45.18
Neigh   | 1.9448     | 1.9451     | 1.9454     |   0.0 |  0.24
Comm    | 15.116     | 16.196     | 17.275     |  26.8 |  2.00
Output  | 0.48912    | 0.48914    | 0.48917    |   0.0 |  0.06
Modify  | 384.75     | 384.9      | 385.04     |   0.7 | 47.42
Other   |            | 41.48      |            |       |  5.11

Nlocal:           2000 ave        2000 max        2000 min
Histogram: 2 0 0 0 0 0 0 0 0 0
Nghost:              6 ave           6 max           6 min
Histogram: 2 0 0 0 0 0 0 0 0 0
Neighs:           3000 ave        3000 max        3000 min
Histogram: 2 0 0 0 0 0 0 0 0 0

Total # of neighbors = 6000
Ave neighs/atom = 1.5
Neighbor list builds = 174
Dangerous builds = 0
  using 1 OpenMP thread(s) per MPI task
Lattice spacing in x,y,z = 3 3 3
Created orthogonal box = (-3000 -50 -50) to (3000 50 50)
  2 by 1 by 1 MPI processor grid
Created 2000 atoms
  using lattice units in orthogonal box = (-3000 -50 -50) to (3000 50 50)
  create_atoms CPU = 0.001 seconds
Lattice spacing in x,y,z = 3 3 3
Created 2000 atoms
  using lattice units in orthogonal box = (-3000 -50 -50) to (3000 50 50)
  create_atoms CPU = 0.001 seconds
Setting atom values ...
  2000 settings made for diameter
Setting atom values ...
  2000 settings made for mass
Setting atom values ...
  2000 settings made for diameter
Setting atom values ...
  2000 settings made for mass
2000 atoms in group substrate
2000 atoms in group slider1
  1 rigid bodies with 2000 atoms
Generated 0 of 1 mixed pair_coeff terms from geometric mixing rule
Neighbor list info ...
  update every 1 steps, delay 0 steps, check yes
  max neighbors/atom: 2000, page size: 100000
  master list distance cutoff = 3.1
  ghost atom cutoff = 3.1
  binsize = 1.55, bins = 3871 65 65
  1 neighbor lists, perpetual/occasional/extra = 1 0 0
  (1) pair granular, perpetual
      attributes: half, newton on, size, history
      pair build: half/size/bin/newton
      stencil: half/bin/3d
      bin: standard
Setting up Verlet run ...
  Unit style    : micro
  Current step  : 0
  Time step     : 1e-05
Per MPI rank memory allocation (min/avg/max) = 49.16 | 49.16 | 49.16 Mbytes
   Step           Lx             Ly             Lz           Press           Pxx            Pyy            Pzz           KinEng         PotEng          Temp          c_1[1]         c_1[2]         c_1[3]    
         0   6000           100            100            0              0              0              0              0              0              0             -1.5            0              6            
    100000   6000           100            100            0.027717267    7.5334756e-22  0              0.083151802    1209872.1      0              5.8420394e+13 -1.5            0              3.3114102    
    200000   6000           100            100            0.011115786    5.6235841e-23  0              0.033347358    357999.65      0              1.7286522e+13 -1.5            0              3.04429      
    300000   6000           100            100            0.0034185824  -2.0014108e-22  0              0.010255747    55681.035      0              2.6886379e+12 -1.5            0              3.0283372    
    400000   6000           100            100            0.21028317    -1.7434746e-17  0              0.63084952     19607.472      0              9.4677466e+11 -1.5            0              2.9980244    
    500000   6000           100            100            0.00043423739  5.3424683e-23  0              0.0013027122   1278.7035      0              6.1744015e+10 -1.5            0              3.0018936    
    600000   6000           100            100            0.0013926102  -1.5619148e-19  0              0.0041778307   440.34299      0              2.1262587e+10 -1.5            0              2.9999228    
    700000   6000           100            100            0.046764849   -3.6846262e-18  0              0.14029455     74.071914      0              3.5766676e+09 -1.5            0              2.9992774    
    800000   6000           100            100            0.03992078    -3.1388276e-18  0              0.11976234     2.7502786      0              1.3280111e+08 -1.5            0              2.9993504    
    900000   6000           100            100            0.03525153    -2.772217e-18   0              0.10575459     0.96421346     0              46558417      -1.5            0              2.9994022    
   1000000   6000           100            100            0.033730588   -2.6523818e-18  0              0.10119176     0.23334772     0              11267526      -1.5            0              2.9994196    
   1100000   6000           100            100            0.03334252    -2.6215829e-18  0              0.10002756     0.037593726    0              1815266.5     -1.5            0              2.9994241    
   1200000   6000           100            100            0.03328465    -2.6168695e-18  0              0.099853949    0.0042863471   0              206972.36     -1.5            0              2.9994248    
   1300000   6000           100            100            0.033296953   -2.6177661e-18  0              0.099890858    0.00032669358  0              15774.864     -1.5            0              2.9994246    
   1400000   6000           100            100            0.033312619   -2.6189731e-18  0              0.099937858    1.1817314e-05  0              570.61582     -1.5            0              2.9994245    
   1500000   6000           100            100            0.033321373   -2.6196542e-18  0              0.099964119    5.8155848e-09  0              0.28081378    -1.5            0              2.9994244    
   1600000   6000           100            100            0.033325121   -2.6199473e-18  0              0.099975363    2.4668389e-07  0              11.911482     -1.5            0              2.9994243    
   1700000   6000           100            100            0.03332646    -2.6200524e-18  0              0.099979379    1.0120589e-07  0              4.8868703     -1.5            0              2.9994243    
   1800000   6000           100            100            0.033326857   -2.6200837e-18  0              0.099980572    2.1207307e-08  0              1.024025      -1.5            0              2.9994243    
   1900000   6000           100            100            0.033326946   -2.6200908e-18  0              0.099980839    3.0117554e-09  0              0.14542689    -1.5            0              2.9994243    
   2000000   6000           100            100            0.033326953   -2.6200914e-18  0              0.09998086     3.0062284e-10  0              0.014516001   -1.5            0              2.9994243    
   2100000   6000           100            100            0.033326946   -2.6200909e-18  0              0.099980839    1.8715317e-11  0              0.0009036957  -1.5            0              2.9994243    
   2200000   6000           100            100            0.033326941   -2.6200905e-18  0              0.099980823    3.6632042e-13  0              1.7688302e-05 -1.5            0              2.9994243    
   2300000   6000           100            100            0.033326938   -2.6200903e-18  0              0.099980815    2.5820877e-14  0              1.2467977e-06 -1.5            0              2.9994243    
   2400000   6000           100            100            0.033326937   -2.6200902e-18  0              0.099980812    3.4273275e-14  0              1.6549338e-06 -1.5            0              2.9994243    
   2500000   6000           100            100            0.033326937   -2.6200901e-18  0              0.09998081     1.0289587e-14  0              4.9684731e-07 -1.5            0              2.9994243    
   2600000   6000           100            100            0.033326937   -2.6200901e-18  0              0.09998081     1.868495e-15   0              9.0222938e-08 -1.5            0              2.9994243    
   2700000   6000           100            100            0.033326937   -2.6200901e-18  0              0.09998081     2.3440467e-16  0              1.1318563e-08 -1.5            0              2.9994243    
   2800000   6000           100            100            0.033326937   -2.6200901e-18  0              0.09998081     1.0089465e-17  0              4.8718416e-10 -1.5            0              2.9994243    
   2900000   6000           100            100            0.033326937   -2.6200901e-18  0              0.09998081     4.9951762e-18  0              2.4119918e-10 -1.5            0              2.9994243    
   3000000   6000           100            100            0.033326937   -2.6200902e-18  0              0.09998081     1.1225234e-17  0              5.4202637e-10 -1.5            0              2.9994243    
Loop time of 803.477 on 2 procs for 3000000 steps with 4000 atoms

Performance: 3225980.473 ns/day, 0.000 hours/ns, 3733.774 timesteps/s
100.0% CPU use with 2 MPI tasks x 1 OpenMP threads

MPI task timing breakdown:
Section |  min time  |  avg time  |  max time  |%varavg| %total
---------------------------------------------------------------
Pair    | 362.92     | 363.63     | 364.34     |   3.7 | 45.26
Neigh   | 1.6591     | 1.6608     | 1.6624     |   0.1 |  0.21
Comm    | 14.666     | 15.433     | 16.201     |  19.5 |  1.92
Output  | 0.48633    | 0.48635    | 0.48637    |   0.0 |  0.06
Modify  | 382.7      | 382.75     | 382.8      |   0.2 | 47.64
Other   |            | 39.52      |            |       |  4.92

Nlocal:           2000 ave        2000 max        2000 min
Histogram: 2 0 0 0 0 0 0 0 0 0
Nghost:              6 ave           6 max           6 min
Histogram: 2 0 0 0 0 0 0 0 0 0
Neighs:           3000 ave        3000 max        3000 min
Histogram: 2 0 0 0 0 0 0 0 0 0

Total # of neighbors = 6000
Ave neighs/atom = 1.5
Neighbor list builds = 174
Dangerous builds = 0
  using 1 OpenMP thread(s) per MPI task
Total wall time: 8:18:18
