ITEM: TIMESTEP
2300000
ITEM: NUMBER OF ATOMS
51
ITEM: BOX BOUNDS pp pp pp
-8.0549999999999997e+01 8.0549999999999997e+01
-1.0000000000000000e+02 1.0000000000000000e+02
-1.0000000000000000e+02 1.0000000000000000e+02
ITEM: ATOMS id type diameter mass xu yu zu fx fy fz
1 1 3 31.1018 -80.55 0 0 0 0 0
2 1 3 31.1018 -75.18 0 0 0 0 0
3 1 3 31.1018 -69.81 0 0 0 0 0
4 1 3 31.1018 -64.44 0 0 0 0 0
5 1 3 31.1018 -59.07 0 0 0 0 0
6 1 3 31.1018 -53.7 0 0 0 0 0
7 1 3 31.1018 -48.33 0 0 0 0 0
8 1 3 31.1018 -42.96 0 0 0 0 0
9 1 3 31.1018 -37.59 0 0 0 0 0
10 1 3 31.1018 -32.22 0 0 0 0 0
11 1 3 31.1018 -26.85 0 0 0 0 0
12 1 3 31.1018 -21.48 0 0 0 0 0
13 1 3 31.1018 -16.11 0 0 0 0 0
14 1 3 31.1018 -10.74 0 0 0 0 0
15 1 3 31.1018 -5.37 0 0 0 0 0
16 1 3 31.1018 0 0 0 0 0 0
17 1 3 31.1018 5.37 0 0 0 0 0
18 1 3 31.1018 10.74 0 0 0 0 0
19 1 3 31.1018 16.11 0 0 0 0 0
20 1 3 31.1018 21.48 0 0 0 0 0
21 1 3 31.1018 26.85 0 0 0 0 0
22 1 3 31.1018 32.22 0 0 0 0 0
23 1 3 31.1018 37.59 0 0 0 0 0
24 1 3 31.1018 42.96 0 0 0 0 0
25 1 3 31.1018 48.33 0 0 0 0 0
26 1 3 31.1018 53.7 0 0 0 0 0
27 1 3 31.1018 59.07 0 0 0 0 0
28 1 3 31.1018 64.44 0 0 0 0 0
29 1 3 31.1018 69.81 0 0 0 0 0
30 1 3 31.1018 75.18 0 0 0 0 0
31 2 3 31.1018 -30 0 2.99556 0 0 -1000
32 2 3 31.1018 -27 0 2.99556 -54.6576 0 129.269
33 2 3 31.1018 -24 0 2.99556 0 0 -1000
34 2 3 31.1018 -21 0 2.99556 0 0 -1000
35 2 3 31.1018 -18 0 2.99556 0 0 -1000
36 2 3 31.1018 -15 0 2.99556 0 0 -1000
37 2 3 31.1018 -12 0 2.99556 0 0 -1000
38 2 3 31.1018 -9 0 2.99556 0 0 -1000
39 2 3 31.1018 -6 0 2.99556 0 0 -1000
40 2 3 31.1018 -3 0 2.99556 0 0 -1000
41 2 3 31.1018 2.10556e-17 0 2.99556 9.16283e-14 0 17741.5
42 2 3 31.1018 3 0 2.99556 0 0 -1000
43 2 3 31.1018 6 0 2.99556 0 0 -1000
44 2 3 31.1018 9 0 2.99556 0 0 -1000
45 2 3 31.1018 12 0 2.99556 0 0 -1000
46 2 3 31.1018 15 0 2.99556 0 0 -1000
47 2 3 31.1018 18 0 2.99556 0 0 -1000
48 2 3 31.1018 21 0 2.99556 0 0 -1000
49 2 3 31.1018 24 0 2.99556 0 0 -1000
50 2 3 31.1018 27 0 2.99556 54.6576 0 129.269
51 2 3 31.1018 30 0 2.99556 0 0 -1000
