LAMMPS (23 Jun 2022 - Update 1)
  using 1 OpenMP thread(s) per MPI task
variable num index 0 1 2 3 4 5 6 7 8 9 10 11 12 13 14 15 16 17 18 19 20 21 22 23 24 25 26 27 28 29 30 31 32 33 34 35 36 37 38 39 40 41 42 43 44 45 46 47 48 49 50 51 52 53 54 55 56 57 58 59 60 61 62 63 64 65 66 67 68 69 70 71 72 73 74 75 76 77 78 79 80 81 82 83 84 85 86 87 88 89 90 91 92 93 94 95 96 97 98 99

label startloop

include granular.in
### Simulation of contact between two chain

##################### Simulation setup ####################

units micro                              # units
dimension	3                            # dimension
boundary	p p p                        # boundary condition p: periodic
atom_style	sphere                       # atom style
#processors * * 1

####################### Parameter ##################################

variable ind equal ${num}
variable ind equal 0

#variable lat0 equal 1                    #
variable lat1 equal 3+(151*0.01)+(v_ind*0.01)  # .491+(v_ind*0.001)       # Lattice distance of bottom chain
variable lat2 equal 3                    # Lattice distance of top chain
variable d1 equal 3                      # Diamter of particle at bottom chain
variable d2 equal 3                      # Diamter of particle at top chain
#variable d3 equal 1                      # Diamter of supporting particle

variable n2e1 equal 10*v_lat2             # Half length of top chain. 1500 is number of particles
variable n1e1 equal 1.5*v_n2e1*(v_lat1/v_lat2)             # Half length of bottom chain, which is 1.5 time larger than top chain
variable n1e2 equal -v_n1e1
variable n2e2 equal -v_n2e1
#variable lenspr equal -(v_n2e1+100)           # length of the spring connecting top chain and supporting particle
#variable lenspr1 equal -v_lenspr-0.1         # Position of supporting particle upper bound
#variable lenspr2 equal -v_lenspr+0.1         # Position of supporting particle lower bound

variable den equal 2.2 #grams/cm^3      # micrometer^3=10^-12 cm^3 Density of materials

variable V1 equal (1/6)*PI*(v_d1^3)     # Volume of particle 1
variable V2 equal (1/6)*PI*(v_d2^3)     # Volume of particle 2
#variable V3 equal (1/6)*PI*(v_d3^3)     # Volume of particle 3

variable mass1 equal v_den*v_V1  # Mass of particle 1 (picograms)
variable mass2 equal v_den*v_V2  # Mass of particle 2
#variable mass3 equal v_den*v_V3  # Mass of particle 3

# E GPa to picogram/(micrometer-microsecond^2)= 10^3 Pa= 10^-6 GPa
# Force unit(picogram-micrometer/microsecond^2)=10^-9 N= 1nN
# Spring stiffness (force/distance) 10^-3 N/m

variable K0 equal (1500/50)*(10^5)             # Spring stiffness conneting top chain and sup particle
variable E equal 100*(10^6)                    # Young's Modulus using for Hertz/material model
variable PR equal 0.3                          # Poisson's ratio using for Hertz/material model
variable Fn equal -1000                        # Force apply to each particles in top chain
variable dt equal 0.00001                      # Time step units microsecond
variable lgv equal 0.5                         #damping for langevin thermostat for slider


################### Creating the model #################################
lattice sc ${lat1}                                                               # Bottom chain type1
lattice sc 4.51                                                               
Lattice spacing in x,y,z = 4.51 4.51 4.51

region box block ${n1e2} ${n1e1} -100 100 -100 100 units box
region box block -67.65 ${n1e1} -100 100 -100 100 units box
region box block -67.65 67.65 -100 100 -100 100 units box
region substrate block ${n1e2} ${n1e1} -0.5 0.5 0 0.5 units box
region substrate block -67.65 ${n1e1} -0.5 0.5 0 0.5 units box
region substrate block -67.65 67.65 -0.5 0.5 0 0.5 units box

create_box 2 box
Created orthogonal box = (-67.65 -100 -100) to (67.65 100 100)
  1 by 2 by 2 MPI processor grid
create_atoms 1 region substrate
Created 30 atoms
  using lattice units in orthogonal box = (-67.65 -100 -100) to (67.65 100 100)
  create_atoms CPU = 0.001 seconds

lattice sc ${lat2}                                                             # Top chain type2
lattice sc 3                                                             
Lattice spacing in x,y,z = 3 3 3

region slider1 block ${n2e2} ${n2e1} -0.1 0.1 5.9 6.1 units box
region slider1 block -30 ${n2e1} -0.1 0.1 5.9 6.1 units box
region slider1 block -30 30 -0.1 0.1 5.9 6.1 units box

create_atoms 2 region slider1
Created 21 atoms
  using lattice units in orthogonal box = (-67.65 -100 -100) to (67.65 100 100)
  create_atoms CPU = 0.005 seconds

#lattice sc ${lat0}                                                             # Supporting particle type3

#region support block ${lenspr1} ${lenspr2} -0.1 0.1 7.9 8.1 units box

#create_atoms 3 region support

set type 1 diameter ${d1}                    # Set mass and diameter for each particles type
set type 1 diameter 3                    
Setting atom values ...
  30 settings made for diameter
set type 1 mass ${mass1}
set type 1 mass 31.101767270539
Setting atom values ...
  30 settings made for mass
set type 2 diameter ${d2}
set type 2 diameter 3
Setting atom values ...
  21 settings made for diameter
set type 2 mass ${mass2}
set type 2 mass 31.101767270539
Setting atom values ...
  21 settings made for mass
#set type 3 diameter ${d3}
#set type 3 mass ${mass3}

group substrate region substrate           # Define gorup
30 atoms in group substrate
group slider1 region slider1
21 atoms in group slider1
#group support region support
#group substrate_slider union substrate slider1

########################## Potential ###################################
pair_style granular
pair_coeff 1 1 hertz/material 0.00000001 0.001 ${PR} tangential mindlin NULL 0.1 0.01 damping viscoelastic              ########### set E between each particle in same type is small to neglect their interaction
pair_coeff 1 1 hertz/material 0.00000001 0.001 0.3 tangential mindlin NULL 0.1 0.01 damping viscoelastic              
pair_coeff 2 2 hertz/material 0.00000001 0.001 ${PR} tangential mindlin NULL 0.1 0.01 damping viscoelastic
pair_coeff 2 2 hertz/material 0.00000001 0.001 0.3 tangential mindlin NULL 0.1 0.01 damping viscoelastic
#pair_coeff 3 3 hertz/material ${E} 0.001 ${PR} tangential mindlin NULL 0.1 0.01 damping viscoelastic
pair_coeff 1 2 hertz/material ${E} 0.001 ${PR} tangential mindlin NULL 0.1 0.01 damping viscoelastic
pair_coeff 1 2 hertz/material 100000000 0.001 ${PR} tangential mindlin NULL 0.1 0.01 damping viscoelastic
pair_coeff 1 2 hertz/material 100000000 0.001 0.3 tangential mindlin NULL 0.1 0.01 damping viscoelastic
#pair_coeff 1 3 hertz/material 0.00000001 0.001 ${PR} tangential mindlin NULL 0.1 0.01 damping viscoelastic
#pair_coeff 2 3 hertz/material 0.00000001 0.001 ${PR} tangential mindlin NULL 0.1 0.01 damping viscoelastic
comm_modify     vel yes
neigh_modify    delay 0 every 1 check yes

### Compute properties ###

compute 1 slider1 com                      # Compute the center of mass of top chain
#compute 2 support com                      # Compute the center of mass of supporting particle

variable p0 equal "step"

variable slider_z equal "c_1[3]"          # output the position of top chain in z-direction

#variable distance equal "c_2[1]-c_1[1]"   # Distance between COM of top chain and supporting particle

thermo 100000
thermo_style custom step lx ly lz press pxx pyy pzz ke pe temp c_1[1] c_1[2] c_1[3] #c_2[1] c_2[2] c_2[3] v_distance

############### Fix ##################


############## Equilibrium the system with apply force ########################

fix force_slider1 slider1 setforce NULL 0 NULL                                # Fix top chain not to move in y-direction

fix f_sub substrate freeze                                                    # Freeze the bottom chain

fix rigid_top slider1 rigid/nve group 1 slider1 langevin 0 0 ${lgv} 6987532   # NVE+langevin
fix rigid_top slider1 rigid/nve group 1 slider1 langevin 0 0 0.5 6987532   
  1 rigid bodies with 21 atoms

fix add slider1 addforce 0 0 ${Fn} every 1                                    # Add force to top layer
fix add slider1 addforce 0 0 -1000 every 1                                    

timestep ${dt}
timestep 1e-05

# fix  nve_1 slider1 nve

dump 		D1 all custom 100000 Equi_${num}_*.dump id type diameter mass xu yu zu fx fy fz
dump 		D1 all custom 100000 Equi_0_*.dump id type diameter mass xu yu zu fx fy fz

run 3000000
Generated 0 of 1 mixed pair_coeff terms from geometric mixing rule
Neighbor list info ...
  update every 1 steps, delay 0 steps, check yes
  max neighbors/atom: 2000, page size: 100000
  master list distance cutoff = 3.1
  ghost atom cutoff = 3.1
  binsize = 1.55, bins = 88 130 130
  1 neighbor lists, perpetual/occasional/extra = 1 0 0
  (1) pair granular, perpetual
      attributes: half, newton on, size, history
      pair build: half/size/bin/newton
      stencil: half/bin/3d
      bin: standard
Per MPI rank memory allocation (min/avg/max) = 14.44 | 17.91 | 19.07 Mbytes
   Step           Lx             Ly             Lz           Press           Pxx            Pyy            Pzz           KinEng         PotEng          Temp          c_1[1]         c_1[2]         c_1[3]    
         0   135.3          200            200            0              0              0              0              0              0              0              2.6109412e-16  0              6            
    100000   135.3          200            200            0.0031867357   5.6946132e-40  0              0.0095602071   12463.605      0              6.0182289e+10  2.6109412e-16  0              3.3226171    
    200000   135.3          200            200            0.001191148    9.1137223e-39  0              0.003573444    3302.7596      0              1.5947844e+10  2.6109412e-16  0              3.0655668    
    300000   135.3          200            200            0.00022021368 -1.8208772e-38  0              0.00066064103  206.68931      0              9.9802873e+08  2.6109412e-16  0              3.0438513    
    400000   135.3          200            200           -1.4100216e-05 -2.2764284e-39  0             -4.2300647e-05  1.1155741      0              5386707.9      2.6109412e-16  0              3.0111287    
    500000   135.3          200            200           -3.7889212e-05  4.5555863e-39  0             -0.00011366764  8.4563272      0              40832578       2.6109412e-16  0              3.0009574    
    600000   135.3          200            200            0.0066467701   0.00055799403  0              0.019382316    3.8812549      0              18741191       2.6109412e-16  0              2.9978978    
    700000   135.3          200            200            0.0034149387   0.00040754032  0              0.0098372759   0.80121262     0              3868769        2.6109412e-16  0              2.9985729    
    800000   135.3          200            200            0.0039592503   0.00041577188  0              0.011461979    0.13668229     0              659989.85      2.6109412e-16  0              2.9984502    
    900000   135.3          200            200            0.0041023707   0.00041738732  0              0.011889725    0.014299444    0              69046.899      2.6109412e-16  0              2.9984165    
   1000000   135.3          200            200            0.0039668434   0.00041591784  0              0.011484612    0.00098833381  0              4772.3103      2.6109412e-16  0              2.9984475    
   1100000   135.3          200            200            0.0040397754   0.00041673248  0              0.011702594    2.9343359e-05  0              141.68858      2.6109412e-16  0              2.9984309    
   1200000   135.3          200            200            0.0040083597   0.00041639209  0              0.011608687    3.0887276e-07  0              1.491436       2.6109412e-16  0              2.998438     
   1300000   135.3          200            200            0.0040199618   0.00041651877  0              0.011643366    1.2378643e-06  0              5.9772036      2.6109412e-16  0              2.9984354    
   1400000   135.3          200            200            0.0040162757   0.00041647892  0              0.011632348    4.6993635e-07  0              2.2691545      2.6109412e-16  0              2.9984362    
   1500000   135.3          200            200            0.0040172262   0.00041648912  0              0.011635189    1.0129492e-07  0              0.4891169      2.6109412e-16  0              2.998436     
   1600000   135.3          200            200            0.0040170749   0.00041648755  0              0.011634737    1.5596645e-08  0              0.075310616    2.6109412e-16  0              2.998436     
   1700000   135.3          200            200            0.0040170498   0.00041648724  0              0.011634662    1.7925849e-09  0              0.0086557511   2.6109412e-16  0              2.998436     
   1800000   135.3          200            200            0.0040170875   0.00041648766  0              0.011634775    1.4532641e-10  0              0.00070172922  2.6109412e-16  0              2.998436     
   1900000   135.3          200            200            0.0040170651   0.00041648742  0              0.011634708    6.3254959e-12  0              3.0543556e-05  2.6109412e-16  0              2.998436     
   2000000   135.3          200            200            0.0040170753   0.00041648753  0              0.011634738    7.8736119e-15  0              3.8018854e-08  2.6109412e-16  0              2.998436     
   2100000   135.3          200            200            0.0040170713   0.00041648749  0              0.011634727    7.8115776e-14  0              3.7719313e-07  2.6109412e-16  0              2.998436     
   2200000   135.3          200            200            0.0040170727   0.0004164875   0              0.01163473     4.1269543e-14  0              1.9927585e-07  2.6109412e-16  0              2.998436     
   2300000   135.3          200            200            0.0040170723   0.0004164875   0              0.011634729    1.0219792e-14  0              4.934772e-08   2.6109412e-16  0              2.998436     
   2400000   135.3          200            200            0.0040170724   0.0004164875   0              0.01163473     1.732846e-15   0              8.3672933e-09  2.6109412e-16  0              2.998436     
   2500000   135.3          200            200            0.0040170724   0.0004164875   0              0.01163473     2.1666676e-16  0              1.0462063e-09  2.6109412e-16  0              2.998436     
   2600000   135.3          200            200            0.0040170724   0.0004164875   0              0.01163473     1.9065559e-17  0              9.2060759e-11  2.6109412e-16  0              2.998436     
   2700000   135.3          200            200            0.0040170724   0.0004164875   0              0.01163473     2.2456193e-18  0              1.0843292e-11  2.6109412e-16  0              2.998436     
   2800000   135.3          200            200            0.0040170724   0.0004164875   0              0.01163473     5.7514239e-20  0              2.7771568e-13  2.6109412e-16  0              2.998436     
   2900000   135.3          200            200            0.0040170724   0.0004164875   0              0.01163473     2.317237e-20   0              1.1189108e-13  2.6109412e-16  0              2.998436     
   3000000   135.3          200            200            0.0040170724   0.0004164875   0              0.01163473     3.386659e-20   0              1.6352964e-13  2.6109412e-16  0              2.998436     
Loop time of 66.5431 on 4 procs for 3000000 steps with 51 atoms

Performance: 38952177.174 ns/day, 0.000 hours/ns, 45083.538 timesteps/s
100.0% CPU use with 4 MPI tasks x 1 OpenMP threads

MPI task timing breakdown:
Section |  min time  |  avg time  |  max time  |%varavg| %total
---------------------------------------------------------------
Pair    | 0.36836    | 2.0118     | 6.7534     | 193.1 |  3.02
Neigh   | 0.072215   | 0.072858   | 0.074474   |   0.3 |  0.11
Comm    | 26.259     | 32.729     | 38.878     |  82.5 | 49.19
Output  | 0.060127   | 0.060226   | 0.060298   |   0.0 |  0.09
Modify  | 16.013     | 21.931     | 29.32      | 119.1 | 32.96
Other   |            | 9.737      |            |       | 14.63

Nlocal:          12.75 ave          51 max           0 min
Histogram: 3 0 0 0 0 0 0 0 0 1
Nghost:          39.25 ave          52 max           1 min
Histogram: 1 0 0 0 0 0 0 0 0 3
Neighs:           6.75 ave          27 max           0 min
Histogram: 3 0 0 0 0 0 0 0 0 1

Total # of neighbors = 27
Ave neighs/atom = 0.52941176
Neighbor list builds = 168
Dangerous builds = 0

undump D1

############ Add spring between top chain to supp particle and then equilibrium  ###########

#fix sp1 support spring couple slider1 ${K0} ${lenspr} NULL NULL 0                                 # Add spring

#dump 		D2 all custom 100000 add_${num}*.dump id type diameter mass xu yu zu

#fix add1 all print 10 "${p0} ${distance} ${slider_z}" file add_distance_${num}.txt screen no      # out put step, distance(spring length), z-position of top chain

#run 1000000

#undump D2

#unfix add1

########## Pulling the supporting particle with constant velocity #############

#fix m1 support move linear 0.1 0 0 units box                                                      # apply constant velocity to supporting particles along x-direction V=0.1m/s

#fix move1 all print 100 "${p0} ${distance} ${slider_z}" file move_distance_${num}.txt screen no

#dump 		1 all custom 50000 move_${num}_*.dump id type diameter mass xu yu zu

#run 1000000

clear
  using 1 OpenMP thread(s) per MPI task

next num

jump SELF startloop

include granular.in
### Simulation of contact between two chain

##################### Simulation setup ####################

units micro                              # units
dimension	3                            # dimension
boundary	p p p                        # boundary condition p: periodic
atom_style	sphere                       # atom style
#processors * * 1

####################### Parameter ##################################

variable ind equal ${num}
variable ind equal 1

#variable lat0 equal 1                    #
variable lat1 equal 3+(151*0.01)+(v_ind*0.01)  # .491+(v_ind*0.001)       # Lattice distance of bottom chain
variable lat2 equal 3                    # Lattice distance of top chain
variable d1 equal 3                      # Diamter of particle at bottom chain
variable d2 equal 3                      # Diamter of particle at top chain
#variable d3 equal 1                      # Diamter of supporting particle

variable n2e1 equal 10*v_lat2             # Half length of top chain. 1500 is number of particles
variable n1e1 equal 1.5*v_n2e1*(v_lat1/v_lat2)             # Half length of bottom chain, which is 1.5 time larger than top chain
variable n1e2 equal -v_n1e1
variable n2e2 equal -v_n2e1
#variable lenspr equal -(v_n2e1+100)           # length of the spring connecting top chain and supporting particle
#variable lenspr1 equal -v_lenspr-0.1         # Position of supporting particle upper bound
#variable lenspr2 equal -v_lenspr+0.1         # Position of supporting particle lower bound

variable den equal 2.2 #grams/cm^3      # micrometer^3=10^-12 cm^3 Density of materials

variable V1 equal (1/6)*PI*(v_d1^3)     # Volume of particle 1
variable V2 equal (1/6)*PI*(v_d2^3)     # Volume of particle 2
#variable V3 equal (1/6)*PI*(v_d3^3)     # Volume of particle 3

variable mass1 equal v_den*v_V1  # Mass of particle 1 (picograms)
variable mass2 equal v_den*v_V2  # Mass of particle 2
#variable mass3 equal v_den*v_V3  # Mass of particle 3

# E GPa to picogram/(micrometer-microsecond^2)= 10^3 Pa= 10^-6 GPa
# Force unit(picogram-micrometer/microsecond^2)=10^-9 N= 1nN
# Spring stiffness (force/distance) 10^-3 N/m

variable K0 equal (1500/50)*(10^5)             # Spring stiffness conneting top chain and sup particle
variable E equal 100*(10^6)                    # Young's Modulus using for Hertz/material model
variable PR equal 0.3                          # Poisson's ratio using for Hertz/material model
variable Fn equal -1000                        # Force apply to each particles in top chain
variable dt equal 0.00001                      # Time step units microsecond
variable lgv equal 0.5                         #damping for langevin thermostat for slider


################### Creating the model #################################
lattice sc ${lat1}                                                               # Bottom chain type1
lattice sc 4.52                                                               
Lattice spacing in x,y,z = 4.52 4.52 4.52

region box block ${n1e2} ${n1e1} -100 100 -100 100 units box
region box block -67.8 ${n1e1} -100 100 -100 100 units box
region box block -67.8 67.8 -100 100 -100 100 units box
region substrate block ${n1e2} ${n1e1} -0.5 0.5 0 0.5 units box
region substrate block -67.8 ${n1e1} -0.5 0.5 0 0.5 units box
region substrate block -67.8 67.8 -0.5 0.5 0 0.5 units box

create_box 2 box
Created orthogonal box = (-67.8 -100 -100) to (67.8 100 100)
  1 by 2 by 2 MPI processor grid
create_atoms 1 region substrate
Created 30 atoms
  using lattice units in orthogonal box = (-67.8 -100 -100) to (67.8 100 100)
  create_atoms CPU = 0.000 seconds

lattice sc ${lat2}                                                             # Top chain type2
lattice sc 3                                                             
Lattice spacing in x,y,z = 3 3 3

region slider1 block ${n2e2} ${n2e1} -0.1 0.1 5.9 6.1 units box
region slider1 block -30 ${n2e1} -0.1 0.1 5.9 6.1 units box
region slider1 block -30 30 -0.1 0.1 5.9 6.1 units box

create_atoms 2 region slider1
Created 21 atoms
  using lattice units in orthogonal box = (-67.8 -100 -100) to (67.8 100 100)
  create_atoms CPU = 0.003 seconds

#lattice sc ${lat0}                                                             # Supporting particle type3

#region support block ${lenspr1} ${lenspr2} -0.1 0.1 7.9 8.1 units box

#create_atoms 3 region support

set type 1 diameter ${d1}                    # Set mass and diameter for each particles type
set type 1 diameter 3                    
Setting atom values ...
  30 settings made for diameter
set type 1 mass ${mass1}
set type 1 mass 31.101767270539
Setting atom values ...
  30 settings made for mass
set type 2 diameter ${d2}
set type 2 diameter 3
Setting atom values ...
  21 settings made for diameter
set type 2 mass ${mass2}
set type 2 mass 31.101767270539
Setting atom values ...
  21 settings made for mass
#set type 3 diameter ${d3}
#set type 3 mass ${mass3}

group substrate region substrate           # Define gorup
30 atoms in group substrate
group slider1 region slider1
21 atoms in group slider1
#group support region support
#group substrate_slider union substrate slider1

########################## Potential ###################################
pair_style granular
pair_coeff 1 1 hertz/material 0.00000001 0.001 ${PR} tangential mindlin NULL 0.1 0.01 damping viscoelastic              ########### set E between each particle in same type is small to neglect their interaction
pair_coeff 1 1 hertz/material 0.00000001 0.001 0.3 tangential mindlin NULL 0.1 0.01 damping viscoelastic              
pair_coeff 2 2 hertz/material 0.00000001 0.001 ${PR} tangential mindlin NULL 0.1 0.01 damping viscoelastic
pair_coeff 2 2 hertz/material 0.00000001 0.001 0.3 tangential mindlin NULL 0.1 0.01 damping viscoelastic
#pair_coeff 3 3 hertz/material ${E} 0.001 ${PR} tangential mindlin NULL 0.1 0.01 damping viscoelastic
pair_coeff 1 2 hertz/material ${E} 0.001 ${PR} tangential mindlin NULL 0.1 0.01 damping viscoelastic
pair_coeff 1 2 hertz/material 100000000 0.001 ${PR} tangential mindlin NULL 0.1 0.01 damping viscoelastic
pair_coeff 1 2 hertz/material 100000000 0.001 0.3 tangential mindlin NULL 0.1 0.01 damping viscoelastic
#pair_coeff 1 3 hertz/material 0.00000001 0.001 ${PR} tangential mindlin NULL 0.1 0.01 damping viscoelastic
#pair_coeff 2 3 hertz/material 0.00000001 0.001 ${PR} tangential mindlin NULL 0.1 0.01 damping viscoelastic
comm_modify     vel yes
neigh_modify    delay 0 every 1 check yes

### Compute properties ###

compute 1 slider1 com                      # Compute the center of mass of top chain
#compute 2 support com                      # Compute the center of mass of supporting particle

variable p0 equal "step"

variable slider_z equal "c_1[3]"          # output the position of top chain in z-direction

#variable distance equal "c_2[1]-c_1[1]"   # Distance between COM of top chain and supporting particle

thermo 100000
thermo_style custom step lx ly lz press pxx pyy pzz ke pe temp c_1[1] c_1[2] c_1[3] #c_2[1] c_2[2] c_2[3] v_distance

############### Fix ##################


############## Equilibrium the system with apply force ########################

fix force_slider1 slider1 setforce NULL 0 NULL                                # Fix top chain not to move in y-direction

fix f_sub substrate freeze                                                    # Freeze the bottom chain

fix rigid_top slider1 rigid/nve group 1 slider1 langevin 0 0 ${lgv} 6987532   # NVE+langevin
fix rigid_top slider1 rigid/nve group 1 slider1 langevin 0 0 0.5 6987532   
  1 rigid bodies with 21 atoms

fix add slider1 addforce 0 0 ${Fn} every 1                                    # Add force to top layer
fix add slider1 addforce 0 0 -1000 every 1                                    

timestep ${dt}
timestep 1e-05

# fix  nve_1 slider1 nve

dump 		D1 all custom 100000 Equi_${num}_*.dump id type diameter mass xu yu zu fx fy fz
dump 		D1 all custom 100000 Equi_1_*.dump id type diameter mass xu yu zu fx fy fz

run 3000000
Generated 0 of 1 mixed pair_coeff terms from geometric mixing rule
Neighbor list info ...
  update every 1 steps, delay 0 steps, check yes
  max neighbors/atom: 2000, page size: 100000
  master list distance cutoff = 3.1
  ghost atom cutoff = 3.1
  binsize = 1.55, bins = 88 130 130
  1 neighbor lists, perpetual/occasional/extra = 1 0 0
  (1) pair granular, perpetual
      attributes: half, newton on, size, history
      pair build: half/size/bin/newton
      stencil: half/bin/3d
      bin: standard
Per MPI rank memory allocation (min/avg/max) = 14.44 | 17.91 | 19.07 Mbytes
   Step           Lx             Ly             Lz           Press           Pxx            Pyy            Pzz           KinEng         PotEng          Temp          c_1[1]         c_1[2]         c_1[3]    
         0   135.6          200            200            0              0              0              0              0              0              0              2.6109412e-16  0              6            
    100000   135.6          200            200            0.0031783099   2.3779815e-42  0              0.0095349298   12457.002      0              6.0150403e+10  2.6109412e-16  0              3.3223604    
    200000   135.6          200            200            0.001187908    2.272896e-39   0              0.0035637239   3301.0442      0              1.5939561e+10  2.6109412e-16  0              3.0648199    
    300000   135.6          200            200            0.0002200783  -4.5420222e-39  0              0.00066023491  207.37026      0              1.0013168e+09  2.6109412e-16  0              3.0430407    
    400000   135.6          200            200           -2.0705751e-05 -2.2724554e-39  0             -6.2117254e-05  2.4492435      0              11826520       2.6109412e-16  0              3.0103669    
    500000   135.6          200            200            0.0063589252   0.0013244815   0              0.017752294    44.07794       0              2.128366e+08   2.6109412e-16  0              2.9973228    
    600000   135.6          200            200            0.0072979024   0.00090669784  0              0.020987009    0.78213707     0              3776660        2.6109412e-16  0              2.9971137    
    700000   135.6          200            200            0.0047193626   0.00047694476  0              0.013681143    0.53351372     0              2576146.8      2.6109412e-16  0              2.9976656    
    800000   135.6          200            200            0.0042217765   0.0004690747   0              0.012196255    0.091086146    0              439822.4       2.6109412e-16  0              2.9978041    
    900000   135.6          200            200            0.0040580385   0.00046568042  0              0.011708435    0.015502361    0              74855.351      2.6109412e-16  0              2.9978511    
   1000000   135.6          200            200            0.0040203776   0.00046482547  0              0.011596307    0.0022169655   0              10704.933      2.6109412e-16  0              2.9978622    
   1100000   135.6          200            200            0.0040167377   0.00046473403  0              0.011585479    0.00026287878  0              1269.3476      2.6109412e-16  0              2.9978633    
   1200000   135.6          200            200            0.0040193373   0.00046478874  0              0.011593223    2.5043915e-05  0              120.9281       2.6109412e-16  0              2.9978626    
   1300000   135.6          200            200            0.0040216605   0.00046483956  0              0.011600142    1.7338388e-06  0              8.3720873      2.6109412e-16  0              2.997862     
   1400000   135.6          200            200            0.0040229394   0.00046486781  0              0.01160395     6.0787813e-08  0              0.29352259     2.6109412e-16  0              2.9978616    
   1500000   135.6          200            200            0.0040235223   0.00046488076  0              0.011605686    2.7189391e-11  0              0.00013128784  2.6109412e-16  0              2.9978614    
   1600000   135.6          200            200            0.0040237582   0.00046488601  0              0.011606389    1.3704527e-09  0              0.0066174258   2.6109412e-16  0              2.9978614    
   1700000   135.6          200            200            0.0040238448   0.00046488795  0              0.011606646    6.3830144e-10  0              0.0030821292   2.6109412e-16  0              2.9978613    
   1800000   135.6          200            200            0.0040238737   0.0004648886   0              0.011606732    1.6166077e-10  0              0.000780602    2.6109412e-16  0              2.9978613    
   1900000   135.6          200            200            0.0040238822   0.00046488879  0              0.011606758    3.0261093e-11  0              0.00014611999  2.6109412e-16  0              2.9978613    
   2000000   135.6          200            200            0.0040238842   0.00046488884  0              0.011606764    4.574066e-12   0              2.2086528e-05  2.6109412e-16  0              2.9978613    
   2100000   135.6          200            200            0.0040238845   0.00046488885  0              0.011606765    5.7157877e-13  0              2.7599493e-06  2.6109412e-16  0              2.9978613    
   2200000   135.6          200            200            0.0040238845   0.00046488884  0              0.011606765    5.804307e-14   0              2.8026921e-07  2.6109412e-16  0              2.9978613    
   2300000   135.6          200            200            0.0040238844   0.00046488884  0              0.011606764    4.4575852e-15  0              2.1524084e-08  2.6109412e-16  0              2.9978613    
   2400000   135.6          200            200            0.0040238843   0.00046488884  0              0.011606764    1.9773815e-16  0              9.5480678e-10  2.6109412e-16  0              2.9978613    
   2500000   135.6          200            200            0.0040238843   0.00046488884  0              0.011606764    7.780891e-19   0              3.7571138e-12  2.6109412e-16  0              2.9978613    
   2600000   135.6          200            200            0.0040238843   0.00046488884  0              0.011606764    1.772237e-18   0              8.5574982e-12  2.6109412e-16  0              2.9978613    
   2700000   135.6          200            200            0.0040238843   0.00046488884  0              0.011606764    1.2755693e-18  0              6.1592678e-12  2.6109412e-16  0              2.9978613    
   2800000   135.6          200            200            0.0040238843   0.00046488884  0              0.011606764    4.5671194e-19  0              2.2052985e-12  2.6109412e-16  0              2.9978613    
   2900000   135.6          200            200            0.0040238843   0.00046488884  0              0.011606764    1.6153971e-19  0              7.8001745e-13  2.6109412e-16  0              2.9978613    
   3000000   135.6          200            200            0.0040238843   0.00046488884  0              0.011606764    1.3117958e-21  0              6.3341923e-15  2.6109412e-16  0              2.9978613    
Loop time of 66.1283 on 4 procs for 3000000 steps with 51 atoms

Performance: 39196525.138 ns/day, 0.000 hours/ns, 45366.349 timesteps/s
100.0% CPU use with 4 MPI tasks x 1 OpenMP threads

MPI task timing breakdown:
Section |  min time  |  avg time  |  max time  |%varavg| %total
---------------------------------------------------------------
Pair    | 0.33636    | 1.8192     | 6.0314     | 180.4 |  2.75
Neigh   | 0.071058   | 0.071635   | 0.073202   |   0.3 |  0.11
Comm    | 26.198     | 32.882     | 38.913     |  84.4 | 49.72
Output  | 0.061013   | 0.061096   | 0.061162   |   0.0 |  0.09
Modify  | 15.828     | 21.795     | 29.341     | 122.3 | 32.96
Other   |            | 9.5        |            |       | 14.37

Nlocal:          12.75 ave          51 max           0 min
Histogram: 3 0 0 0 0 0 0 0 0 1
Nghost:          39.25 ave          52 max           1 min
Histogram: 1 0 0 0 0 0 0 0 0 3
Neighs:           6.75 ave          27 max           0 min
Histogram: 3 0 0 0 0 0 0 0 0 1

Total # of neighbors = 27
Ave neighs/atom = 0.52941176
Neighbor list builds = 168
Dangerous builds = 0

undump D1

############ Add spring between top chain to supp particle and then equilibrium  ###########

#fix sp1 support spring couple slider1 ${K0} ${lenspr} NULL NULL 0                                 # Add spring

#dump 		D2 all custom 100000 add_${num}*.dump id type diameter mass xu yu zu

#fix add1 all print 10 "${p0} ${distance} ${slider_z}" file add_distance_${num}.txt screen no      # out put step, distance(spring length), z-position of top chain

#run 1000000

#undump D2

#unfix add1

########## Pulling the supporting particle with constant velocity #############

#fix m1 support move linear 0.1 0 0 units box                                                      # apply constant velocity to supporting particles along x-direction V=0.1m/s

#fix move1 all print 100 "${p0} ${distance} ${slider_z}" file move_distance_${num}.txt screen no

#dump 		1 all custom 50000 move_${num}_*.dump id type diameter mass xu yu zu

#run 1000000

clear
  using 1 OpenMP thread(s) per MPI task

next num

jump SELF startloop

include granular.in
### Simulation of contact between two chain

##################### Simulation setup ####################

units micro                              # units
dimension	3                            # dimension
boundary	p p p                        # boundary condition p: periodic
atom_style	sphere                       # atom style
#processors * * 1

####################### Parameter ##################################

variable ind equal ${num}
variable ind equal 2

#variable lat0 equal 1                    #
variable lat1 equal 3+(151*0.01)+(v_ind*0.01)  # .491+(v_ind*0.001)       # Lattice distance of bottom chain
variable lat2 equal 3                    # Lattice distance of top chain
variable d1 equal 3                      # Diamter of particle at bottom chain
variable d2 equal 3                      # Diamter of particle at top chain
#variable d3 equal 1                      # Diamter of supporting particle

variable n2e1 equal 10*v_lat2             # Half length of top chain. 1500 is number of particles
variable n1e1 equal 1.5*v_n2e1*(v_lat1/v_lat2)             # Half length of bottom chain, which is 1.5 time larger than top chain
variable n1e2 equal -v_n1e1
variable n2e2 equal -v_n2e1
#variable lenspr equal -(v_n2e1+100)           # length of the spring connecting top chain and supporting particle
#variable lenspr1 equal -v_lenspr-0.1         # Position of supporting particle upper bound
#variable lenspr2 equal -v_lenspr+0.1         # Position of supporting particle lower bound

variable den equal 2.2 #grams/cm^3      # micrometer^3=10^-12 cm^3 Density of materials

variable V1 equal (1/6)*PI*(v_d1^3)     # Volume of particle 1
variable V2 equal (1/6)*PI*(v_d2^3)     # Volume of particle 2
#variable V3 equal (1/6)*PI*(v_d3^3)     # Volume of particle 3

variable mass1 equal v_den*v_V1  # Mass of particle 1 (picograms)
variable mass2 equal v_den*v_V2  # Mass of particle 2
#variable mass3 equal v_den*v_V3  # Mass of particle 3

# E GPa to picogram/(micrometer-microsecond^2)= 10^3 Pa= 10^-6 GPa
# Force unit(picogram-micrometer/microsecond^2)=10^-9 N= 1nN
# Spring stiffness (force/distance) 10^-3 N/m

variable K0 equal (1500/50)*(10^5)             # Spring stiffness conneting top chain and sup particle
variable E equal 100*(10^6)                    # Young's Modulus using for Hertz/material model
variable PR equal 0.3                          # Poisson's ratio using for Hertz/material model
variable Fn equal -1000                        # Force apply to each particles in top chain
variable dt equal 0.00001                      # Time step units microsecond
variable lgv equal 0.5                         #damping for langevin thermostat for slider


################### Creating the model #################################
lattice sc ${lat1}                                                               # Bottom chain type1
lattice sc 4.53                                                               
Lattice spacing in x,y,z = 4.53 4.53 4.53

region box block ${n1e2} ${n1e1} -100 100 -100 100 units box
region box block -67.95 ${n1e1} -100 100 -100 100 units box
region box block -67.95 67.95 -100 100 -100 100 units box
region substrate block ${n1e2} ${n1e1} -0.5 0.5 0 0.5 units box
region substrate block -67.95 ${n1e1} -0.5 0.5 0 0.5 units box
region substrate block -67.95 67.95 -0.5 0.5 0 0.5 units box

create_box 2 box
Created orthogonal box = (-67.95 -100 -100) to (67.95 100 100)
  1 by 2 by 2 MPI processor grid
create_atoms 1 region substrate
Created 30 atoms
  using lattice units in orthogonal box = (-67.95 -100 -100) to (67.95 100 100)
  create_atoms CPU = 0.000 seconds

lattice sc ${lat2}                                                             # Top chain type2
lattice sc 3                                                             
Lattice spacing in x,y,z = 3 3 3

region slider1 block ${n2e2} ${n2e1} -0.1 0.1 5.9 6.1 units box
region slider1 block -30 ${n2e1} -0.1 0.1 5.9 6.1 units box
region slider1 block -30 30 -0.1 0.1 5.9 6.1 units box

create_atoms 2 region slider1
Created 21 atoms
  using lattice units in orthogonal box = (-67.95 -100 -100) to (67.95 100 100)
  create_atoms CPU = 0.003 seconds

#lattice sc ${lat0}                                                             # Supporting particle type3

#region support block ${lenspr1} ${lenspr2} -0.1 0.1 7.9 8.1 units box

#create_atoms 3 region support

set type 1 diameter ${d1}                    # Set mass and diameter for each particles type
set type 1 diameter 3                    
Setting atom values ...
  30 settings made for diameter
set type 1 mass ${mass1}
set type 1 mass 31.101767270539
Setting atom values ...
  30 settings made for mass
set type 2 diameter ${d2}
set type 2 diameter 3
Setting atom values ...
  21 settings made for diameter
set type 2 mass ${mass2}
set type 2 mass 31.101767270539
Setting atom values ...
  21 settings made for mass
#set type 3 diameter ${d3}
#set type 3 mass ${mass3}

group substrate region substrate           # Define gorup
30 atoms in group substrate
group slider1 region slider1
21 atoms in group slider1
#group support region support
#group substrate_slider union substrate slider1

########################## Potential ###################################
pair_style granular
pair_coeff 1 1 hertz/material 0.00000001 0.001 ${PR} tangential mindlin NULL 0.1 0.01 damping viscoelastic              ########### set E between each particle in same type is small to neglect their interaction
pair_coeff 1 1 hertz/material 0.00000001 0.001 0.3 tangential mindlin NULL 0.1 0.01 damping viscoelastic              
pair_coeff 2 2 hertz/material 0.00000001 0.001 ${PR} tangential mindlin NULL 0.1 0.01 damping viscoelastic
pair_coeff 2 2 hertz/material 0.00000001 0.001 0.3 tangential mindlin NULL 0.1 0.01 damping viscoelastic
#pair_coeff 3 3 hertz/material ${E} 0.001 ${PR} tangential mindlin NULL 0.1 0.01 damping viscoelastic
pair_coeff 1 2 hertz/material ${E} 0.001 ${PR} tangential mindlin NULL 0.1 0.01 damping viscoelastic
pair_coeff 1 2 hertz/material 100000000 0.001 ${PR} tangential mindlin NULL 0.1 0.01 damping viscoelastic
pair_coeff 1 2 hertz/material 100000000 0.001 0.3 tangential mindlin NULL 0.1 0.01 damping viscoelastic
#pair_coeff 1 3 hertz/material 0.00000001 0.001 ${PR} tangential mindlin NULL 0.1 0.01 damping viscoelastic
#pair_coeff 2 3 hertz/material 0.00000001 0.001 ${PR} tangential mindlin NULL 0.1 0.01 damping viscoelastic
comm_modify     vel yes
neigh_modify    delay 0 every 1 check yes

### Compute properties ###

compute 1 slider1 com                      # Compute the center of mass of top chain
#compute 2 support com                      # Compute the center of mass of supporting particle

variable p0 equal "step"

variable slider_z equal "c_1[3]"          # output the position of top chain in z-direction

#variable distance equal "c_2[1]-c_1[1]"   # Distance between COM of top chain and supporting particle

thermo 100000
thermo_style custom step lx ly lz press pxx pyy pzz ke pe temp c_1[1] c_1[2] c_1[3] #c_2[1] c_2[2] c_2[3] v_distance

############### Fix ##################


############## Equilibrium the system with apply force ########################

fix force_slider1 slider1 setforce NULL 0 NULL                                # Fix top chain not to move in y-direction

fix f_sub substrate freeze                                                    # Freeze the bottom chain

fix rigid_top slider1 rigid/nve group 1 slider1 langevin 0 0 ${lgv} 6987532   # NVE+langevin
fix rigid_top slider1 rigid/nve group 1 slider1 langevin 0 0 0.5 6987532   
  1 rigid bodies with 21 atoms

fix add slider1 addforce 0 0 ${Fn} every 1                                    # Add force to top layer
fix add slider1 addforce 0 0 -1000 every 1                                    

timestep ${dt}
timestep 1e-05

# fix  nve_1 slider1 nve

dump 		D1 all custom 100000 Equi_${num}_*.dump id type diameter mass xu yu zu fx fy fz
dump 		D1 all custom 100000 Equi_2_*.dump id type diameter mass xu yu zu fx fy fz

run 3000000
Generated 0 of 1 mixed pair_coeff terms from geometric mixing rule
Neighbor list info ...
  update every 1 steps, delay 0 steps, check yes
  max neighbors/atom: 2000, page size: 100000
  master list distance cutoff = 3.1
  ghost atom cutoff = 3.1
  binsize = 1.55, bins = 88 130 130
  1 neighbor lists, perpetual/occasional/extra = 1 0 0
  (1) pair granular, perpetual
      attributes: half, newton on, size, history
      pair build: half/size/bin/newton
      stencil: half/bin/3d
      bin: standard
Per MPI rank memory allocation (min/avg/max) = 14.44 | 17.91 | 19.07 Mbytes
   Step           Lx             Ly             Lz           Press           Pxx            Pyy            Pzz           KinEng         PotEng          Temp          c_1[1]         c_1[2]         c_1[3]    
         0   135.9          200            200            0              0              0              0              0              0              0              2.6109412e-16  0              6            
    100000   135.9          200            200            0.0031689348   7.8981563e-43  0              0.0095068045   12445.026      0              6.0092578e+10  2.6109412e-16  0              3.3221581    
    200000   135.9          200            200            0.0011822057   2.268332e-39   0              0.0035466172   3288.7968      0              1.5880423e+10  2.6109412e-16  0              3.0643139    
    300000   135.9          200            200            0.00021165584  1.1338095e-39  0              0.00063496751  194.15518      0              9.375059e+08   2.6109412e-16  0              3.0426368    
    400000   135.9          200            200           -6.1971277e-05  5.6696605e-40  0             -0.00018591383  23.603626      0              1.1397346e+08  2.6109412e-16  0              3.0085259    
    500000   135.9          200            200            1.076707e-05   1.4518024e-37  0              3.2301209e-05  0.65510394     0              3163262.5      2.6109412e-16  0              3.0002911    
    600000   135.9          200            200            0.0020868933   0.00027459574  0              0.0059860841   1.8716307      0              9037434.8      2.6109412e-16  0              2.9981225    
    700000   135.9          200            200            0.0043271427   0.00044870843  0              0.01253272     0.74446693     0              3594764.4      2.6109412e-16  0              2.9972401    
    800000   135.9          200            200            0.0036641375   0.00033771002  0              0.010654702    0.024670536    0              119125.19      2.6109412e-16  0              2.9974492    
    900000   135.9          200            200            0.0039808865   0.00036683941  0              0.01157582     0.015122782    0              73022.503      2.6109412e-16  0              2.9973464    
   1000000   135.9          200            200            0.0040230441   0.00036812668  0              0.011701006    0.00056633909  0              2734.6488      2.6109412e-16  0              2.9973321    
   1100000   135.9          200            200            0.0039659843   0.00036643632  0              0.011531517    5.2360787e-05  0              252.8315       2.6109412e-16  0              2.9973507    
   1200000   135.9          200            200            0.0039828383   0.00036694872  0              0.011581566    3.6952339e-05  0              178.42962      2.6109412e-16  0              2.9973452    
   1300000   135.9          200            200            0.0039838735   0.00036698317  0              0.011584637    2.0463088e-06  0              9.8808931      2.6109412e-16  0              2.9973449    
   1400000   135.9          200            200            0.003981182    0.00036690128  0              0.011576645    6.5129297e-08  0              0.31448607     2.6109412e-16  0              2.9973457    
   1500000   135.9          200            200            0.0039821097   0.00036692915  0              0.0115794      8.6886837e-08  0              0.41954544     2.6109412e-16  0              2.9973454    
   1600000   135.9          200            200            0.0039821059   0.0003669292   0              0.011579389    6.7853759e-09  0              0.032764152    2.6109412e-16  0              2.9973454    
   1700000   135.9          200            200            0.0039819819   0.00036692541  0              0.01157902     5.2057799e-11  0              0.00025136848  2.6109412e-16  0              2.9973455    
   1800000   135.9          200            200            0.0039820316   0.00036692691  0              0.011579168    1.9621334e-10  0              0.00094744402  2.6109412e-16  0              2.9973455    
   1900000   135.9          200            200            0.0039820287   0.00036692683  0              0.011579159    2.0969725e-11  0              0.0001012553   2.6109412e-16  0              2.9973455    
   2000000   135.9          200            200            0.0039820231   0.00036692666  0              0.011579143    6.254715e-15   0              3.020178e-08   2.6109412e-16  0              2.9973455    
   2100000   135.9          200            200            0.0039820257   0.00036692673  0              0.01157915     4.2380054e-13  0              2.0463811e-06  2.6109412e-16  0              2.9973455    
   2200000   135.9          200            200            0.0039820254   0.00036692673  0              0.01157915     6.1221542e-14  0              2.9561692e-07  2.6109412e-16  0              2.9973455    
   2300000   135.9          200            200            0.0039820252   0.00036692672  0              0.011579149    1.013166e-16   0              4.8922162e-10  2.6109412e-16  0              2.9973455    
   2400000   135.9          200            200            0.0039820253   0.00036692672  0              0.011579149    8.6335049e-16  0              4.1688105e-09  2.6109412e-16  0              2.9973455    
   2500000   135.9          200            200            0.0039820253   0.00036692672  0              0.011579149    1.6901906e-16  0              8.1613253e-10  2.6109412e-16  0              2.9973455    
   2600000   135.9          200            200            0.0039820253   0.00036692672  0              0.011579149    1.0915227e-18  0              5.2705724e-12  2.6109412e-16  0              2.9973455    
   2700000   135.9          200            200            0.0039820253   0.00036692672  0              0.011579149    2.5200304e-18  0              1.2168325e-11  2.6109412e-16  0              2.9973455    
   2800000   135.9          200            200            0.0039820253   0.00036692672  0              0.011579149    9.405463e-20   0              4.5415615e-13  2.6109412e-16  0              2.9973455    
   2900000   135.9          200            200            0.0039820253   0.00036692672  0              0.011579149    2.6937653e-21  0              1.3007229e-14  2.6109412e-16  0              2.9973455    
   3000000   135.9          200            200            0.0039820253   0.00036692672  0              0.011579149    1.0543838e-19  0              5.0912421e-13  2.6109412e-16  0              2.9973455    
Loop time of 65.6992 on 4 procs for 3000000 steps with 51 atoms

Performance: 39452565.079 ns/day, 0.000 hours/ns, 45662.691 timesteps/s
100.0% CPU use with 4 MPI tasks x 1 OpenMP threads

MPI task timing breakdown:
Section |  min time  |  avg time  |  max time  |%varavg| %total
---------------------------------------------------------------
Pair    | 0.32038    | 1.8046     | 6.0412     | 182.2 |  2.75
Neigh   | 0.071065   | 0.071602   | 0.07312    |   0.3 |  0.11
Comm    | 26.165     | 32.672     | 38.671     |  83.1 | 49.73
Output  | 0.060241   | 0.060322   | 0.060379   |   0.0 |  0.09
Modify  | 15.739     | 21.615     | 28.988     | 120.9 | 32.90
Other   |            | 9.476      |            |       | 14.42

Nlocal:          12.75 ave          51 max           0 min
Histogram: 3 0 0 0 0 0 0 0 0 1
Nghost:          39.25 ave          52 max           1 min
Histogram: 1 0 0 0 0 0 0 0 0 3
Neighs:           6.75 ave          27 max           0 min
Histogram: 3 0 0 0 0 0 0 0 0 1

Total # of neighbors = 27
Ave neighs/atom = 0.52941176
Neighbor list builds = 168
Dangerous builds = 0

undump D1

############ Add spring between top chain to supp particle and then equilibrium  ###########

#fix sp1 support spring couple slider1 ${K0} ${lenspr} NULL NULL 0                                 # Add spring

#dump 		D2 all custom 100000 add_${num}*.dump id type diameter mass xu yu zu

#fix add1 all print 10 "${p0} ${distance} ${slider_z}" file add_distance_${num}.txt screen no      # out put step, distance(spring length), z-position of top chain

#run 1000000

#undump D2

#unfix add1

########## Pulling the supporting particle with constant velocity #############

#fix m1 support move linear 0.1 0 0 units box                                                      # apply constant velocity to supporting particles along x-direction V=0.1m/s

#fix move1 all print 100 "${p0} ${distance} ${slider_z}" file move_distance_${num}.txt screen no

#dump 		1 all custom 50000 move_${num}_*.dump id type diameter mass xu yu zu

#run 1000000

clear
  using 1 OpenMP thread(s) per MPI task

next num

jump SELF startloop

include granular.in
### Simulation of contact between two chain

##################### Simulation setup ####################

units micro                              # units
dimension	3                            # dimension
boundary	p p p                        # boundary condition p: periodic
atom_style	sphere                       # atom style
#processors * * 1

####################### Parameter ##################################

variable ind equal ${num}
variable ind equal 3

#variable lat0 equal 1                    #
variable lat1 equal 3+(151*0.01)+(v_ind*0.01)  # .491+(v_ind*0.001)       # Lattice distance of bottom chain
variable lat2 equal 3                    # Lattice distance of top chain
variable d1 equal 3                      # Diamter of particle at bottom chain
variable d2 equal 3                      # Diamter of particle at top chain
#variable d3 equal 1                      # Diamter of supporting particle

variable n2e1 equal 10*v_lat2             # Half length of top chain. 1500 is number of particles
variable n1e1 equal 1.5*v_n2e1*(v_lat1/v_lat2)             # Half length of bottom chain, which is 1.5 time larger than top chain
variable n1e2 equal -v_n1e1
variable n2e2 equal -v_n2e1
#variable lenspr equal -(v_n2e1+100)           # length of the spring connecting top chain and supporting particle
#variable lenspr1 equal -v_lenspr-0.1         # Position of supporting particle upper bound
#variable lenspr2 equal -v_lenspr+0.1         # Position of supporting particle lower bound

variable den equal 2.2 #grams/cm^3      # micrometer^3=10^-12 cm^3 Density of materials

variable V1 equal (1/6)*PI*(v_d1^3)     # Volume of particle 1
variable V2 equal (1/6)*PI*(v_d2^3)     # Volume of particle 2
#variable V3 equal (1/6)*PI*(v_d3^3)     # Volume of particle 3

variable mass1 equal v_den*v_V1  # Mass of particle 1 (picograms)
variable mass2 equal v_den*v_V2  # Mass of particle 2
#variable mass3 equal v_den*v_V3  # Mass of particle 3

# E GPa to picogram/(micrometer-microsecond^2)= 10^3 Pa= 10^-6 GPa
# Force unit(picogram-micrometer/microsecond^2)=10^-9 N= 1nN
# Spring stiffness (force/distance) 10^-3 N/m

variable K0 equal (1500/50)*(10^5)             # Spring stiffness conneting top chain and sup particle
variable E equal 100*(10^6)                    # Young's Modulus using for Hertz/material model
variable PR equal 0.3                          # Poisson's ratio using for Hertz/material model
variable Fn equal -1000                        # Force apply to each particles in top chain
variable dt equal 0.00001                      # Time step units microsecond
variable lgv equal 0.5                         #damping for langevin thermostat for slider


################### Creating the model #################################
lattice sc ${lat1}                                                               # Bottom chain type1
lattice sc 4.54                                                               
Lattice spacing in x,y,z = 4.54 4.54 4.54

region box block ${n1e2} ${n1e1} -100 100 -100 100 units box
region box block -68.1 ${n1e1} -100 100 -100 100 units box
region box block -68.1 68.1 -100 100 -100 100 units box
region substrate block ${n1e2} ${n1e1} -0.5 0.5 0 0.5 units box
region substrate block -68.1 ${n1e1} -0.5 0.5 0 0.5 units box
region substrate block -68.1 68.1 -0.5 0.5 0 0.5 units box

create_box 2 box
Created orthogonal box = (-68.1 -100 -100) to (68.1 100 100)
  1 by 2 by 2 MPI processor grid
create_atoms 1 region substrate
Created 30 atoms
  using lattice units in orthogonal box = (-68.1 -100 -100) to (68.1 100 100)
  create_atoms CPU = 0.000 seconds

lattice sc ${lat2}                                                             # Top chain type2
lattice sc 3                                                             
Lattice spacing in x,y,z = 3 3 3

region slider1 block ${n2e2} ${n2e1} -0.1 0.1 5.9 6.1 units box
region slider1 block -30 ${n2e1} -0.1 0.1 5.9 6.1 units box
region slider1 block -30 30 -0.1 0.1 5.9 6.1 units box

create_atoms 2 region slider1
Created 21 atoms
  using lattice units in orthogonal box = (-68.1 -100 -100) to (68.1 100 100)
  create_atoms CPU = 0.002 seconds

#lattice sc ${lat0}                                                             # Supporting particle type3

#region support block ${lenspr1} ${lenspr2} -0.1 0.1 7.9 8.1 units box

#create_atoms 3 region support

set type 1 diameter ${d1}                    # Set mass and diameter for each particles type
set type 1 diameter 3                    
Setting atom values ...
  30 settings made for diameter
set type 1 mass ${mass1}
set type 1 mass 31.101767270539
Setting atom values ...
  30 settings made for mass
set type 2 diameter ${d2}
set type 2 diameter 3
Setting atom values ...
  21 settings made for diameter
set type 2 mass ${mass2}
set type 2 mass 31.101767270539
Setting atom values ...
  21 settings made for mass
#set type 3 diameter ${d3}
#set type 3 mass ${mass3}

group substrate region substrate           # Define gorup
30 atoms in group substrate
group slider1 region slider1
21 atoms in group slider1
#group support region support
#group substrate_slider union substrate slider1

########################## Potential ###################################
pair_style granular
pair_coeff 1 1 hertz/material 0.00000001 0.001 ${PR} tangential mindlin NULL 0.1 0.01 damping viscoelastic              ########### set E between each particle in same type is small to neglect their interaction
pair_coeff 1 1 hertz/material 0.00000001 0.001 0.3 tangential mindlin NULL 0.1 0.01 damping viscoelastic              
pair_coeff 2 2 hertz/material 0.00000001 0.001 ${PR} tangential mindlin NULL 0.1 0.01 damping viscoelastic
pair_coeff 2 2 hertz/material 0.00000001 0.001 0.3 tangential mindlin NULL 0.1 0.01 damping viscoelastic
#pair_coeff 3 3 hertz/material ${E} 0.001 ${PR} tangential mindlin NULL 0.1 0.01 damping viscoelastic
pair_coeff 1 2 hertz/material ${E} 0.001 ${PR} tangential mindlin NULL 0.1 0.01 damping viscoelastic
pair_coeff 1 2 hertz/material 100000000 0.001 ${PR} tangential mindlin NULL 0.1 0.01 damping viscoelastic
pair_coeff 1 2 hertz/material 100000000 0.001 0.3 tangential mindlin NULL 0.1 0.01 damping viscoelastic
#pair_coeff 1 3 hertz/material 0.00000001 0.001 ${PR} tangential mindlin NULL 0.1 0.01 damping viscoelastic
#pair_coeff 2 3 hertz/material 0.00000001 0.001 ${PR} tangential mindlin NULL 0.1 0.01 damping viscoelastic
comm_modify     vel yes
neigh_modify    delay 0 every 1 check yes

### Compute properties ###

compute 1 slider1 com                      # Compute the center of mass of top chain
#compute 2 support com                      # Compute the center of mass of supporting particle

variable p0 equal "step"

variable slider_z equal "c_1[3]"          # output the position of top chain in z-direction

#variable distance equal "c_2[1]-c_1[1]"   # Distance between COM of top chain and supporting particle

thermo 100000
thermo_style custom step lx ly lz press pxx pyy pzz ke pe temp c_1[1] c_1[2] c_1[3] #c_2[1] c_2[2] c_2[3] v_distance

############### Fix ##################


############## Equilibrium the system with apply force ########################

fix force_slider1 slider1 setforce NULL 0 NULL                                # Fix top chain not to move in y-direction

fix f_sub substrate freeze                                                    # Freeze the bottom chain

fix rigid_top slider1 rigid/nve group 1 slider1 langevin 0 0 ${lgv} 6987532   # NVE+langevin
fix rigid_top slider1 rigid/nve group 1 slider1 langevin 0 0 0.5 6987532   
  1 rigid bodies with 21 atoms

fix add slider1 addforce 0 0 ${Fn} every 1                                    # Add force to top layer
fix add slider1 addforce 0 0 -1000 every 1                                    

timestep ${dt}
timestep 1e-05

# fix  nve_1 slider1 nve

dump 		D1 all custom 100000 Equi_${num}_*.dump id type diameter mass xu yu zu fx fy fz
dump 		D1 all custom 100000 Equi_3_*.dump id type diameter mass xu yu zu fx fy fz

run 3000000
Generated 0 of 1 mixed pair_coeff terms from geometric mixing rule
Neighbor list info ...
  update every 1 steps, delay 0 steps, check yes
  max neighbors/atom: 2000, page size: 100000
  master list distance cutoff = 3.1
  ghost atom cutoff = 3.1
  binsize = 1.55, bins = 88 130 130
  1 neighbor lists, perpetual/occasional/extra = 1 0 0
  (1) pair granular, perpetual
      attributes: half, newton on, size, history
      pair build: half/size/bin/newton
      stencil: half/bin/3d
      bin: standard
Per MPI rank memory allocation (min/avg/max) = 14.44 | 17.91 | 19.07 Mbytes
   Step           Lx             Ly             Lz           Press           Pxx            Pyy            Pzz           KinEng         PotEng          Temp          c_1[1]         c_1[2]         c_1[3]    
         0   136.2          200            200            0              0              0              0              0              0              0              2.6109412e-16  0              6            
    100000   136.2          200            200            0.0031586016   3.3939655e-39  0              0.0094758048   12427.226      0              6.0006627e+10  2.6109412e-16  0              3.3221533    
    200000   136.2          200            200            0.0011726704   6.2772546e-42  0              0.0035180113   3259.7143      0              1.5739994e+10  2.6109412e-16  0              3.0645975    
    300000   136.2          200            200            0.00018997791 -4.5216219e-39  0              0.00056993374  160.34506      0              7.7424892e+08  2.6109412e-16  0              3.0432146    
    400000   136.2          200            200           -0.00011894358  1.8146629e-38  0             -0.00035683074  96.758476      0              4.6721205e+08  2.6109412e-16  0              3.0043876    
    500000   136.2          200            200            0.01070187     0.0012201607   0              0.030885449    8.7342444      0              42174540       2.6109412e-16  0              2.9950104    
    600000   136.2          200            200            0.0046651763   0.00050147118  0              0.013494058    5.1255785      0              24749584       2.6109412e-16  0              2.9967497    
    700000   136.2          200            200            0.0048250588   0.00042966634  0              0.01404551     0.028342972    0              136858.07      2.6109412e-16  0              2.9966905    
    800000   136.2          200            200            0.0042701489   0.00042140045  0              0.012389046    0.018662366    0              90113.889      2.6109412e-16  0              2.9969045    
    900000   136.2          200            200            0.0040497278   0.00041734717  0              0.011731836    0.010006564    0              48318.119      2.6109412e-16  0              2.9969914    
   1000000   136.2          200            200            0.0039892506   0.00041615899  0              0.011551593    0.0018727632   0              9042.9034      2.6109412e-16  0              2.9970152    
   1100000   136.2          200            200            0.0039812207   0.00041600463  0              0.011527657    0.00017717459  0              855.51269      2.6109412e-16  0              2.9970183    
   1200000   136.2          200            200            0.0039844038   0.00041607234  0              0.011537139    5.7590246e-06  0              27.808269      2.6109412e-16  0              2.9970169    
   1300000   136.2          200            200            0.0039874675   0.00041613519  0              0.011546267    9.8088746e-08  0              0.47363545     2.6109412e-16  0              2.9970157    
   1400000   136.2          200            200            0.0039889372   0.000416165    0              0.011550647    2.6935589e-07  0              1.3006232      2.6109412e-16  0              2.9970151    
   1500000   136.2          200            200            0.0039894341   0.00041617498  0              0.011552127    7.8096671e-08  0              0.37710087     2.6109412e-16  0              2.9970149    
   1600000   136.2          200            200            0.0039895433   0.00041617714  0              0.011552453    1.062269e-08   0              0.05129317     2.6109412e-16  0              2.9970149    
   1700000   136.2          200            200            0.0039895438   0.00041617713  0              0.011552454    6.8108013e-10  0              0.0032886922   2.6109412e-16  0              2.9970149    
   1800000   136.2          200            200            0.0039895293   0.00041617683  0              0.011552411    5.0032618e-12  0              2.4158961e-05  2.6109412e-16  0              2.9970149    
   1900000   136.2          200            200            0.0039895203   0.00041617665  0              0.011552384    4.5979937e-12  0              2.2202066e-05  2.6109412e-16  0              2.9970149    
   2000000   136.2          200            200            0.0039895166   0.00041617657  0              0.011552373    2.6647833e-12  0              1.2867285e-05  2.6109412e-16  0              2.9970149    
   2100000   136.2          200            200            0.0039895156   0.00041617655  0              0.01155237     5.2155405e-13  0              2.5183978e-06  2.6109412e-16  0              2.9970149    
   2200000   136.2          200            200            0.0039895154   0.00041617655  0              0.01155237     5.1537532e-14  0              2.488563e-07   2.6109412e-16  0              2.9970149    
   2300000   136.2          200            200            0.0039895155   0.00041617655  0              0.01155237     1.8574787e-15  0              8.9691001e-09  2.6109412e-16  0              2.9970149    
   2400000   136.2          200            200            0.0039895155   0.00041617655  0              0.01155237     1.67998e-17    0              8.1120221e-11  2.6109412e-16  0              2.9970149    
   2500000   136.2          200            200            0.0039895155   0.00041617655  0              0.01155237     6.8648973e-17  0              3.3148132e-10  2.6109412e-16  0              2.9970149    
   2600000   136.2          200            200            0.0039895155   0.00041617655  0              0.01155237     2.1604324e-17  0              1.0431955e-10  2.6109412e-16  0              2.9970149    
   2700000   136.2          200            200            0.0039895156   0.00041617655  0              0.01155237     2.4272384e-18  0              1.1720265e-11  2.6109412e-16  0              2.9970149    
   2800000   136.2          200            200            0.0039895155   0.00041617655  0              0.01155237     1.6844857e-19  0              8.1337788e-13  2.6109412e-16  0              2.9970149    
   2900000   136.2          200            200            0.0039895156   0.00041617655  0              0.01155237     6.9028313e-21  0              3.3331302e-14  2.6109412e-16  0              2.9970149    
   3000000   136.2          200            200            0.0039895156   0.00041617655  0              0.01155237     2.6974202e-20  0              1.3024877e-13  2.6109412e-16  0              2.9970149    
Loop time of 66.0456 on 4 procs for 3000000 steps with 51 atoms

Performance: 39245592.348 ns/day, 0.000 hours/ns, 45423.139 timesteps/s
100.0% CPU use with 4 MPI tasks x 1 OpenMP threads

MPI task timing breakdown:
Section |  min time  |  avg time  |  max time  |%varavg| %total
---------------------------------------------------------------
Pair    | 0.31022    | 1.7273     | 5.7406     | 176.4 |  2.62
Neigh   | 0.070976   | 0.071581   | 0.073247   |   0.4 |  0.11
Comm    | 26.138     | 32.749     | 38.654     |  83.9 | 49.58
Output  | 0.061176   | 0.061256   | 0.061311   |   0.0 |  0.09
Modify  | 15.772     | 21.758     | 29.103     | 119.3 | 32.94
Other   |            | 9.679      |            |       | 14.65

Nlocal:          12.75 ave          51 max           0 min
Histogram: 3 0 0 0 0 0 0 0 0 1
Nghost:          39.25 ave          52 max           1 min
Histogram: 1 0 0 0 0 0 0 0 0 3
Neighs:           6.75 ave          27 max           0 min
Histogram: 3 0 0 0 0 0 0 0 0 1

Total # of neighbors = 27
Ave neighs/atom = 0.52941176
Neighbor list builds = 168
Dangerous builds = 0

undump D1

############ Add spring between top chain to supp particle and then equilibrium  ###########

#fix sp1 support spring couple slider1 ${K0} ${lenspr} NULL NULL 0                                 # Add spring

#dump 		D2 all custom 100000 add_${num}*.dump id type diameter mass xu yu zu

#fix add1 all print 10 "${p0} ${distance} ${slider_z}" file add_distance_${num}.txt screen no      # out put step, distance(spring length), z-position of top chain

#run 1000000

#undump D2

#unfix add1

########## Pulling the supporting particle with constant velocity #############

#fix m1 support move linear 0.1 0 0 units box                                                      # apply constant velocity to supporting particles along x-direction V=0.1m/s

#fix move1 all print 100 "${p0} ${distance} ${slider_z}" file move_distance_${num}.txt screen no

#dump 		1 all custom 50000 move_${num}_*.dump id type diameter mass xu yu zu

#run 1000000

clear
  using 1 OpenMP thread(s) per MPI task

next num

jump SELF startloop

include granular.in
### Simulation of contact between two chain

##################### Simulation setup ####################

units micro                              # units
dimension	3                            # dimension
boundary	p p p                        # boundary condition p: periodic
atom_style	sphere                       # atom style
#processors * * 1

####################### Parameter ##################################

variable ind equal ${num}
variable ind equal 4

#variable lat0 equal 1                    #
variable lat1 equal 3+(151*0.01)+(v_ind*0.01)  # .491+(v_ind*0.001)       # Lattice distance of bottom chain
variable lat2 equal 3                    # Lattice distance of top chain
variable d1 equal 3                      # Diamter of particle at bottom chain
variable d2 equal 3                      # Diamter of particle at top chain
#variable d3 equal 1                      # Diamter of supporting particle

variable n2e1 equal 10*v_lat2             # Half length of top chain. 1500 is number of particles
variable n1e1 equal 1.5*v_n2e1*(v_lat1/v_lat2)             # Half length of bottom chain, which is 1.5 time larger than top chain
variable n1e2 equal -v_n1e1
variable n2e2 equal -v_n2e1
#variable lenspr equal -(v_n2e1+100)           # length of the spring connecting top chain and supporting particle
#variable lenspr1 equal -v_lenspr-0.1         # Position of supporting particle upper bound
#variable lenspr2 equal -v_lenspr+0.1         # Position of supporting particle lower bound

variable den equal 2.2 #grams/cm^3      # micrometer^3=10^-12 cm^3 Density of materials

variable V1 equal (1/6)*PI*(v_d1^3)     # Volume of particle 1
variable V2 equal (1/6)*PI*(v_d2^3)     # Volume of particle 2
#variable V3 equal (1/6)*PI*(v_d3^3)     # Volume of particle 3

variable mass1 equal v_den*v_V1  # Mass of particle 1 (picograms)
variable mass2 equal v_den*v_V2  # Mass of particle 2
#variable mass3 equal v_den*v_V3  # Mass of particle 3

# E GPa to picogram/(micrometer-microsecond^2)= 10^3 Pa= 10^-6 GPa
# Force unit(picogram-micrometer/microsecond^2)=10^-9 N= 1nN
# Spring stiffness (force/distance) 10^-3 N/m

variable K0 equal (1500/50)*(10^5)             # Spring stiffness conneting top chain and sup particle
variable E equal 100*(10^6)                    # Young's Modulus using for Hertz/material model
variable PR equal 0.3                          # Poisson's ratio using for Hertz/material model
variable Fn equal -1000                        # Force apply to each particles in top chain
variable dt equal 0.00001                      # Time step units microsecond
variable lgv equal 0.5                         #damping for langevin thermostat for slider


################### Creating the model #################################
lattice sc ${lat1}                                                               # Bottom chain type1
lattice sc 4.55                                                               
Lattice spacing in x,y,z = 4.55 4.55 4.55

region box block ${n1e2} ${n1e1} -100 100 -100 100 units box
region box block -68.25 ${n1e1} -100 100 -100 100 units box
region box block -68.25 68.25 -100 100 -100 100 units box
region substrate block ${n1e2} ${n1e1} -0.5 0.5 0 0.5 units box
region substrate block -68.25 ${n1e1} -0.5 0.5 0 0.5 units box
region substrate block -68.25 68.25 -0.5 0.5 0 0.5 units box

create_box 2 box
Created orthogonal box = (-68.25 -100 -100) to (68.25 100 100)
  1 by 2 by 2 MPI processor grid
create_atoms 1 region substrate
Created 30 atoms
  using lattice units in orthogonal box = (-68.25 -100 -100) to (68.25 100 100)
  create_atoms CPU = 0.000 seconds

lattice sc ${lat2}                                                             # Top chain type2
lattice sc 3                                                             
Lattice spacing in x,y,z = 3 3 3

region slider1 block ${n2e2} ${n2e1} -0.1 0.1 5.9 6.1 units box
region slider1 block -30 ${n2e1} -0.1 0.1 5.9 6.1 units box
region slider1 block -30 30 -0.1 0.1 5.9 6.1 units box

create_atoms 2 region slider1
Created 21 atoms
  using lattice units in orthogonal box = (-68.25 -100 -100) to (68.25 100 100)
  create_atoms CPU = 0.003 seconds

#lattice sc ${lat0}                                                             # Supporting particle type3

#region support block ${lenspr1} ${lenspr2} -0.1 0.1 7.9 8.1 units box

#create_atoms 3 region support

set type 1 diameter ${d1}                    # Set mass and diameter for each particles type
set type 1 diameter 3                    
Setting atom values ...
  30 settings made for diameter
set type 1 mass ${mass1}
set type 1 mass 31.101767270539
Setting atom values ...
  30 settings made for mass
set type 2 diameter ${d2}
set type 2 diameter 3
Setting atom values ...
  21 settings made for diameter
set type 2 mass ${mass2}
set type 2 mass 31.101767270539
Setting atom values ...
  21 settings made for mass
#set type 3 diameter ${d3}
#set type 3 mass ${mass3}

group substrate region substrate           # Define gorup
30 atoms in group substrate
group slider1 region slider1
21 atoms in group slider1
#group support region support
#group substrate_slider union substrate slider1

########################## Potential ###################################
pair_style granular
pair_coeff 1 1 hertz/material 0.00000001 0.001 ${PR} tangential mindlin NULL 0.1 0.01 damping viscoelastic              ########### set E between each particle in same type is small to neglect their interaction
pair_coeff 1 1 hertz/material 0.00000001 0.001 0.3 tangential mindlin NULL 0.1 0.01 damping viscoelastic              
pair_coeff 2 2 hertz/material 0.00000001 0.001 ${PR} tangential mindlin NULL 0.1 0.01 damping viscoelastic
pair_coeff 2 2 hertz/material 0.00000001 0.001 0.3 tangential mindlin NULL 0.1 0.01 damping viscoelastic
#pair_coeff 3 3 hertz/material ${E} 0.001 ${PR} tangential mindlin NULL 0.1 0.01 damping viscoelastic
pair_coeff 1 2 hertz/material ${E} 0.001 ${PR} tangential mindlin NULL 0.1 0.01 damping viscoelastic
pair_coeff 1 2 hertz/material 100000000 0.001 ${PR} tangential mindlin NULL 0.1 0.01 damping viscoelastic
pair_coeff 1 2 hertz/material 100000000 0.001 0.3 tangential mindlin NULL 0.1 0.01 damping viscoelastic
#pair_coeff 1 3 hertz/material 0.00000001 0.001 ${PR} tangential mindlin NULL 0.1 0.01 damping viscoelastic
#pair_coeff 2 3 hertz/material 0.00000001 0.001 ${PR} tangential mindlin NULL 0.1 0.01 damping viscoelastic
comm_modify     vel yes
neigh_modify    delay 0 every 1 check yes

### Compute properties ###

compute 1 slider1 com                      # Compute the center of mass of top chain
#compute 2 support com                      # Compute the center of mass of supporting particle

variable p0 equal "step"

variable slider_z equal "c_1[3]"          # output the position of top chain in z-direction

#variable distance equal "c_2[1]-c_1[1]"   # Distance between COM of top chain and supporting particle

thermo 100000
thermo_style custom step lx ly lz press pxx pyy pzz ke pe temp c_1[1] c_1[2] c_1[3] #c_2[1] c_2[2] c_2[3] v_distance

############### Fix ##################


############## Equilibrium the system with apply force ########################

fix force_slider1 slider1 setforce NULL 0 NULL                                # Fix top chain not to move in y-direction

fix f_sub substrate freeze                                                    # Freeze the bottom chain

fix rigid_top slider1 rigid/nve group 1 slider1 langevin 0 0 ${lgv} 6987532   # NVE+langevin
fix rigid_top slider1 rigid/nve group 1 slider1 langevin 0 0 0.5 6987532   
  1 rigid bodies with 21 atoms

fix add slider1 addforce 0 0 ${Fn} every 1                                    # Add force to top layer
fix add slider1 addforce 0 0 -1000 every 1                                    

timestep ${dt}
timestep 1e-05

# fix  nve_1 slider1 nve

dump 		D1 all custom 100000 Equi_${num}_*.dump id type diameter mass xu yu zu fx fy fz
dump 		D1 all custom 100000 Equi_4_*.dump id type diameter mass xu yu zu fx fy fz

run 3000000
Generated 0 of 1 mixed pair_coeff terms from geometric mixing rule
Neighbor list info ...
  update every 1 steps, delay 0 steps, check yes
  max neighbors/atom: 2000, page size: 100000
  master list distance cutoff = 3.1
  ghost atom cutoff = 3.1
  binsize = 1.55, bins = 89 130 130
  1 neighbor lists, perpetual/occasional/extra = 1 0 0
  (1) pair granular, perpetual
      attributes: half, newton on, size, history
      pair build: half/size/bin/newton
      stencil: half/bin/3d
      bin: standard
Per MPI rank memory allocation (min/avg/max) = 14.46 | 17.93 | 19.09 Mbytes
   Step           Lx             Ly             Lz           Press           Pxx            Pyy            Pzz           KinEng         PotEng          Temp          c_1[1]         c_1[2]         c_1[3]    
         0   136.5          200            200            0              0              0              0              0              0              0              2.6109412e-16  0              6            
    100000   136.5          200            200            0.003147337   -1.2415908e-38  0              0.0094420111   12403.37       0              5.9891436e+10  2.6109412e-16  0              3.3224782    
    200000   136.5          200            200            0.0011585345   6.7726192e-39  0              0.0034756034   3210.228       0              1.5501042e+10  2.6109412e-16  0              3.0660663    
    300000   136.5          200            200            0.00016278677 -3.6105758e-38  0              0.00048836031  121.43019      0              5.8634291e+08  2.6109412e-16  0              3.0441639    
    400000   136.5          200            200            0.00079598515  1.9741648e-05  0              0.0023682138   215.22687      0              1.0392535e+09  2.6109412e-16  0              2.99817      
[...]
   2900000   164.7          200            200            0.0031825296  -1.4691898e-38  0              0.0095475888   6.6499794e-20  0              3.567819e-13   2.6109412e-16  0              2.995215     
   3000000   164.7          200            200            0.0031825296   4.2702196e-38  0              0.0095475888   5.9076144e-21  0              3.1695284e-14  2.6109412e-16  0              2.995215     
Loop time of 62.8505 on 4 procs for 3000000 steps with 50 atoms

Performance: 41240753.553 ns/day, 0.000 hours/ns, 47732.354 timesteps/s
100.0% CPU use with 4 MPI tasks x 1 OpenMP threads

MPI task timing breakdown:
Section |  min time  |  avg time  |  max time  |%varavg| %total
---------------------------------------------------------------
Pair    | 0.31399    | 1.5409     | 5.0538     | 163.5 |  2.45
Neigh   | 0.083349   | 0.083892   | 0.085386   |   0.3 |  0.13
Comm    | 25.084     | 31.321     | 36.944     |  81.6 | 49.83
Output  | 0.060505   | 0.06058    | 0.060633   |   0.0 |  0.10
Modify  | 15.063     | 20.735     | 27.676     | 117.3 | 32.99
Other   |            | 9.109      |            |       | 14.49

Nlocal:           12.5 ave          50 max           0 min
Histogram: 3 0 0 0 0 0 0 0 0 1
Nghost:           37.5 ave          50 max           0 min
Histogram: 1 0 0 0 0 0 0 0 0 3
Neighs:           6.25 ave          25 max           0 min
Histogram: 3 0 0 0 0 0 0 0 0 1

Total # of neighbors = 25
Ave neighs/atom = 0.5
Neighbor list builds = 164
Dangerous builds = 0

undump D1

############ Add spring between top chain to supp particle and then equilibrium  ###########

#fix sp1 support spring couple slider1 ${K0} ${lenspr} NULL NULL 0                                 # Add spring

#dump 		D2 all custom 100000 add_${num}*.dump id type diameter mass xu yu zu

#fix add1 all print 10 "${p0} ${distance} ${slider_z}" file add_distance_${num}.txt screen no      # out put step, distance(spring length), z-position of top chain

#run 1000000

#undump D2

#unfix add1

########## Pulling the supporting particle with constant velocity #############

#fix m1 support move linear 0.1 0 0 units box                                                      # apply constant velocity to supporting particles along x-direction V=0.1m/s

#fix move1 all print 100 "${p0} ${distance} ${slider_z}" file move_distance_${num}.txt screen no

#dump 		1 all custom 50000 move_${num}_*.dump id type diameter mass xu yu zu

#run 1000000

clear
  using 1 OpenMP thread(s) per MPI task

next num

jump SELF startloop

include granular.in
### Simulation of contact between two chain

##################### Simulation setup ####################

units micro                              # units
dimension	3                            # dimension
boundary	p p p                        # boundary condition p: periodic
atom_style	sphere                       # atom style
#processors * * 1

####################### Parameter ##################################

variable ind equal ${num}
variable ind equal 99

#variable lat0 equal 1                    #
variable lat1 equal 3+(151*0.01)+(v_ind*0.01)  # .491+(v_ind*0.001)       # Lattice distance of bottom chain
variable lat2 equal 3                    # Lattice distance of top chain
variable d1 equal 3                      # Diamter of particle at bottom chain
variable d2 equal 3                      # Diamter of particle at top chain
#variable d3 equal 1                      # Diamter of supporting particle

variable n2e1 equal 10*v_lat2             # Half length of top chain. 1500 is number of particles
variable n1e1 equal 1.5*v_n2e1*(v_lat1/v_lat2)             # Half length of bottom chain, which is 1.5 time larger than top chain
variable n1e2 equal -v_n1e1
variable n2e2 equal -v_n2e1
#variable lenspr equal -(v_n2e1+100)           # length of the spring connecting top chain and supporting particle
#variable lenspr1 equal -v_lenspr-0.1         # Position of supporting particle upper bound
#variable lenspr2 equal -v_lenspr+0.1         # Position of supporting particle lower bound

variable den equal 2.2 #grams/cm^3      # micrometer^3=10^-12 cm^3 Density of materials

variable V1 equal (1/6)*PI*(v_d1^3)     # Volume of particle 1
variable V2 equal (1/6)*PI*(v_d2^3)     # Volume of particle 2
#variable V3 equal (1/6)*PI*(v_d3^3)     # Volume of particle 3

variable mass1 equal v_den*v_V1  # Mass of particle 1 (picograms)
variable mass2 equal v_den*v_V2  # Mass of particle 2
#variable mass3 equal v_den*v_V3  # Mass of particle 3

# E GPa to picogram/(micrometer-microsecond^2)= 10^3 Pa= 10^-6 GPa
# Force unit(picogram-micrometer/microsecond^2)=10^-9 N= 1nN
# Spring stiffness (force/distance) 10^-3 N/m

variable K0 equal (1500/50)*(10^5)             # Spring stiffness conneting top chain and sup particle
variable E equal 100*(10^6)                    # Young's Modulus using for Hertz/material model
variable PR equal 0.3                          # Poisson's ratio using for Hertz/material model
variable Fn equal -1000                        # Force apply to each particles in top chain
variable dt equal 0.00001                      # Time step units microsecond
variable lgv equal 0.5                         #damping for langevin thermostat for slider


################### Creating the model #################################
lattice sc ${lat1}                                                               # Bottom chain type1
lattice sc 5.5                                                               
Lattice spacing in x,y,z = 5.5 5.5 5.5

region box block ${n1e2} ${n1e1} -100 100 -100 100 units box
region box block -82.5 ${n1e1} -100 100 -100 100 units box
region box block -82.5 82.5 -100 100 -100 100 units box
region substrate block ${n1e2} ${n1e1} -0.5 0.5 0 0.5 units box
region substrate block -82.5 ${n1e1} -0.5 0.5 0 0.5 units box
region substrate block -82.5 82.5 -0.5 0.5 0 0.5 units box

create_box 2 box
Created orthogonal box = (-82.5 -100 -100) to (82.5 100 100)
  1 by 2 by 2 MPI processor grid
create_atoms 1 region substrate
Created 30 atoms
  using lattice units in orthogonal box = (-82.5 -100 -100) to (82.5 100 100)
  create_atoms CPU = 0.000 seconds

lattice sc ${lat2}                                                             # Top chain type2
lattice sc 3                                                             
Lattice spacing in x,y,z = 3 3 3

region slider1 block ${n2e2} ${n2e1} -0.1 0.1 5.9 6.1 units box
region slider1 block -30 ${n2e1} -0.1 0.1 5.9 6.1 units box
region slider1 block -30 30 -0.1 0.1 5.9 6.1 units box

create_atoms 2 region slider1
Created 21 atoms
  using lattice units in orthogonal box = (-82.5 -100 -100) to (82.5 100 100)
  create_atoms CPU = 0.001 seconds

#lattice sc ${lat0}                                                             # Supporting particle type3

#region support block ${lenspr1} ${lenspr2} -0.1 0.1 7.9 8.1 units box

#create_atoms 3 region support

set type 1 diameter ${d1}                    # Set mass and diameter for each particles type
set type 1 diameter 3                    
Setting atom values ...
  30 settings made for diameter
set type 1 mass ${mass1}
set type 1 mass 31.101767270539
Setting atom values ...
  30 settings made for mass
set type 2 diameter ${d2}
set type 2 diameter 3
Setting atom values ...
  21 settings made for diameter
set type 2 mass ${mass2}
set type 2 mass 31.101767270539
Setting atom values ...
  21 settings made for mass
#set type 3 diameter ${d3}
#set type 3 mass ${mass3}

group substrate region substrate           # Define gorup
30 atoms in group substrate
group slider1 region slider1
21 atoms in group slider1
#group support region support
#group substrate_slider union substrate slider1

########################## Potential ###################################
pair_style granular
pair_coeff 1 1 hertz/material 0.00000001 0.001 ${PR} tangential mindlin NULL 0.1 0.01 damping viscoelastic              ########### set E between each particle in same type is small to neglect their interaction
pair_coeff 1 1 hertz/material 0.00000001 0.001 0.3 tangential mindlin NULL 0.1 0.01 damping viscoelastic              
pair_coeff 2 2 hertz/material 0.00000001 0.001 ${PR} tangential mindlin NULL 0.1 0.01 damping viscoelastic
pair_coeff 2 2 hertz/material 0.00000001 0.001 0.3 tangential mindlin NULL 0.1 0.01 damping viscoelastic
#pair_coeff 3 3 hertz/material ${E} 0.001 ${PR} tangential mindlin NULL 0.1 0.01 damping viscoelastic
pair_coeff 1 2 hertz/material ${E} 0.001 ${PR} tangential mindlin NULL 0.1 0.01 damping viscoelastic
pair_coeff 1 2 hertz/material 100000000 0.001 ${PR} tangential mindlin NULL 0.1 0.01 damping viscoelastic
pair_coeff 1 2 hertz/material 100000000 0.001 0.3 tangential mindlin NULL 0.1 0.01 damping viscoelastic
#pair_coeff 1 3 hertz/material 0.00000001 0.001 ${PR} tangential mindlin NULL 0.1 0.01 damping viscoelastic
#pair_coeff 2 3 hertz/material 0.00000001 0.001 ${PR} tangential mindlin NULL 0.1 0.01 damping viscoelastic
comm_modify     vel yes
neigh_modify    delay 0 every 1 check yes

### Compute properties ###

compute 1 slider1 com                      # Compute the center of mass of top chain
#compute 2 support com                      # Compute the center of mass of supporting particle

variable p0 equal "step"

variable slider_z equal "c_1[3]"          # output the position of top chain in z-direction

#variable distance equal "c_2[1]-c_1[1]"   # Distance between COM of top chain and supporting particle

thermo 100000
thermo_style custom step lx ly lz press pxx pyy pzz ke pe temp c_1[1] c_1[2] c_1[3] #c_2[1] c_2[2] c_2[3] v_distance

############### Fix ##################


############## Equilibrium the system with apply force ########################

fix force_slider1 slider1 setforce NULL 0 NULL                                # Fix top chain not to move in y-direction

fix f_sub substrate freeze                                                    # Freeze the bottom chain

fix rigid_top slider1 rigid/nve group 1 slider1 langevin 0 0 ${lgv} 6987532   # NVE+langevin
fix rigid_top slider1 rigid/nve group 1 slider1 langevin 0 0 0.5 6987532   
  1 rigid bodies with 21 atoms

fix add slider1 addforce 0 0 ${Fn} every 1                                    # Add force to top layer
fix add slider1 addforce 0 0 -1000 every 1                                    

timestep ${dt}
timestep 1e-05

# fix  nve_1 slider1 nve

dump 		D1 all custom 100000 Equi_${num}_*.dump id type diameter mass xu yu zu fx fy fz
dump 		D1 all custom 100000 Equi_99_*.dump id type diameter mass xu yu zu fx fy fz

run 3000000
Generated 0 of 1 mixed pair_coeff terms from geometric mixing rule
Neighbor list info ...
  update every 1 steps, delay 0 steps, check yes
  max neighbors/atom: 2000, page size: 100000
  master list distance cutoff = 3.1
  ghost atom cutoff = 3.1
  binsize = 1.55, bins = 107 130 130
  1 neighbor lists, perpetual/occasional/extra = 1 0 0
  (1) pair granular, perpetual
      attributes: half, newton on, size, history
      pair build: half/size/bin/newton
      stencil: half/bin/3d
      bin: standard
Per MPI rank memory allocation (min/avg/max) = 14.81 | 18.27 | 19.43 Mbytes
   Step           Lx             Ly             Lz           Press           Pxx            Pyy            Pzz           KinEng         PotEng          Temp          c_1[1]         c_1[2]         c_1[3]    
         0   165            200            200            0              0              0              0              0              0              0              2.6109412e-16  0              6            
    100000   165            200            200            0.0025480911  -4.1745527e-37  0              0.0076442734   12014.743      0              5.8014896e+10  2.6109412e-16  0              3.3349048    
    200000   165            200            200            0.00078507714  3.4353132e-38  0              0.0023552314   2343.6804      0              1.1316794e+10  2.6109412e-16  0              3.1028566    
    300000   165            200            200           -0.00012141723  7.0546972e-38  0             -0.00036425169  152.16929      0              7.3477104e+08  2.6109412e-16  0              3.0359134    
    400000   165            200            200            0.011362301   -4.5255562e-36  0              0.034086904    34.123956      0              1.6477237e+08  2.6109412e-16  0              2.9887533    
    500000   165            200            200            0.00060726144 -1.5940122e-35  0              0.0018217843   0.28256333     0              1364397.2      2.6109412e-16  0              2.9984234    
    600000   165            200            200            0.0024024925  -3.3813507e-35  0              0.0072074776   2.0060182      0              9686344        2.6109412e-16  0              2.9960119    
    700000   165            200            200            0.0029660816   1.1919017e-36  0              0.0088982449   0.40764323     0              1968363.2      2.6109412e-16  0              2.995422     
    800000   165            200            200            0.0031203481   2.1442861e-36  0              0.0093610442   0.064682311    0              312327.73      2.6109412e-16  0              2.9952691    
    900000   165            200            200            0.0031635727   5.0596054e-38  0              0.0094907181   0.00958919     0              46302.767      2.6109412e-16  0              2.9952272    
   1000000   165            200            200            0.0031747283  -1.2382585e-37  0              0.0095241848   0.001358654    0              6560.4538      2.6109412e-16  0              2.9952166    
   1100000   165            200            200            0.0031770516  -2.1103062e-38  0              0.0095311547   0.00018485267  0              892.58741      2.6109412e-16  0              2.9952146    
   1200000   165            200            200            0.0031772397   8.0464179e-40  0              0.009531719    2.4169868e-05  0              116.70764      2.6109412e-16  0              2.9952145    
   1300000   165            200            200            0.003177063    5.0235154e-40  0              0.0095311891   3.0332123e-06  0              14.646297      2.6109412e-16  0              2.9952147    
   1400000   165            200            200            0.003176909    1.6962165e-39  0              0.009530727    3.6417715e-07  0              1.7584811      2.6109412e-16  0              2.9952148    
   1500000   165            200            200            0.0031768207   1.6248906e-38  0              0.0095304621   4.1594092e-08  0              0.20084298     2.6109412e-16  0              2.9952149    
   1600000   165            200            200            0.0031767772   2.040803e-38   0              0.0095303317   4.4770206e-09  0              0.02161793     2.6109412e-16  0              2.995215     
   1700000   165            200            200            0.0031767575  -4.2281495e-39  0              0.0095302725   4.4712617e-10  0              0.0021590122   2.6109412e-16  0              2.995215     
   1800000   165            200            200            0.003176749    5.4178477e-39  0              0.009530247    4.0319429e-11  0              0.00019468809  2.6109412e-16  0              2.995215     
   1900000   165            200            200            0.0031767455  -1.1919081e-38  0              0.0095302365   3.1128792e-12  0              1.503098e-05   2.6109412e-16  0              2.995215     
   2000000   165            200            200            0.0031767441   3.151823e-38   0              0.0095302322   1.8147499e-13  0              8.762778e-07   2.6109412e-16  0              2.995215     
   2100000   165            200            200            0.0031767435  -4.2065386e-39  0              0.0095302306   5.1285645e-15  0              2.4764002e-08  2.6109412e-16  0              2.995215     
   2200000   165            200            200            0.0031767433   4.2375295e-39  0              0.00953023     2.9341817e-17  0              1.4168113e-10  2.6109412e-16  0              2.995215     
   2300000   165            200            200            0.0031767432   1.2126582e-38  0              0.0095302297   1.8605518e-16  0              8.9839386e-10  2.6109412e-16  0              2.995215     
   2400000   165            200            200            0.0031767432   4.7569823e-38  0              0.0095302296   8.4884425e-17  0              4.0987651e-10  2.6109412e-16  0              2.995215     
   2500000   165            200            200            0.0031767432  -1.6322529e-38  0              0.0095302296   2.4086519e-17  0              1.1630518e-10  2.6109412e-16  0              2.995215     
   2600000   165            200            200            0.0031767432   5.5874811e-38  0              0.0095302296   5.7279011e-18  0              2.7657984e-11  2.6109412e-16  0              2.995215     
   2700000   165            200            200            0.0031767432   4.4751425e-38  0              0.0095302296   1.1072115e-18  0              5.346328e-12   2.6109412e-16  0              2.995215     
   2800000   165            200            200            0.0031767432   4.2129208e-38  0              0.0095302296   2.5134131e-19  0              1.2136372e-12  2.6109412e-16  0              2.995215     
   2900000   165            200            200            0.0031767432   4.3234566e-40  0              0.0095302296   2.8897368e-22  0              1.3953505e-15  2.6109412e-16  0              2.995215     
   3000000   165            200            200            0.0031767432   9.4525624e-39  0              0.0095302296   1.2444495e-19  0              6.0090014e-13  2.6109412e-16  0              2.995215     
Loop time of 64.0377 on 4 procs for 3000000 steps with 51 atoms

Performance: 40476156.831 ns/day, 0.000 hours/ns, 46847.404 timesteps/s
100.0% CPU use with 4 MPI tasks x 1 OpenMP threads

MPI task timing breakdown:
Section |  min time  |  avg time  |  max time  |%varavg| %total
---------------------------------------------------------------
Pair    | 0.33483    | 1.5737     | 5.1742     | 165.7 |  2.46
Neigh   | 0.084404   | 0.084983   | 0.086503   |   0.3 |  0.13
Comm    | 25.736     | 32.131     | 37.875     |  82.6 | 50.17
Output  | 0.059048   | 0.059123   | 0.059174   |   0.0 |  0.09
Modify  | 15.272     | 21.021     | 28.117     | 119.2 | 32.83
Other   |            | 9.168      |            |       | 14.32

Nlocal:          12.75 ave          51 max           0 min
Histogram: 3 0 0 0 0 0 0 0 0 1
Nghost:          39.25 ave          52 max           1 min
Histogram: 1 0 0 0 0 0 0 0 0 3
Neighs:           6.25 ave          25 max           0 min
Histogram: 3 0 0 0 0 0 0 0 0 1

Total # of neighbors = 25
Ave neighs/atom = 0.49019608
Neighbor list builds = 166
Dangerous builds = 0

undump D1

############ Add spring between top chain to supp particle and then equilibrium  ###########

#fix sp1 support spring couple slider1 ${K0} ${lenspr} NULL NULL 0                                 # Add spring

#dump 		D2 all custom 100000 add_${num}*.dump id type diameter mass xu yu zu

#fix add1 all print 10 "${p0} ${distance} ${slider_z}" file add_distance_${num}.txt screen no      # out put step, distance(spring length), z-position of top chain

#run 1000000

#undump D2

#unfix add1

########## Pulling the supporting particle with constant velocity #############

#fix m1 support move linear 0.1 0 0 units box                                                      # apply constant velocity to supporting particles along x-direction V=0.1m/s

#fix move1 all print 100 "${p0} ${distance} ${slider_z}" file move_distance_${num}.txt screen no

#dump 		1 all custom 50000 move_${num}_*.dump id type diameter mass xu yu zu

#run 1000000

clear
  using 1 OpenMP thread(s) per MPI task

next num

jump SELF startloop
Total wall time: 1:46:49
