ITEM: TIMESTEP
1600000
ITEM: NUMBER OF ATOMS
51
ITEM: BOX BOUNDS pp pp pp
-6.3639610306789400e+01 6.3639610306789400e+01
-1.0000000000000000e+02 1.0000000000000000e+02
-1.0000000000000000e+02 1.0000000000000000e+02
ITEM: ATOMS id type diameter mass xu yu zu
1 1 3.09 33.9857 -63.6396 0 0
2 1 3.09 33.9857 -59.397 0 0
3 1 3.09 33.9857 -55.1543 0 0
4 1 3.09 33.9857 -50.9117 0 0
5 1 3.09 33.9857 -46.669 0 0
6 1 3.09 33.9857 -42.4264 0 0
7 1 3.09 33.9857 -38.1838 0 0
8 1 3.09 33.9857 -33.9411 0 0
9 1 3.09 33.9857 -29.6985 0 0
10 1 3.09 33.9857 -25.4558 0 0
11 1 3.09 33.9857 -21.2132 0 0
12 1 3.09 33.9857 -16.9706 0 0
13 1 3.09 33.9857 -12.7279 0 0
14 1 3.09 33.9857 -8.48528 0 0
15 1 3.09 33.9857 -4.24264 0 0
16 1 3.09 33.9857 0 0 0
17 1 3.09 33.9857 4.24264 0 0
18 1 3.09 33.9857 8.48528 0 0
19 1 3.09 33.9857 12.7279 0 0
20 1 3.09 33.9857 16.9706 0 0
21 1 3.09 33.9857 21.2132 0 0
22 1 3.09 33.9857 25.4558 0 0
23 1 3.09 33.9857 29.6985 0 0
24 1 3.09 33.9857 33.9411 0 0
25 1 3.09 33.9857 38.1838 0 0
26 1 3.09 33.9857 42.4264 0 0
27 1 3.09 33.9857 46.669 0 0
28 1 3.09 33.9857 50.9117 0 0
29 1 3.09 33.9857 55.1543 0 0
30 1 3.09 33.9857 59.397 0 0
31 2 3 31.1018 -30 0 3.04024
32 2 3 31.1018 -27 0 3.04024
33 2 3 31.1018 -24 0 3.04024
34 2 3 31.1018 -21 0 3.04024
35 2 3 31.1018 -18 0 3.04024
36 2 3 31.1018 -15 0 3.04024
37 2 3 31.1018 -12 0 3.04024
38 2 3 31.1018 -9 0 3.04024
39 2 3 31.1018 -6 0 3.04024
40 2 3 31.1018 -3 0 3.04024
41 2 3 31.1018 5.26232e-17 0 3.04024
42 2 3 31.1018 3 0 3.04024
43 2 3 31.1018 6 0 3.04024
44 2 3 31.1018 9 0 3.04024
45 2 3 31.1018 12 0 3.04024
46 2 3 31.1018 15 0 3.04024
47 2 3 31.1018 18 0 3.04024
48 2 3 31.1018 21 0 3.04024
49 2 3 31.1018 24 0 3.04024
50 2 3 31.1018 27 0 3.04024
51 2 3 31.1018 30 0 3.04024
