ITEM: TIMESTEP
800000
ITEM: NUMBER OF ATOMS
51
ITEM: BOX BOUNDS pp pp pp
-6.3639610306789400e+01 6.3639610306789400e+01
-1.0000000000000000e+02 1.0000000000000000e+02
-1.0000000000000000e+02 1.0000000000000000e+02
ITEM: ATOMS id type diameter mass xu yu zu
1 1 3 31.1018 -63.6396 0 0
2 1 3 31.1018 -59.397 0 0
3 1 3 31.1018 -55.1543 0 0
4 1 3 31.1018 -50.9117 0 0
5 1 3 31.1018 -46.669 0 0
6 1 3 31.1018 -42.4264 0 0
7 1 3 31.1018 -38.1838 0 0
8 1 3 31.1018 -33.9411 0 0
9 1 3 31.1018 -29.6985 0 0
10 1 3 31.1018 -25.4558 0 0
11 1 3 31.1018 -21.2132 0 0
12 1 3 31.1018 -16.9706 0 0
13 1 3 31.1018 -12.7279 0 0
14 1 3 31.1018 -8.48528 0 0
15 1 3 31.1018 -4.24264 0 0
16 1 3 31.1018 0 0 0
17 1 3 31.1018 4.24264 0 0
18 1 3 31.1018 8.48528 0 0
19 1 3 31.1018 12.7279 0 0
20 1 3 31.1018 16.9706 0 0
21 1 3 31.1018 21.2132 0 0
22 1 3 31.1018 25.4558 0 0
23 1 3 31.1018 29.6985 0 0
24 1 3 31.1018 33.9411 0 0
25 1 3 31.1018 38.1838 0 0
26 1 3 31.1018 42.4264 0 0
27 1 3 31.1018 46.669 0 0
28 1 3 31.1018 50.9117 0 0
29 1 3 31.1018 55.1543 0 0
30 1 3 31.1018 59.397 0 0
31 2 3 31.1018 -30 0 2.99531
32 2 3 31.1018 -27 0 2.99531
33 2 3 31.1018 -24 0 2.99531
34 2 3 31.1018 -21 0 2.99531
35 2 3 31.1018 -18 0 2.99531
36 2 3 31.1018 -15 0 2.99531
37 2 3 31.1018 -12 0 2.99531
38 2 3 31.1018 -9 0 2.99531
39 2 3 31.1018 -6 0 2.99531
40 2 3 31.1018 -3 0 2.99531
41 2 3 31.1018 4.00515e-17 0 2.99531
42 2 3 31.1018 3 0 2.99531
43 2 3 31.1018 6 0 2.99531
44 2 3 31.1018 9 0 2.99531
45 2 3 31.1018 12 0 2.99531
46 2 3 31.1018 15 0 2.99531
47 2 3 31.1018 18 0 2.99531
48 2 3 31.1018 21 0 2.99531
49 2 3 31.1018 24 0 2.99531
50 2 3 31.1018 27 0 2.99531
51 2 3 31.1018 30 0 2.99531
