LAMMPS (23 Jun 2022 - Update 1)
  using 1 OpenMP thread(s) per MPI task
variable num index 0 1 2 3 4 5 6 7 8 9 10 11 12 13 14 15 16 17 18 19 20 21 22 23 24 25 26 27 28 29 30 31 32 33 34 35 36 37 38 39 40 41 42 43 44 45 46 47 48 49 50

label startloop

include granular.in
### Simulation of contact between two chain

##################### Simulation setup ####################

units micro                              # units
dimension	3                            # dimension
boundary	p p p                        # boundary condition p: periodic
atom_style	sphere                       # atom style
#processors * * 1

####################### Parameter ##################################

variable ind equal ${num}
variable ind equal 0

#variable lat0 equal 1                    #
variable lat1 equal 3*(2^(1/2))       # Lattice distance of bottom chain
variable lat2 equal 3                   # Lattice distance of top chain
variable d1 equal 3+(v_ind*0.01)                      # Diamter of particle at bottom chain
variable d2 equal 3                      # Diamter of particle at top chain
#variable d3 equal 1                      # Diamter of supporting particle

variable n2e1 equal 10*v_lat2              # Half length of top chain. 1500 is number of particles
variable n1e1 equal 1.5*v_n2e1*(v_lat1/v_lat2)               # Half length of bottom chain, which is 1.5 time larger than top chain
variable n1e2 equal -v_n1e1
variable n2e2 equal -v_n2e1
#variable lenspr equal -(v_n2e1+100)           # length of the spring connecting top chain and supporting particle
#variable lenspr1 equal -v_lenspr-0.1         # Position of supporting particle upper bound
#variable lenspr2 equal -v_lenspr+0.1         # Position of supporting particle lower bound

variable den equal 2.2 #grams/cm^3      # micrometer^3=10^-12 cm^3 Density of materials
#variable den2 equal 1.5

variable V1 equal (1/6)*PI*(v_d1^3)     # Volume of particle 1
variable V2 equal (1/6)*PI*(v_d2^3)     # Volume of particle 2
#variable V3 equal (1/6)*PI*(v_d3^3)     # Volume of particle 3

variable mass1 equal v_den*v_V1  # Mass of particle 1 (picograms)
variable mass2 equal v_den*v_V2  # Mass of particle 2
#variable mass3 equal v_den*v_V3  # Mass of particle 3

# E GPa to picogram/(micrometer-microsecond^2)= 10^3 Pa= 10^-6 GPa
# Force unit(picogram-micrometer/microsecond^2)=10^-9 N= 1nN
# Spring stiffness (force/distance) 10^-3 N/m

variable K0 equal (1500/50)*(10^5)             # Spring stiffness conneting top chain and sup particle
variable E equal 100*(10^6)                    # Young's Modulus using for Hertz/material model
variable PR equal 0.3                          # Poisson's ratio using for Hertz/material model
variable Fn equal -1000 #-(v_ind*100)                       # Force apply to each particles in top chain
variable dt equal 0.00001                      # Time step units microsecond
variable lgv equal 0.5                         #damping for langevin thermostat for slider


################### Creating the model #################################
lattice sc ${lat1}                                                               # Bottom chain type1
lattice sc 4.24264068711929                                                               
Lattice spacing in x,y,z = 4.2426407 4.2426407 4.2426407

region box block ${n1e2} ${n1e1} -100 100 -100 100 units box
region box block -63.6396103067894 ${n1e1} -100 100 -100 100 units box
region box block -63.6396103067894 63.6396103067894 -100 100 -100 100 units box
region substrate block ${n1e2} ${n1e1} -0.5 0.5 0 0.5 units box
region substrate block -63.6396103067894 ${n1e1} -0.5 0.5 0 0.5 units box
region substrate block -63.6396103067894 63.6396103067894 -0.5 0.5 0 0.5 units box

create_box 2 box
Created orthogonal box = (-63.63961 -100 -100) to (63.63961 100 100)
  1 by 2 by 2 MPI processor grid
create_atoms 1 region substrate
Created 30 atoms
  using lattice units in orthogonal box = (-63.63961 -100 -100) to (63.63961 100 100)
  create_atoms CPU = 0.002 seconds

lattice sc ${lat2}                                                             # Top chain type2
lattice sc 3                                                             
Lattice spacing in x,y,z = 3 3 3

region slider1 block ${n2e2} ${n2e1} -0.1 0.1 5.9 6.1 units box
region slider1 block -30 ${n2e1} -0.1 0.1 5.9 6.1 units box
region slider1 block -30 30 -0.1 0.1 5.9 6.1 units box

create_atoms 2 region slider1
Created 21 atoms
  using lattice units in orthogonal box = (-63.63961 -100 -100) to (63.63961 100 100)
  create_atoms CPU = 0.004 seconds

#lattice sc ${lat0}                                                             # Supporting particle type3

#region support block ${lenspr1} ${lenspr2} -0.1 0.1 7.9 8.1 units box

#create_atoms 3 region support

set type 1 diameter ${d1}                    # Set mass and diameter for each particles type
set type 1 diameter 3                    
Setting atom values ...
  30 settings made for diameter
set type 1 mass ${mass1}
set type 1 mass 31.101767270539
Setting atom values ...
  30 settings made for mass
set type 2 diameter ${d2}
set type 2 diameter 3
Setting atom values ...
  21 settings made for diameter
set type 2 mass ${mass2}
set type 2 mass 31.101767270539
Setting atom values ...
  21 settings made for mass
#set type 3 diameter ${d3}
#set type 3 mass ${mass3}

group substrate region substrate           # Define gorup
30 atoms in group substrate
group slider1 region slider1
21 atoms in group slider1
#group support region support
group substrate_slider union substrate slider1
51 atoms in group substrate_slider

########################## Potential ###################################
pair_style granular
pair_coeff 1 1 hertz/material 0.00000001 0.001 ${PR} tangential mindlin NULL 0.1 0.01 damping viscoelastic              ########### set E between each particle in same type is small to neglect their interaction
pair_coeff 1 1 hertz/material 0.00000001 0.001 0.3 tangential mindlin NULL 0.1 0.01 damping viscoelastic              
pair_coeff 2 2 hertz/material 0.00000001 0.001 ${PR} tangential mindlin NULL 0.1 0.01 damping viscoelastic
pair_coeff 2 2 hertz/material 0.00000001 0.001 0.3 tangential mindlin NULL 0.1 0.01 damping viscoelastic
#pair_coeff 3 3 hertz/material ${E} 0.001 ${PR} tangential mindlin NULL 0.1 0.01 damping viscoelastic
pair_coeff 1 2 hertz/material ${E} 0.001 ${PR} tangential mindlin NULL 0.1 0.01 damping viscoelastic
pair_coeff 1 2 hertz/material 100000000 0.001 ${PR} tangential mindlin NULL 0.1 0.01 damping viscoelastic
pair_coeff 1 2 hertz/material 100000000 0.001 0.3 tangential mindlin NULL 0.1 0.01 damping viscoelastic
#pair_coeff 1 3 hertz/material 0.00000001 0.001 ${PR} tangential mindlin NULL 0.1 0.01 damping viscoelastic
#pair_coeff 2 3 hertz/material 0.00000001 0.001 ${PR} tangential mindlin NULL 0.1 0.01 damping viscoelastic
comm_modify     vel yes
neigh_modify    delay 0 every 1 check yes

### Compute properties ###

compute 1 slider1 com                      # Compute the center of mass of top chain
#compute 2 support com                      # Compute the center of mass of supporting particle

variable p0 equal "step"

variable slider_z equal "c_1[3]"          # output the position of top chain in z-direction

#variable distance equal "c_2[1]-c_1[1]"   # Distance between COM of top chain and supporting particle

thermo 100000
thermo_style custom step lx ly lz press pxx pyy pzz ke pe temp c_1[1] c_1[2] c_1[3] #c_2[1] c_2[2] c_2[3] v_distance

############### Fix ##################


############## Equilibrium the system with apply force ########################

fix force_slider1 slider1 setforce NULL 0 NULL                                # Fix top chain not to move in y-direction

fix f_sub substrate freeze                                                    # Freeze the bottom chain

fix rigid_top slider1 rigid/nve group 1 slider1 langevin 0 0 ${lgv} 6987532   # NVE+langevin
fix rigid_top slider1 rigid/nve group 1 slider1 langevin 0 0 0.5 6987532   
  1 rigid bodies with 21 atoms

fix add slider1 addforce 0 0 ${Fn} every 1                                    # Add force to top layer
fix add slider1 addforce 0 0 -1000 every 1                                    

timestep ${dt}
timestep 1e-05

# fix  nve_1 slider1 nve

dump 		D1 all custom 100000 Equi_${num}_*.dump id type diameter mass xu yu zu
dump 		D1 all custom 100000 Equi_0_*.dump id type diameter mass xu yu zu

run 3000000
Generated 0 of 1 mixed pair_coeff terms from geometric mixing rule
Neighbor list info ...
  update every 1 steps, delay 0 steps, check yes
  max neighbors/atom: 2000, page size: 100000
  master list distance cutoff = 3.1
  ghost atom cutoff = 3.1
  binsize = 1.55, bins = 83 130 130
  1 neighbor lists, perpetual/occasional/extra = 1 0 0
  (1) pair granular, perpetual
      attributes: half, newton on, size, history
      pair build: half/size/bin/newton
      stencil: half/bin/3d
      bin: standard
Per MPI rank memory allocation (min/avg/max) = 14.34 | 17.81 | 18.97 Mbytes
   Step           Lx             Ly             Lz           Press           Pxx            Pyy            Pzz           KinEng         PotEng          Temp          c_1[1]         c_1[2]         c_1[3]    
         0   127.27922      200            200            0              0              0              0              0              0              0              2.6109412e-16  0              6            
    100000   127.27922      200            200            0.0033552875   1.5131607e-40  0              0.010065862    12296.1        0              5.9373464e+10  2.6109412e-16  0              3.3254829    
    200000   127.27922      200            200            0.0012014045   4.8426437e-38  0              0.0036042136   3048.1392      0              1.4718373e+10  2.6109412e-16  0              3.0706213    
    300000   127.27922      200            200            9.5150698e-05  6.2344793e-37  0              0.00028545209  39.114055      0              1.8886778e+08  2.6109412e-16  0              3.0444002    
    400000   127.27922      200            200            0.00015829837 -1.2032192e-36  0              0.00047489512  103.85279      0              5.0146798e+08  2.6109412e-16  0              3.0018397    
    500000   127.27922      200            200            0.00098763195 -1.7634937e-36  0              0.0029628959   3.6628191      0              17686442       2.6109412e-16  0              2.9981887    
    600000   127.27922      200            200            0.0028920814  -6.880602e-36   0              0.0086762443   0.81637994     0              3942006.5      2.6109412e-16  0              2.9962093    
    700000   127.27922      200            200            0.003724962    1.6534477e-37  0              0.011174886    0.23280356     0              1124125.1      2.6109412e-16  0              2.9955195    
    800000   127.27922      200            200            0.0039939654  -3.8577117e-37  0              0.011981896    0.04307522     0              207994.82      2.6109412e-16  0              2.9953095    
    900000   127.27922      200            200            0.0040806184  -1.1718147e-37  0              0.012241855    0.0071799293   0              34669.309      2.6109412e-16  0              2.9952433    
   1000000   127.27922      200            200            0.0041076159  -8.4998058e-38  0              0.012322848    0.0011264569   0              5439.2574      2.6109412e-16  0              2.9952229    
   1100000   127.27922      200            200            0.0041155765   5.0503098e-38  0              0.012346729    0.00016839131  0              813.10137      2.6109412e-16  0              2.9952169    
   1200000   127.27922      200            200            0.0041177248   5.6016825e-40  0              0.012353174    2.4116048e-05  0              116.44776      2.6109412e-16  0              2.9952153    
   1300000   127.27922      200            200            0.004118213    1.3346303e-39  0              0.012354639    3.3174822e-06  0              16.018934      2.6109412e-16  0              2.995215     
   1400000   127.27922      200            200            0.0041182781   1.940825e-39   0              0.012354834    4.386754e-07   0              2.1182065      2.6109412e-16  0              2.995215     
   1500000   127.27922      200            200            0.0041182594  -1.6317634e-39  0              0.012354778    5.5707367e-08  0              0.26899094     2.6109412e-16  0              2.995215     
   1600000   127.27922      200            200            0.004118237   -4.6645093e-39  0              0.012354711    6.7756915e-09  0              0.032717389    2.6109412e-16  0              2.995215     
   1700000   127.27922      200            200            0.0041182232  -2.651817e-39   0              0.01235467     7.8547267e-10  0              0.0037927664   2.6109412e-16  0              2.995215     
   1800000   127.27922      200            200            0.0041182162   6.8636901e-40  0              0.012354649    8.6080314e-11  0              0.00041565103  2.6109412e-16  0              2.995215     
   1900000   127.27922      200            200            0.0041182129   1.0239436e-38  0              0.012354639    8.7990204e-12  0              4.2487321e-05  2.6109412e-16  0              2.995215     
   2000000   127.27922      200            200            0.0041182115  -5.4640412e-39  0              0.012354635    8.1977225e-13  0              3.9583868e-06  2.6109412e-16  0              2.995215     
   2100000   127.27922      200            200            0.0041182109  -6.4603724e-39  0              0.012354633    6.6663024e-14  0              3.2189189e-07  2.6109412e-16  0              2.995215     
   2200000   127.27922      200            200            0.0041182107   8.4740598e-39  0              0.012354632    4.2910438e-15  0              2.0719915e-08  2.6109412e-16  0              2.995215     
   2300000   127.27922      200            200            0.0041182106  -3.0144079e-39  0              0.012354632    1.6323479e-16  0              7.8820239e-10  2.6109412e-16  0              2.995215     
   2400000   127.27922      200            200            0.0041182106   1.3563303e-38  0              0.012354632    1.4508953e-19  0              7.0058541e-13  2.6109412e-16  0              2.995215     
   2500000   127.27922      200            200            0.0041182105  -1.3197109e-38  0              0.012354632    1.639132e-18   0              7.9147816e-12  2.6109412e-16  0              2.995215     
   2600000   127.27922      200            200            0.0041182105  -4.593851e-39   0              0.012354632    1.2339283e-18  0              5.958198e-12   2.6109412e-16  0              2.995215     
   2700000   127.27922      200            200            0.0041182105  -5.5510034e-40  0              0.012354632    3.3617648e-19  0              1.6232759e-12  2.6109412e-16  0              2.995215     
   2800000   127.27922      200            200            0.0041182105  -7.1129742e-39  0              0.012354632    1.0887845e-19  0              5.2573507e-13  2.6109412e-16  0              2.995215     
   2900000   127.27922      200            200            0.0041182105   1.0859688e-38  0              0.012354632    2.6326439e-20  0              1.2712095e-13  2.6109412e-16  0              2.995215     
   3000000   127.27922      200            200            0.0041182105  -1.924486e-38   0              0.012354632    1.4200169e-20  0              6.8567533e-14  2.6109412e-16  0              2.995215     
Loop time of 71.3976 on 4 procs for 3000000 steps with 51 atoms

Performance: 36303725.882 ns/day, 0.000 hours/ns, 42018.201 timesteps/s
99.9% CPU use with 4 MPI tasks x 1 OpenMP threads

MPI task timing breakdown:
Section |  min time  |  avg time  |  max time  |%varavg| %total
---------------------------------------------------------------
Pair    | 0.23825    | 1.3326     | 4.3992     | 153.4 |  1.87
Neigh   | 0.096417   | 0.097848   | 0.10058    |   0.5 |  0.14
Comm    | 30.604     | 38.212     | 44.665     |  92.4 | 53.52
Output  | 0.058128   | 0.058461   | 0.058866   |   0.1 |  0.08
Modify  | 15.533     | 22.345     | 30.677     | 140.3 | 31.30
Other   |            | 9.351      |            |       | 13.10

Nlocal:          12.75 ave          51 max           0 min
Histogram: 3 0 0 0 0 0 0 0 0 1
Nghost:          39.25 ave          52 max           1 min
Histogram: 1 0 0 0 0 0 0 0 0 3
Neighs:           7.25 ave          29 max           0 min
Histogram: 3 0 0 0 0 0 0 0 0 1

Total # of neighbors = 29
Ave neighs/atom = 0.56862745
Neighbor list builds = 164
Dangerous builds = 0

undump D1

############ Add spring between top chain to supp particle and then equilibrium  ###########

#fix sp1 support spring couple slider1 ${K0} ${lenspr} NULL NULL 0                                 # Add spring

#dump 		D2 all custom 100000 add_${num}*.dump id type diameter mass xu yu zu

#fix add1 all print 10 "${p0} ${distance} ${slider_z}" file add_distance_${num}.txt screen no      # out put step, distance(spring length), z-position of top chain

#run 1000000

#undump D2

#unfix add1

########## Pulling the supporting particle with constant velocity #############

#fix m1 support move linear 0.1 0 0 units box                                                      # apply constant velocity to supporting particles along x-direction V=0.1m/s

#fix move1 all print 100 "${p0} ${distance} ${slider_z}" file move_distance_${num}.txt screen no

#dump 		1 all custom 50000 move_${num}_*.dump id type diameter mass xu yu zu

#run 1000000

clear
  using 1 OpenMP thread(s) per MPI task

next num

jump SELF startloop

include granular.in
### Simulation of contact between two chain

##################### Simulation setup ####################

units micro                              # units
dimension	3                            # dimension
boundary	p p p                        # boundary condition p: periodic
atom_style	sphere                       # atom style
#processors * * 1

####################### Parameter ##################################

variable ind equal ${num}
variable ind equal 1

#variable lat0 equal 1                    #
variable lat1 equal 3*(2^(1/2))       # Lattice distance of bottom chain
variable lat2 equal 3                   # Lattice distance of top chain
variable d1 equal 3+(v_ind*0.01)                      # Diamter of particle at bottom chain
variable d2 equal 3                      # Diamter of particle at top chain
#variable d3 equal 1                      # Diamter of supporting particle

variable n2e1 equal 10*v_lat2              # Half length of top chain. 1500 is number of particles
variable n1e1 equal 1.5*v_n2e1*(v_lat1/v_lat2)               # Half length of bottom chain, which is 1.5 time larger than top chain
variable n1e2 equal -v_n1e1
variable n2e2 equal -v_n2e1
#variable lenspr equal -(v_n2e1+100)           # length of the spring connecting top chain and supporting particle
#variable lenspr1 equal -v_lenspr-0.1         # Position of supporting particle upper bound
#variable lenspr2 equal -v_lenspr+0.1         # Position of supporting particle lower bound

variable den equal 2.2 #grams/cm^3      # micrometer^3=10^-12 cm^3 Density of materials
#variable den2 equal 1.5

variable V1 equal (1/6)*PI*(v_d1^3)     # Volume of particle 1
variable V2 equal (1/6)*PI*(v_d2^3)     # Volume of particle 2
#variable V3 equal (1/6)*PI*(v_d3^3)     # Volume of particle 3

variable mass1 equal v_den*v_V1  # Mass of particle 1 (picograms)
variable mass2 equal v_den*v_V2  # Mass of particle 2
#variable mass3 equal v_den*v_V3  # Mass of particle 3

# E GPa to picogram/(micrometer-microsecond^2)= 10^3 Pa= 10^-6 GPa
# Force unit(picogram-micrometer/microsecond^2)=10^-9 N= 1nN
# Spring stiffness (force/distance) 10^-3 N/m

variable K0 equal (1500/50)*(10^5)             # Spring stiffness conneting top chain and sup particle
variable E equal 100*(10^6)                    # Young's Modulus using for Hertz/material model
variable PR equal 0.3                          # Poisson's ratio using for Hertz/material model
variable Fn equal -1000 #-(v_ind*100)                       # Force apply to each particles in top chain
variable dt equal 0.00001                      # Time step units microsecond
variable lgv equal 0.5                         #damping for langevin thermostat for slider


################### Creating the model #################################
lattice sc ${lat1}                                                               # Bottom chain type1
lattice sc 4.24264068711929                                                               
Lattice spacing in x,y,z = 4.2426407 4.2426407 4.2426407

region box block ${n1e2} ${n1e1} -100 100 -100 100 units box
region box block -63.6396103067894 ${n1e1} -100 100 -100 100 units box
region box block -63.6396103067894 63.6396103067894 -100 100 -100 100 units box
region substrate block ${n1e2} ${n1e1} -0.5 0.5 0 0.5 units box
region substrate block -63.6396103067894 ${n1e1} -0.5 0.5 0 0.5 units box
region substrate block -63.6396103067894 63.6396103067894 -0.5 0.5 0 0.5 units box

create_box 2 box
Created orthogonal box = (-63.63961 -100 -100) to (63.63961 100 100)
  1 by 2 by 2 MPI processor grid
create_atoms 1 region substrate
Created 30 atoms
  using lattice units in orthogonal box = (-63.63961 -100 -100) to (63.63961 100 100)
  create_atoms CPU = 0.001 seconds

lattice sc ${lat2}                                                             # Top chain type2
lattice sc 3                                                             
Lattice spacing in x,y,z = 3 3 3

region slider1 block ${n2e2} ${n2e1} -0.1 0.1 5.9 6.1 units box
region slider1 block -30 ${n2e1} -0.1 0.1 5.9 6.1 units box
region slider1 block -30 30 -0.1 0.1 5.9 6.1 units box

create_atoms 2 region slider1
Created 21 atoms
  using lattice units in orthogonal box = (-63.63961 -100 -100) to (63.63961 100 100)
  create_atoms CPU = 0.004 seconds

#lattice sc ${lat0}                                                             # Supporting particle type3

#region support block ${lenspr1} ${lenspr2} -0.1 0.1 7.9 8.1 units box

#create_atoms 3 region support

set type 1 diameter ${d1}                    # Set mass and diameter for each particles type
set type 1 diameter 3.01                    
Setting atom values ...
  30 settings made for diameter
set type 1 mass ${mass1}
set type 1 mass 31.4138228207373
Setting atom values ...
  30 settings made for mass
set type 2 diameter ${d2}
set type 2 diameter 3
Setting atom values ...
  21 settings made for diameter
set type 2 mass ${mass2}
set type 2 mass 31.101767270539
Setting atom values ...
  21 settings made for mass
#set type 3 diameter ${d3}
#set type 3 mass ${mass3}

group substrate region substrate           # Define gorup
30 atoms in group substrate
group slider1 region slider1
21 atoms in group slider1
#group support region support
group substrate_slider union substrate slider1
51 atoms in group substrate_slider

########################## Potential ###################################
pair_style granular
pair_coeff 1 1 hertz/material 0.00000001 0.001 ${PR} tangential mindlin NULL 0.1 0.01 damping viscoelastic              ########### set E between each particle in same type is small to neglect their interaction
pair_coeff 1 1 hertz/material 0.00000001 0.001 0.3 tangential mindlin NULL 0.1 0.01 damping viscoelastic              
pair_coeff 2 2 hertz/material 0.00000001 0.001 ${PR} tangential mindlin NULL 0.1 0.01 damping viscoelastic
pair_coeff 2 2 hertz/material 0.00000001 0.001 0.3 tangential mindlin NULL 0.1 0.01 damping viscoelastic
#pair_coeff 3 3 hertz/material ${E} 0.001 ${PR} tangential mindlin NULL 0.1 0.01 damping viscoelastic
pair_coeff 1 2 hertz/material ${E} 0.001 ${PR} tangential mindlin NULL 0.1 0.01 damping viscoelastic
pair_coeff 1 2 hertz/material 100000000 0.001 ${PR} tangential mindlin NULL 0.1 0.01 damping viscoelastic
pair_coeff 1 2 hertz/material 100000000 0.001 0.3 tangential mindlin NULL 0.1 0.01 damping viscoelastic
#pair_coeff 1 3 hertz/material 0.00000001 0.001 ${PR} tangential mindlin NULL 0.1 0.01 damping viscoelastic
#pair_coeff 2 3 hertz/material 0.00000001 0.001 ${PR} tangential mindlin NULL 0.1 0.01 damping viscoelastic
comm_modify     vel yes
neigh_modify    delay 0 every 1 check yes

### Compute properties ###

compute 1 slider1 com                      # Compute the center of mass of top chain
#compute 2 support com                      # Compute the center of mass of supporting particle

variable p0 equal "step"

variable slider_z equal "c_1[3]"          # output the position of top chain in z-direction

#variable distance equal "c_2[1]-c_1[1]"   # Distance between COM of top chain and supporting particle

thermo 100000
thermo_style custom step lx ly lz press pxx pyy pzz ke pe temp c_1[1] c_1[2] c_1[3] #c_2[1] c_2[2] c_2[3] v_distance

############### Fix ##################


############## Equilibrium the system with apply force ########################

fix force_slider1 slider1 setforce NULL 0 NULL                                # Fix top chain not to move in y-direction

fix f_sub substrate freeze                                                    # Freeze the bottom chain

fix rigid_top slider1 rigid/nve group 1 slider1 langevin 0 0 ${lgv} 6987532   # NVE+langevin
fix rigid_top slider1 rigid/nve group 1 slider1 langevin 0 0 0.5 6987532   
  1 rigid bodies with 21 atoms

fix add slider1 addforce 0 0 ${Fn} every 1                                    # Add force to top layer
fix add slider1 addforce 0 0 -1000 every 1                                    

timestep ${dt}
timestep 1e-05

# fix  nve_1 slider1 nve

dump 		D1 all custom 100000 Equi_${num}_*.dump id type diameter mass xu yu zu
dump 		D1 all custom 100000 Equi_1_*.dump id type diameter mass xu yu zu

run 3000000
Generated 0 of 1 mixed pair_coeff terms from geometric mixing rule
Neighbor list info ...
  update every 1 steps, delay 0 steps, check yes
  max neighbors/atom: 2000, page size: 100000
  master list distance cutoff = 3.11
  ghost atom cutoff = 3.11
  binsize = 1.555, bins = 82 129 129
  1 neighbor lists, perpetual/occasional/extra = 1 0 0
  (1) pair granular, perpetual
      attributes: half, newton on, size, history
      pair build: half/size/bin/newton
      stencil: half/bin/3d
      bin: standard
Per MPI rank memory allocation (min/avg/max) = 14.28 | 17.75 | 18.9 Mbytes
   Step           Lx             Ly             Lz           Press           Pxx            Pyy            Pzz           KinEng         PotEng          Temp          c_1[1]         c_1[2]         c_1[3]    
         0   127.27922      200            200            0              0              0              0              0              0              0              2.6109412e-16  0              6            
    100000   127.27922      200            200            0.0033650828   4.8421552e-39  0              0.010095248    12344.023      0              5.960487e+10   2.6109412e-16  0              3.3257153    
    200000   127.27922      200            200            0.0012156385   1.4529453e-38  0              0.0036469155   3100.6426      0              1.4971894e+10  2.6109412e-16  0              3.072436     
    300000   127.27922      200            200            0.00010630524  2.1493014e-39  0              0.00031891572  48.110145      0              2.3230667e+08  2.6109412e-16  0              3.0489605    
    400000   127.27922      200            200            0.00017133164  1.271493e-36   0              0.00051399493  119.80961      0              5.785177e+08   2.6109412e-16  0              3.0060561    
    500000   127.27922      200            200            0.0011733882   7.8978695e-37  0              0.0035201646   6.9854551      0              33730263       2.6109412e-16  0              3.0029782    
    600000   127.27922      200            200            0.0028100635   9.1804235e-36  0              0.0084301904   0.30475467     0              1471551.2      2.6109412e-16  0              3.0012915    
    700000   127.27922      200            200            0.0036682534  -7.8339115e-36  0              0.01100476     0.12141459     0              586267.61      2.6109412e-16  0              3.000574     
    800000   127.27922      200            200            0.0039685385   1.1638907e-36  0              0.011905616    0.024901193    0              120238.95      2.6109412e-16  0              3.0003378    
    900000   127.27922      200            200            0.0040724415  -2.6813916e-38  0              0.012217325    0.0044885679   0              21673.688      2.6109412e-16  0              3.0002577    
   1000000   127.27922      200            200            0.0041077937  -1.5798505e-38  0              0.012323381    0.00075865791  0              3663.2875      2.6109412e-16  0              3.0002308    
   1100000   127.27922      200            200            0.0041195704   6.2246518e-38  0              0.012358711    0.00012238874  0              590.97141      2.6109412e-16  0              3.0002218    
   1200000   127.27922      200            200            0.0041233949   8.2318531e-40  0              0.012370185    1.9007054e-05  0              91.778259      2.6109412e-16  0              3.0002189    
   1300000   127.27922      200            200            0.0041245972  -7.1267191e-39  0              0.012373792    2.8564476e-06  0              13.792763      2.6109412e-16  0              3.000218     
   1400000   127.27922      200            200            0.0041249586   7.1409851e-39  0              0.012374876    4.1681492e-07  0              2.0126501      2.6109412e-16  0              3.0002178    
   1500000   127.27922      200            200            0.0041250602   5.2573011e-39  0              0.012375181    5.9185248e-08  0              0.28578438     2.6109412e-16  0              3.0002177    
   1600000   127.27922      200            200            0.0041250855  -1.4670322e-39  0              0.012375256    8.1884331e-09  0              0.039539013    2.6109412e-16  0              3.0002177    
   1700000   127.27922      200            200            0.0041250903   5.3269473e-39  0              0.012375271    1.1044751e-09  0              0.0053331149   2.6109412e-16  0              3.0002177    
   1800000   127.27922      200            200            0.0041250903   2.5695059e-39  0              0.012375271    1.4522554e-10  0              0.00070124215  2.6109412e-16  0              3.0002177    
   1900000   127.27922      200            200            0.0041250897   3.6005558e-39  0              0.012375269    1.8600514e-11  0              8.9815226e-05  2.6109412e-16  0              3.0002177    
   2000000   127.27922      200            200            0.0041250893  -4.8874426e-39  0              0.012375268    2.3172322e-12  0              1.1189085e-05  2.6109412e-16  0              3.0002177    
   2100000   127.27922      200            200            0.004125089   -8.3567743e-39  0              0.012375267    2.8010978e-13  0              1.3525499e-06  2.6109412e-16  0              3.0002177    
   2200000   127.27922      200            200            0.0041250889   2.8907068e-39  0              0.012375267    3.2737756e-14  0              1.5807891e-07  2.6109412e-16  0              3.0002177    
   2300000   127.27922      200            200            0.0041250889   5.8686314e-39  0              0.012375267    3.6735001e-15  0              1.7738017e-08  2.6109412e-16  0              3.0002177    
   2400000   127.27922      200            200            0.0041250888   9.0660122e-39  0              0.012375267    3.9769491e-16  0              1.9203264e-09  2.6109412e-16  0              3.0002177    
   2500000   127.27922      200            200            0.0041250888  -1.8974673e-38  0              0.012375267    4.0102763e-17  0              1.9364189e-10  2.6109412e-16  0              3.0002177    
   2600000   127.27922      200            200            0.0041250888  -6.8151659e-39  0              0.012375266    3.4778534e-18  0              1.6793309e-11  2.6109412e-16  0              3.0002177    
   2700000   127.27922      200            200            0.0041250888  -5.278802e-39   0              0.012375266    2.8442053e-19  0              1.373365e-12   2.6109412e-16  0              3.0002177    
   2800000   127.27922      200            200            0.0041250888   1.8071536e-40  0              0.012375266    1.8323508e-21  0              8.8477661e-15  2.6109412e-16  0              3.0002177    
   2900000   127.27922      200            200            0.0041250888  -3.7308921e-39  0              0.012375266    3.943591e-20   0              1.904219e-13   2.6109412e-16  0              3.0002177    
   3000000   127.27922      200            200            0.0041250888  -1.3358979e-38  0              0.012375266    9.3181244e-20  0              4.4993888e-13  2.6109412e-16  0              3.0002177    
Loop time of 71.1929 on 4 procs for 3000000 steps with 51 atoms

Performance: 36408100.231 ns/day, 0.000 hours/ns, 42139.005 timesteps/s
99.9% CPU use with 4 MPI tasks x 1 OpenMP threads

MPI task timing breakdown:
Section |  min time  |  avg time  |  max time  |%varavg| %total
---------------------------------------------------------------
Pair    | 0.23319    | 1.2773     | 4.1835     | 148.5 |  1.79
Neigh   | 0.092547   | 0.094652   | 0.098045   |   0.7 |  0.13
Comm    | 30.605     | 38.355     | 44.827     |  94.1 | 53.87
Output  | 0.057033   | 0.057425   | 0.058196   |   0.2 |  0.08
Modify  | 15.401     | 22.232     | 30.738     | 144.0 | 31.23
Other   |            | 9.177      |            |       | 12.89

Nlocal:          12.75 ave          51 max           0 min
Histogram: 3 0 0 0 0 0 0 0 0 1
Nghost:          39.25 ave          52 max           1 min
Histogram: 1 0 0 0 0 0 0 0 0 3
Neighs:           7.25 ave          29 max           0 min
Histogram: 3 0 0 0 0 0 0 0 0 1

Total # of neighbors = 29
Ave neighs/atom = 0.56862745
Neighbor list builds = 168
Dangerous builds = 0

undump D1

############ Add spring between top chain to supp particle and then equilibrium  ###########

#fix sp1 support spring couple slider1 ${K0} ${lenspr} NULL NULL 0                                 # Add spring

#dump 		D2 all custom 100000 add_${num}*.dump id type diameter mass xu yu zu

#fix add1 all print 10 "${p0} ${distance} ${slider_z}" file add_distance_${num}.txt screen no      # out put step, distance(spring length), z-position of top chain

#run 1000000

#undump D2

#unfix add1

########## Pulling the supporting particle with constant velocity #############

#fix m1 support move linear 0.1 0 0 units box                                                      # apply constant velocity to supporting particles along x-direction V=0.1m/s

#fix move1 all print 100 "${p0} ${distance} ${slider_z}" file move_distance_${num}.txt screen no

#dump 		1 all custom 50000 move_${num}_*.dump id type diameter mass xu yu zu

#run 1000000

clear
  using 1 OpenMP thread(s) per MPI task

next num

jump SELF startloop

include granular.in
### Simulation of contact between two chain

##################### Simulation setup ####################

units micro                              # units
dimension	3                            # dimension
boundary	p p p                        # boundary condition p: periodic
atom_style	sphere                       # atom style
#processors * * 1

####################### Parameter ##################################

variable ind equal ${num}
variable ind equal 2

#variable lat0 equal 1                    #
variable lat1 equal 3*(2^(1/2))       # Lattice distance of bottom chain
variable lat2 equal 3                   # Lattice distance of top chain
variable d1 equal 3+(v_ind*0.01)                      # Diamter of particle at bottom chain
variable d2 equal 3                      # Diamter of particle at top chain
#variable d3 equal 1                      # Diamter of supporting particle

variable n2e1 equal 10*v_lat2              # Half length of top chain. 1500 is number of particles
variable n1e1 equal 1.5*v_n2e1*(v_lat1/v_lat2)               # Half length of bottom chain, which is 1.5 time larger than top chain
variable n1e2 equal -v_n1e1
variable n2e2 equal -v_n2e1
#variable lenspr equal -(v_n2e1+100)           # length of the spring connecting top chain and supporting particle
#variable lenspr1 equal -v_lenspr-0.1         # Position of supporting particle upper bound
#variable lenspr2 equal -v_lenspr+0.1         # Position of supporting particle lower bound

variable den equal 2.2 #grams/cm^3      # micrometer^3=10^-12 cm^3 Density of materials
#variable den2 equal 1.5

variable V1 equal (1/6)*PI*(v_d1^3)     # Volume of particle 1
variable V2 equal (1/6)*PI*(v_d2^3)     # Volume of particle 2
#variable V3 equal (1/6)*PI*(v_d3^3)     # Volume of particle 3

variable mass1 equal v_den*v_V1  # Mass of particle 1 (picograms)
variable mass2 equal v_den*v_V2  # Mass of particle 2
#variable mass3 equal v_den*v_V3  # Mass of particle 3

# E GPa to picogram/(micrometer-microsecond^2)= 10^3 Pa= 10^-6 GPa
# Force unit(picogram-micrometer/microsecond^2)=10^-9 N= 1nN
# Spring stiffness (force/distance) 10^-3 N/m

variable K0 equal (1500/50)*(10^5)             # Spring stiffness conneting top chain and sup particle
variable E equal 100*(10^6)                    # Young's Modulus using for Hertz/material model
variable PR equal 0.3                          # Poisson's ratio using for Hertz/material model
variable Fn equal -1000 #-(v_ind*100)                       # Force apply to each particles in top chain
variable dt equal 0.00001                      # Time step units microsecond
variable lgv equal 0.5                         #damping for langevin thermostat for slider


################### Creating the model #################################
lattice sc ${lat1}                                                               # Bottom chain type1
lattice sc 4.24264068711929                                                               
Lattice spacing in x,y,z = 4.2426407 4.2426407 4.2426407

region box block ${n1e2} ${n1e1} -100 100 -100 100 units box
region box block -63.6396103067894 ${n1e1} -100 100 -100 100 units box
region box block -63.6396103067894 63.6396103067894 -100 100 -100 100 units box
region substrate block ${n1e2} ${n1e1} -0.5 0.5 0 0.5 units box
region substrate block -63.6396103067894 ${n1e1} -0.5 0.5 0 0.5 units box
region substrate block -63.6396103067894 63.6396103067894 -0.5 0.5 0 0.5 units box

create_box 2 box
Created orthogonal box = (-63.63961 -100 -100) to (63.63961 100 100)
  1 by 2 by 2 MPI processor grid
create_atoms 1 region substrate
Created 30 atoms
  using lattice units in orthogonal box = (-63.63961 -100 -100) to (63.63961 100 100)
  create_atoms CPU = 0.000 seconds

lattice sc ${lat2}                                                             # Top chain type2
lattice sc 3                                                             
Lattice spacing in x,y,z = 3 3 3

region slider1 block ${n2e2} ${n2e1} -0.1 0.1 5.9 6.1 units box
region slider1 block -30 ${n2e1} -0.1 0.1 5.9 6.1 units box
region slider1 block -30 30 -0.1 0.1 5.9 6.1 units box

create_atoms 2 region slider1
Created 21 atoms
  using lattice units in orthogonal box = (-63.63961 -100 -100) to (63.63961 100 100)
  create_atoms CPU = 0.004 seconds

#lattice sc ${lat0}                                                             # Supporting particle type3

#region support block ${lenspr1} ${lenspr2} -0.1 0.1 7.9 8.1 units box

#create_atoms 3 region support

set type 1 diameter ${d1}                    # Set mass and diameter for each particles type
set type 1 diameter 3.02                    
Setting atom values ...
  30 settings made for diameter
set type 1 mass ${mass1}
set type 1 mass 31.7279587335909
Setting atom values ...
  30 settings made for mass
set type 2 diameter ${d2}
set type 2 diameter 3
Setting atom values ...
  21 settings made for diameter
set type 2 mass ${mass2}
set type 2 mass 31.101767270539
Setting atom values ...
  21 settings made for mass
#set type 3 diameter ${d3}
#set type 3 mass ${mass3}

group substrate region substrate           # Define gorup
30 atoms in group substrate
group slider1 region slider1
21 atoms in group slider1
#group support region support
group substrate_slider union substrate slider1
51 atoms in group substrate_slider

########################## Potential ###################################
pair_style granular
pair_coeff 1 1 hertz/material 0.00000001 0.001 ${PR} tangential mindlin NULL 0.1 0.01 damping viscoelastic              ########### set E between each particle in same type is small to neglect their interaction
pair_coeff 1 1 hertz/material 0.00000001 0.001 0.3 tangential mindlin NULL 0.1 0.01 damping viscoelastic              
pair_coeff 2 2 hertz/material 0.00000001 0.001 ${PR} tangential mindlin NULL 0.1 0.01 damping viscoelastic
pair_coeff 2 2 hertz/material 0.00000001 0.001 0.3 tangential mindlin NULL 0.1 0.01 damping viscoelastic
#pair_coeff 3 3 hertz/material ${E} 0.001 ${PR} tangential mindlin NULL 0.1 0.01 damping viscoelastic
pair_coeff 1 2 hertz/material ${E} 0.001 ${PR} tangential mindlin NULL 0.1 0.01 damping viscoelastic
pair_coeff 1 2 hertz/material 100000000 0.001 ${PR} tangential mindlin NULL 0.1 0.01 damping viscoelastic
pair_coeff 1 2 hertz/material 100000000 0.001 0.3 tangential mindlin NULL 0.1 0.01 damping viscoelastic
#pair_coeff 1 3 hertz/material 0.00000001 0.001 ${PR} tangential mindlin NULL 0.1 0.01 damping viscoelastic
#pair_coeff 2 3 hertz/material 0.00000001 0.001 ${PR} tangential mindlin NULL 0.1 0.01 damping viscoelastic
comm_modify     vel yes
neigh_modify    delay 0 every 1 check yes

### Compute properties ###

compute 1 slider1 com                      # Compute the center of mass of top chain
#compute 2 support com                      # Compute the center of mass of supporting particle

variable p0 equal "step"

variable slider_z equal "c_1[3]"          # output the position of top chain in z-direction

#variable distance equal "c_2[1]-c_1[1]"   # Distance between COM of top chain and supporting particle

thermo 100000
thermo_style custom step lx ly lz press pxx pyy pzz ke pe temp c_1[1] c_1[2] c_1[3] #c_2[1] c_2[2] c_2[3] v_distance

############### Fix ##################


############## Equilibrium the system with apply force ########################

fix force_slider1 slider1 setforce NULL 0 NULL                                # Fix top chain not to move in y-direction

fix f_sub substrate freeze                                                    # Freeze the bottom chain

fix rigid_top slider1 rigid/nve group 1 slider1 langevin 0 0 ${lgv} 6987532   # NVE+langevin
fix rigid_top slider1 rigid/nve group 1 slider1 langevin 0 0 0.5 6987532   
  1 rigid bodies with 21 atoms

fix add slider1 addforce 0 0 ${Fn} every 1                                    # Add force to top layer
fix add slider1 addforce 0 0 -1000 every 1                                    

timestep ${dt}
timestep 1e-05

# fix  nve_1 slider1 nve

dump 		D1 all custom 100000 Equi_${num}_*.dump id type diameter mass xu yu zu
dump 		D1 all custom 100000 Equi_2_*.dump id type diameter mass xu yu zu

run 3000000
Generated 0 of 1 mixed pair_coeff terms from geometric mixing rule
Neighbor list info ...
  update every 1 steps, delay 0 steps, check yes
  max neighbors/atom: 2000, page size: 100000
  master list distance cutoff = 3.12
  ghost atom cutoff = 3.12
  binsize = 1.56, bins = 82 129 129
  1 neighbor lists, perpetual/occasional/extra = 1 0 0
  (1) pair granular, perpetual
      attributes: half, newton on, size, history
      pair build: half/size/bin/newton
      stencil: half/bin/3d
      bin: standard
Per MPI rank memory allocation (min/avg/max) = 14.28 | 17.75 | 18.9 Mbytes
   Step           Lx             Ly             Lz           Press           Pxx            Pyy            Pzz           KinEng         PotEng          Temp          c_1[1]         c_1[2]         c_1[3]    
         0   127.27922      200            200            0              0              0              0              0              0              0              2.6109412e-16  0              6            
    100000   127.27922      200            200            0.0033748804  -4.8415445e-39  0              0.010124641    12392.018      0              5.9836619e+10  2.6109412e-16  0              3.3259363    
    200000   127.27922      200            200            0.0012299194   4.8425517e-39  0              0.0036897583   3153.5491      0              1.522736e+10   2.6109412e-16  0              3.0742204    
    300000   127.27922      200            200            0.00011759655  2.3361032e-37  0              0.00035278964  58.024652      0              2.8018028e+08  2.6109412e-16  0              3.0534749    
    400000   127.27922      200            200            0.00018451916  6.5393636e-37  0              0.00055355748  136.87656      0              6.6092794e+08  2.6109412e-16  0              3.0102154    
    500000   127.27922      200            200            0.0014279723  -6.618987e-36   0              0.0042839169   11.030695      0              53263277       2.6109412e-16  0              3.0077012    
    600000   127.27922      200            200            0.0027732429  -4.4539813e-36  0              0.0083197287   0.033316919    0              160875.48      2.6109412e-16  0              3.0063346    
    700000   127.27922      200            200            0.0036337549   3.3599452e-36  0              0.010901265    0.039196506    0              189265.9       2.6109412e-16  0              3.0056108    
    800000   127.27922      200            200            0.0039529148  -2.2252564e-37  0              0.011858744    0.0096802474   0              46742.45       2.6109412e-16  0              3.0053584    
    900000   127.27922      200            200            0.0040683473   6.7957025e-37  0              0.012205042    0.0019488094   0              9410.1032      2.6109412e-16  0              3.0052691    
   1000000   127.27922      200            200            0.0041095931   6.6554954e-39  0              0.012328779    0.000359985    0              1738.2388      2.6109412e-16  0              3.0052374    
   1100000   127.27922      200            200            0.0041241791   1.418465e-37   0              0.012372537    6.2866167e-05  0              303.55822      2.6109412e-16  0              3.0052262    
   1200000   127.27922      200            200            0.0041292862  -1.731773e-38   0              0.012387858    1.0525153e-05  0              50.822196      2.6109412e-16  0              3.0052223    
   1300000   127.27922      200            200            0.0041310557  -2.322472e-38   0              0.012393167    1.7036959e-06  0              8.2265379      2.6109412e-16  0              3.005221     
   1400000   127.27922      200            200            0.0041316618   1.8504854e-39  0              0.012394985    2.6814448e-07  0              1.2947737      2.6109412e-16  0              3.0052205    
   1500000   127.27922      200            200            0.0041318666  -3.7323509e-39  0              0.0123956      4.1199509e-08  0              0.19893769     2.6109412e-16  0              3.0052204    
   1600000   127.27922      200            200            0.0041319347  -1.9559462e-39  0              0.012395804    6.1975401e-09  0              0.029925703    2.6109412e-16  0              3.0052203    
   1700000   127.27922      200            200            0.004131957    1.2311593e-39  0              0.012395871    9.147042e-10   0              0.0044167792   2.6109412e-16  0              3.0052203    
   1800000   127.27922      200            200            0.0041319641   8.2056553e-39  0              0.012395892    1.3266832e-10  0              0.00064060781  2.6109412e-16  0              3.0052203    
   1900000   127.27922      200            200            0.0041319662   8.1321311e-40  0              0.012395899    1.8931713e-11  0              9.1414466e-05  2.6109412e-16  0              3.0052203    
   2000000   127.27922      200            200            0.0041319669  -3.9859596e-39  0              0.012395901    2.6602136e-12  0              1.2845219e-05  2.6109412e-16  0              3.0052203    
   2100000   127.27922      200            200            0.0041319671   1.0796074e-39  0              0.012395901    3.6828432e-13  0              1.7783132e-06  2.6109412e-16  0              3.0052203    
   2200000   127.27922      200            200            0.0041319671   2.7088449e-39  0              0.012395901    5.0267378e-14  0              2.4272318e-07  2.6109412e-16  0              3.0052203    
   2300000   127.27922      200            200            0.0041319671  -9.9795106e-39  0              0.012395901    6.7633885e-15  0              3.2657983e-08  2.6109412e-16  0              3.0052203    
   2400000   127.27922      200            200            0.0041319671   5.5639579e-40  0              0.012395901    8.9507035e-16  0              4.3219744e-09  2.6109412e-16  0              3.0052203    
   2500000   127.27922      200            200            0.0041319671  -4.4037981e-39  0              0.012395901    1.1622061e-16  0              5.6118772e-10  2.6109412e-16  0              3.0052203    
   2600000   127.27922      200            200            0.0041319671   5.4207227e-39  0              0.012395901    1.4586004e-17  0              7.0430594e-11  2.6109412e-16  0              3.0052203    
   2700000   127.27922      200            200            0.0041319671  -6.2667298e-39  0              0.012395901    1.9186749e-18  0              9.2645944e-12  2.6109412e-16  0              3.0052203    
   2800000   127.27922      200            200            0.0041319671  -6.7616241e-39  0              0.012395901    1.8452639e-19  0              8.910119e-13   2.6109412e-16  0              3.0052203    
   2900000   127.27922      200            200            0.0041319671   1.1221071e-38  0              0.012395901    8.0074072e-20  0              3.8664904e-13  2.6109412e-16  0              3.0052203    
   3000000   127.27922      200            200            0.0041319671  -7.9791575e-39  0              0.012395901    7.5904495e-20  0              3.6651564e-13  2.6109412e-16  0              3.0052203    
Loop time of 71.3777 on 4 procs for 3000000 steps with 51 atoms

Performance: 36313838.273 ns/day, 0.000 hours/ns, 42029.905 timesteps/s
100.0% CPU use with 4 MPI tasks x 1 OpenMP threads

MPI task timing breakdown:
Section |  min time  |  avg time  |  max time  |%varavg| %total
---------------------------------------------------------------
Pair    | 0.2656     | 1.3133     | 4.3158     | 151.3 |  1.84
Neigh   | 0.093696   | 0.095581   | 0.098735   |   0.7 |  0.13
Comm    | 30.697     | 38.371     | 44.825     |  93.2 | 53.76
Output  | 0.057541   | 0.057901   | 0.058558   |   0.2 |  0.08
Modify  | 15.482     | 22.306     | 30.771     | 142.8 | 31.25
Other   |            | 9.234      |            |       | 12.94

Nlocal:          12.75 ave          51 max           0 min
Histogram: 3 0 0 0 0 0 0 0 0 1
Nghost:          39.25 ave          52 max           1 min
Histogram: 1 0 0 0 0 0 0 0 0 3
Neighs:           7.25 ave          29 max           0 min
Histogram: 3 0 0 0 0 0 0 0 0 1

Total # of neighbors = 29
Ave neighs/atom = 0.56862745
Neighbor list builds = 168
Dangerous builds = 0

undump D1

############ Add spring between top chain to supp particle and then equilibrium  ###########

#fix sp1 support spring couple slider1 ${K0} ${lenspr} NULL NULL 0                                 # Add spring

#dump 		D2 all custom 100000 add_${num}*.dump id type diameter mass xu yu zu

#fix add1 all print 10 "${p0} ${distance} ${slider_z}" file add_distance_${num}.txt screen no      # out put step, distance(spring length), z-position of top chain

#run 1000000

#undump D2

#unfix add1

########## Pulling the supporting particle with constant velocity #############

#fix m1 support move linear 0.1 0 0 units box                                                      # apply constant velocity to supporting particles along x-direction V=0.1m/s

#fix move1 all print 100 "${p0} ${distance} ${slider_z}" file move_distance_${num}.txt screen no

#dump 		1 all custom 50000 move_${num}_*.dump id type diameter mass xu yu zu

#run 1000000

clear
  using 1 OpenMP thread(s) per MPI task

next num

jump SELF startloop

include granular.in
### Simulation of contact between two chain

##################### Simulation setup ####################

units micro                              # units
dimension	3                            # dimension
boundary	p p p                        # boundary condition p: periodic
atom_style	sphere                       # atom style
#processors * * 1

####################### Parameter ##################################

variable ind equal ${num}
variable ind equal 3

#variable lat0 equal 1                    #
variable lat1 equal 3*(2^(1/2))       # Lattice distance of bottom chain
variable lat2 equal 3                   # Lattice distance of top chain
variable d1 equal 3+(v_ind*0.01)                      # Diamter of particle at bottom chain
variable d2 equal 3                      # Diamter of particle at top chain
#variable d3 equal 1                      # Diamter of supporting particle

variable n2e1 equal 10*v_lat2              # Half length of top chain. 1500 is number of particles
variable n1e1 equal 1.5*v_n2e1*(v_lat1/v_lat2)               # Half length of bottom chain, which is 1.5 time larger than top chain
variable n1e2 equal -v_n1e1
variable n2e2 equal -v_n2e1
#variable lenspr equal -(v_n2e1+100)           # length of the spring connecting top chain and supporting particle
#variable lenspr1 equal -v_lenspr-0.1         # Position of supporting particle upper bound
#variable lenspr2 equal -v_lenspr+0.1         # Position of supporting particle lower bound

variable den equal 2.2 #grams/cm^3      # micrometer^3=10^-12 cm^3 Density of materials
#variable den2 equal 1.5

variable V1 equal (1/6)*PI*(v_d1^3)     # Volume of particle 1
variable V2 equal (1/6)*PI*(v_d2^3)     # Volume of particle 2
#variable V3 equal (1/6)*PI*(v_d3^3)     # Volume of particle 3

variable mass1 equal v_den*v_V1  # Mass of particle 1 (picograms)
variable mass2 equal v_den*v_V2  # Mass of particle 2
#variable mass3 equal v_den*v_V3  # Mass of particle 3

# E GPa to picogram/(micrometer-microsecond^2)= 10^3 Pa= 10^-6 GPa
# Force unit(picogram-micrometer/microsecond^2)=10^-9 N= 1nN
# Spring stiffness (force/distance) 10^-3 N/m

variable K0 equal (1500/50)*(10^5)             # Spring stiffness conneting top chain and sup particle
variable E equal 100*(10^6)                    # Young's Modulus using for Hertz/material model
variable PR equal 0.3                          # Poisson's ratio using for Hertz/material model
variable Fn equal -1000 #-(v_ind*100)                       # Force apply to each particles in top chain
variable dt equal 0.00001                      # Time step units microsecond
variable lgv equal 0.5                         #damping for langevin thermostat for slider


################### Creating the model #################################
lattice sc ${lat1}                                                               # Bottom chain type1
lattice sc 4.24264068711929                                                               
Lattice spacing in x,y,z = 4.2426407 4.2426407 4.2426407

region box block ${n1e2} ${n1e1} -100 100 -100 100 units box
region box block -63.6396103067894 ${n1e1} -100 100 -100 100 units box
region box block -63.6396103067894 63.6396103067894 -100 100 -100 100 units box
region substrate block ${n1e2} ${n1e1} -0.5 0.5 0 0.5 units box
region substrate block -63.6396103067894 ${n1e1} -0.5 0.5 0 0.5 units box
region substrate block -63.6396103067894 63.6396103067894 -0.5 0.5 0 0.5 units box

create_box 2 box
Created orthogonal box = (-63.63961 -100 -100) to (63.63961 100 100)
  1 by 2 by 2 MPI processor grid
create_atoms 1 region substrate
Created 30 atoms
  using lattice units in orthogonal box = (-63.63961 -100 -100) to (63.63961 100 100)
  create_atoms CPU = 0.000 seconds

lattice sc ${lat2}                                                             # Top chain type2
lattice sc 3                                                             
Lattice spacing in x,y,z = 3 3 3

region slider1 block ${n2e2} ${n2e1} -0.1 0.1 5.9 6.1 units box
region slider1 block -30 ${n2e1} -0.1 0.1 5.9 6.1 units box
region slider1 block -30 30 -0.1 0.1 5.9 6.1 units box

create_atoms 2 region slider1
Created 21 atoms
  using lattice units in orthogonal box = (-63.63961 -100 -100) to (63.63961 100 100)
  create_atoms CPU = 0.003 seconds

#lattice sc ${lat0}                                                             # Supporting particle type3

#region support block ${lenspr1} ${lenspr2} -0.1 0.1 7.9 8.1 units box

#create_atoms 3 region support

set type 1 diameter ${d1}                    # Set mass and diameter for each particles type
set type 1 diameter 3.03                    
Setting atom values ...
  30 settings made for diameter
set type 1 mass ${mass1}
set type 1 mass 32.0441819206036
Setting atom values ...
  30 settings made for mass
set type 2 diameter ${d2}
set type 2 diameter 3
Setting atom values ...
  21 settings made for diameter
set type 2 mass ${mass2}
set type 2 mass 31.101767270539
Setting atom values ...
  21 settings made for mass
#set type 3 diameter ${d3}
#set type 3 mass ${mass3}

group substrate region substrate           # Define gorup
30 atoms in group substrate
group slider1 region slider1
21 atoms in group slider1
#group support region support
group substrate_slider union substrate slider1
51 atoms in group substrate_slider

########################## Potential ###################################
pair_style granular
pair_coeff 1 1 hertz/material 0.00000001 0.001 ${PR} tangential mindlin NULL 0.1 0.01 damping viscoelastic              ########### set E between each particle in same type is small to neglect their interaction
pair_coeff 1 1 hertz/material 0.00000001 0.001 0.3 tangential mindlin NULL 0.1 0.01 damping viscoelastic              
pair_coeff 2 2 hertz/material 0.00000001 0.001 ${PR} tangential mindlin NULL 0.1 0.01 damping viscoelastic
pair_coeff 2 2 hertz/material 0.00000001 0.001 0.3 tangential mindlin NULL 0.1 0.01 damping viscoelastic
#pair_coeff 3 3 hertz/material ${E} 0.001 ${PR} tangential mindlin NULL 0.1 0.01 damping viscoelastic
pair_coeff 1 2 hertz/material ${E} 0.001 ${PR} tangential mindlin NULL 0.1 0.01 damping viscoelastic
pair_coeff 1 2 hertz/material 100000000 0.001 ${PR} tangential mindlin NULL 0.1 0.01 damping viscoelastic
pair_coeff 1 2 hertz/material 100000000 0.001 0.3 tangential mindlin NULL 0.1 0.01 damping viscoelastic
#pair_coeff 1 3 hertz/material 0.00000001 0.001 ${PR} tangential mindlin NULL 0.1 0.01 damping viscoelastic
#pair_coeff 2 3 hertz/material 0.00000001 0.001 ${PR} tangential mindlin NULL 0.1 0.01 damping viscoelastic
comm_modify     vel yes
neigh_modify    delay 0 every 1 check yes

### Compute properties ###

compute 1 slider1 com                      # Compute the center of mass of top chain
#compute 2 support com                      # Compute the center of mass of supporting particle

variable p0 equal "step"

variable slider_z equal "c_1[3]"          # output the position of top chain in z-direction

#variable distance equal "c_2[1]-c_1[1]"   # Distance between COM of top chain and supporting particle

thermo 100000
thermo_style custom step lx ly lz press pxx pyy pzz ke pe temp c_1[1] c_1[2] c_1[3] #c_2[1] c_2[2] c_2[3] v_distance

############### Fix ##################


############## Equilibrium the system with apply force ########################

fix force_slider1 slider1 setforce NULL 0 NULL                                # Fix top chain not to move in y-direction

fix f_sub substrate freeze                                                    # Freeze the bottom chain

fix rigid_top slider1 rigid/nve group 1 slider1 langevin 0 0 ${lgv} 6987532   # NVE+langevin
fix rigid_top slider1 rigid/nve group 1 slider1 langevin 0 0 0.5 6987532   
  1 rigid bodies with 21 atoms

fix add slider1 addforce 0 0 ${Fn} every 1                                    # Add force to top layer
fix add slider1 addforce 0 0 -1000 every 1                                    

timestep ${dt}
timestep 1e-05

# fix  nve_1 slider1 nve

dump 		D1 all custom 100000 Equi_${num}_*.dump id type diameter mass xu yu zu
dump 		D1 all custom 100000 Equi_3_*.dump id type diameter mass xu yu zu

run 3000000
Generated 0 of 1 mixed pair_coeff terms from geometric mixing rule
Neighbor list info ...
  update every 1 steps, delay 0 steps, check yes
  max neighbors/atom: 2000, page size: 100000
  master list distance cutoff = 3.13
  ghost atom cutoff = 3.13
  binsize = 1.565, bins = 82 128 128
  1 neighbor lists, perpetual/occasional/extra = 1 0 0
  (1) pair granular, perpetual
      attributes: half, newton on, size, history
      pair build: half/size/bin/newton
      stencil: half/bin/3d
      bin: standard
Per MPI rank memory allocation (min/avg/max) = 14.28 | 17.75 | 18.9 Mbytes
   Step           Lx             Ly             Lz           Press           Pxx            Pyy            Pzz           KinEng         PotEng          Temp          c_1[1]         c_1[2]         c_1[3]    
         0   127.27922      200            200            0              0              0              0              0              0              0              2.6109412e-16  0              6            
    100000   127.27922      200            200            0.0033846802  -4.8418648e-39  0              0.01015404     12440.084      0              6.0068712e+10  2.6109412e-16  0              3.326146     
    200000   127.27922      200            200            0.0012442468   3.8744624e-38  0              0.0037327403   3206.8564      0              1.5484762e+10  2.6109412e-16  0              3.0759746    
    300000   127.27922      200            200            0.00012902282 -3.086057e-37   0              0.00038706845  68.853504      0              3.3246893e+08  2.6109412e-16  0              3.0579432    
    400000   127.27922      200            200            0.00042135251  3.1289424e-36  0              0.0012640575   154.7332       0              7.4715123e+08  2.6109412e-16  0              3.0143177    
    500000   127.27922      200            200            0.0017564313  -1.4072549e-35  0              0.0052692938   15.457418      0              74638339       2.6109412e-16  0              3.0123633    
    600000   127.27922      200            200            0.0027824869   1.0401362e-35  0              0.0083474608   0.037013061    0              178722.83      2.6109412e-16  0              3.0113372    
    700000   127.27922      200            200            0.0036232166  -5.9272604e-36  0              0.01086965     0.0014767332   0              7130.6162      2.6109412e-16  0              3.0106284    
    800000   127.27922      200            200            0.0039484303  -9.9615608e-37  0              0.011845291    0.0010926858   0              5276.1888      2.6109412e-16  0              3.0103704    
    900000   127.27922      200            200            0.0040691638   2.1811025e-37  0              0.012207491    0.0003230513   0              1559.8991      2.6109412e-16  0              3.0102765    
   1000000   127.27922      200            200            0.0041134817   7.6073564e-39  0              0.012340445    7.5128314e-05  0              362.76774      2.6109412e-16  0              3.0102424    
   1100000   127.27922      200            200            0.0041296517   1.0357273e-37  0              0.012388955    1.5446165e-05  0              74.584001      2.6109412e-16  0              3.01023      
   1200000   127.27922      200            200            0.0041355256  -1.7244291e-38  0              0.012406577    2.9358975e-06  0              14.176399      2.6109412e-16  0              3.0102255    
   1300000   127.27922      200            200            0.0041376512  -1.6196937e-38  0              0.012412953    5.2804692e-07  0              2.5497496      2.6109412e-16  0              3.0102238    
   1400000   127.27922      200            200            0.0041384174   1.8486493e-38  0              0.012415252    9.1129723e-08  0              0.44003282     2.6109412e-16  0              3.0102232    
   1500000   127.27922      200            200            0.0041386927  -5.3677004e-39  0              0.012416078    1.5227312e-08  0              0.073527241    2.6109412e-16  0              3.010223     
   1600000   127.27922      200            200            0.0041387911  -4.8457931e-39  0              0.012416373    2.4788508e-09  0              0.011969483    2.6109412e-16  0              3.010223     
   1700000   127.27922      200            200            0.0041388262  -7.7677113e-39  0              0.012416478    3.9488282e-10  0              0.0019067478   2.6109412e-16  0              3.0102229    
   1800000   127.27922      200            200            0.0041388386   6.4251447e-39  0              0.012416516    6.1758133e-11  0              0.00029820792  2.6109412e-16  0              3.0102229    
   1900000   127.27922      200            200            0.004138843    1.404717e-39   0              0.012416529    9.5064373e-12  0              4.5903183e-05  2.6109412e-16  0              3.0102229    
   2000000   127.27922      200            200            0.0041388445  -1.0707972e-38  0              0.012416534    1.4431607e-12  0              6.9685066e-06  2.6109412e-16  0              3.0102229    
   2100000   127.27922      200            200            0.0041388451  -8.1175953e-39  0              0.012416535    2.163637e-13   0              1.0447429e-06  2.6109412e-16  0              3.0102229    
   2200000   127.27922      200            200            0.0041388453   7.1664729e-40  0              0.012416536    3.2062821e-14  0              1.5481989e-07  2.6109412e-16  0              3.0102229    
   2300000   127.27922      200            200            0.0041388453   2.4919293e-39  0              0.012416536    4.7025036e-15  0              2.2706707e-08  2.6109412e-16  0              3.0102229    
   2400000   127.27922      200            200            0.0041388453   1.1749729e-38  0              0.012416536    6.8005256e-16  0              3.2837305e-09  2.6109412e-16  0              3.0102229    
   2500000   127.27922      200            200            0.0041388454   1.1558704e-38  0              0.012416536    9.9271096e-17  0              4.793446e-10   2.6109412e-16  0              3.0102229    
   2600000   127.27922      200            200            0.0041388454   9.1992836e-39  0              0.012416536    1.4594468e-17  0              7.0471464e-11  2.6109412e-16  0              3.0102229    
   2700000   127.27922      200            200            0.0041388454   1.0742626e-38  0              0.012416536    1.876237e-18   0              9.0596771e-12  2.6109412e-16  0              3.0102229    
   2800000   127.27922      200            200            0.0041388454   6.5244631e-39  0              0.012416536    2.8252414e-19  0              1.364208e-12   2.6109412e-16  0              3.0102229    
   2900000   127.27922      200            200            0.0041388454   9.8819124e-39  0              0.012416536    1.2193991e-19  0              5.8880419e-13  2.6109412e-16  0              3.0102229    
   3000000   127.27922      200            200            0.0041388454  -8.214615e-39   0              0.012416536    3.8025603e-20  0              1.8361203e-13  2.6109412e-16  0              3.0102229    
Loop time of 71.02 on 4 procs for 3000000 steps with 51 atoms

Performance: 36496777.128 ns/day, 0.000 hours/ns, 42241.640 timesteps/s
99.9% CPU use with 4 MPI tasks x 1 OpenMP threads

MPI task timing breakdown:
Section |  min time  |  avg time  |  max time  |%varavg| %total
---------------------------------------------------------------
Pair    | 0.23479    | 1.3195     | 4.3357     | 151.7 |  1.86
Neigh   | 0.089714   | 0.091411   | 0.094367   |   0.6 |  0.13
Comm    | 30.502     | 38.254     | 44.739     |  93.8 | 53.86
Output  | 0.06312    | 0.063527   | 0.064216   |   0.2 |  0.09
Modify  | 15.374     | 22.144     | 30.592     | 143.2 | 31.18
Other   |            | 9.147      |            |       | 12.88

Nlocal:          12.75 ave          51 max           0 min
Histogram: 3 0 0 0 0 0 0 0 0 1
Nghost:          39.25 ave          52 max           1 min
Histogram: 1 0 0 0 0 0 0 0 0 3
Neighs:           6.75 ave          27 max           0 min
Histogram: 3 0 0 0 0 0 0 0 0 1

Total # of neighbors = 27
Ave neighs/atom = 0.52941176
Neighbor list builds = 171
Dangerous builds = 0

undump D1

############ Add spring between top chain to supp particle and then equilibrium  ###########

#fix sp1 support spring couple slider1 ${K0} ${lenspr} NULL NULL 0                                 # Add spring

#dump 		D2 all custom 100000 add_${num}*.dump id type diameter mass xu yu zu

#fix add1 all print 10 "${p0} ${distance} ${slider_z}" file add_distance_${num}.txt screen no      # out put step, distance(spring length), z-position of top chain

#run 1000000

#undump D2

#unfix add1

########## Pulling the supporting particle with constant velocity #############

#fix m1 support move linear 0.1 0 0 units box                                                      # apply constant velocity to supporting particles along x-direction V=0.1m/s

#fix move1 all print 100 "${p0} ${distance} ${slider_z}" file move_distance_${num}.txt screen no

#dump 		1 all custom 50000 move_${num}_*.dump id type diameter mass xu yu zu

#run 1000000

clear
  using 1 OpenMP thread(s) per MPI task

next num

jump SELF startloop

include granular.in
### Simulation of contact between two chain

##################### Simulation setup ####################

units micro                              # units
dimension	3                            # dimension
boundary	p p p                        # boundary condition p: periodic
atom_style	sphere                       # atom style
#processors * * 1

####################### Parameter ##################################

variable ind equal ${num}
variable ind equal 4

#variable lat0 equal 1                    #
variable lat1 equal 3*(2^(1/2))       # Lattice distance of bottom chain
variable lat2 equal 3                   # Lattice distance of top chain
variable d1 equal 3+(v_ind*0.01)                      # Diamter of particle at bottom chain
variable d2 equal 3                      # Diamter of particle at top chain
#variable d3 equal 1                      # Diamter of supporting particle

variable n2e1 equal 10*v_lat2              # Half length of top chain. 1500 is number of particles
variable n1e1 equal 1.5*v_n2e1*(v_lat1/v_lat2)               # Half length of bottom chain, which is 1.5 time larger than top chain
variable n1e2 equal -v_n1e1
variable n2e2 equal -v_n2e1
#variable lenspr equal -(v_n2e1+100)           # length of the spring connecting top chain and supporting particle
#variable lenspr1 equal -v_lenspr-0.1         # Position of supporting particle upper bound
#variable lenspr2 equal -v_lenspr+0.1         # Position of supporting particle lower bound

variable den equal 2.2 #grams/cm^3      # micrometer^3=10^-12 cm^3 Density of materials
#variable den2 equal 1.5

variable V1 equal (1/6)*PI*(v_d1^3)     # Volume of particle 1
variable V2 equal (1/6)*PI*(v_d2^3)     # Volume of particle 2
#variable V3 equal (1/6)*PI*(v_d3^3)     # Volume of particle 3

variable mass1 equal v_den*v_V1  # Mass of particle 1 (picograms)
variable mass2 equal v_den*v_V2  # Mass of particle 2
#variable mass3 equal v_den*v_V3  # Mass of particle 3

# E GPa to picogram/(micrometer-microsecond^2)= 10^3 Pa= 10^-6 GPa
# Force unit(picogram-micrometer/microsecond^2)=10^-9 N= 1nN
# Spring stiffness (force/distance) 10^-3 N/m

variable K0 equal (1500/50)*(10^5)             # Spring stiffness conneting top chain and sup particle
variable E equal 100*(10^6)                    # Young's Modulus using for Hertz/material model
variable PR equal 0.3                          # Poisson's ratio using for Hertz/material model
variable Fn equal -1000 #-(v_ind*100)                       # Force apply to each particles in top chain
variable dt equal 0.00001                      # Time step units microsecond
variable lgv equal 0.5                         #damping for langevin thermostat for slider


################### Creating the model #################################
lattice sc ${lat1}                                                               # Bottom chain type1
lattice sc 4.24264068711929                                                               
Lattice spacing in x,y,z = 4.2426407 4.2426407 4.2426407

region box block ${n1e2} ${n1e1} -100 100 -100 100 units box
region box block -63.6396103067894 ${n1e1} -100 100 -100 100 units box
region box block -63.6396103067894 63.6396103067894 -100 100 -100 100 units box
region substrate block ${n1e2} ${n1e1} -0.5 0.5 0 0.5 units box
region substrate block -63.6396103067894 ${n1e1} -0.5 0.5 0 0.5 units box
region substrate block -63.6396103067894 63.6396103067894 -0.5 0.5 0 0.5 units box

create_box 2 box
Created orthogonal box = (-63.63961 -100 -100) to (63.63961 100 100)
  1 by 2 by 2 MPI processor grid
create_atoms 1 region substrate
Created 30 atoms
  using lattice units in orthogonal box = (-63.63961 -100 -100) to (63.63961 100 100)
  create_atoms CPU = 0.000 seconds

lattice sc ${lat2}                                                             # Top chain type2
lattice sc 3                                                             
Lattice spacing in x,y,z = 3 3 3

region slider1 block ${n2e2} ${n2e1} -0.1 0.1 5.9 6.1 units box
region slider1 block -30 ${n2e1} -0.1 0.1 5.9 6.1 units box
region slider1 block -30 30 -0.1 0.1 5.9 6.1 units box

create_atoms 2 region slider1
Created 21 atoms
  using lattice units in orthogonal box = (-63.63961 -100 -100) to (63.63961 100 100)
  create_atoms CPU = 0.003 seconds

#lattice sc ${lat0}                                                             # Supporting particle type3

#region support block ${lenspr1} ${lenspr2} -0.1 0.1 7.9 8.1 units box

#create_atoms 3 region support

set type 1 diameter ${d1}                    # Set mass and diameter for each particles type
set type 1 diameter 3.04                    
Setting atom values ...
  30 settings made for diameter
set type 1 mass ${mass1}
set type 1 mass 32.3624992932791
Setting atom values ...
  30 settings made for mass
set type 2 diameter ${d2}
set type 2 diameter 3
Setting atom values ...
  21 settings made for diameter
set type 2 mass ${mass2}
set type 2 mass 31.101767270539
Setting atom values ...
  21 settings made for mass
#set type 3 diameter ${d3}
#set type 3 mass ${mass3}

group substrate region substrate           # Define gorup
30 atoms in group substrate
group slider1 region slider1
21 atoms in group slider1
#group support region support
group substrate_slider union substrate slider1
51 atoms in group substrate_slider

########################## Potential ###################################
pair_style granular
pair_coeff 1 1 hertz/material 0.00000001 0.001 ${PR} tangential mindlin NULL 0.1 0.01 damping viscoelastic              ########### set E between each particle in same type is small to neglect their interaction
pair_coeff 1 1 hertz/material 0.00000001 0.001 0.3 tangential mindlin NULL 0.1 0.01 damping viscoelastic              
pair_coeff 2 2 hertz/material 0.00000001 0.001 ${PR} tangential mindlin NULL 0.1 0.01 damping viscoelastic
pair_coeff 2 2 hertz/material 0.00000001 0.001 0.3 tangential mindlin NULL 0.1 0.01 damping viscoelastic
#pair_coeff 3 3 hertz/material ${E} 0.001 ${PR} tangential mindlin NULL 0.1 0.01 damping viscoelastic
pair_coeff 1 2 hertz/material ${E} 0.001 ${PR} tangential mindlin NULL 0.1 0.01 damping viscoelastic
pair_coeff 1 2 hertz/material 100000000 0.001 ${PR} tangential mindlin NULL 0.1 0.01 damping viscoelastic
pair_coeff 1 2 hertz/material 100000000 0.001 0.3 tangential mindlin NULL 0.1 0.01 damping viscoelastic
#pair_coeff 1 3 hertz/material 0.00000001 0.001 ${PR} tangential mindlin NULL 0.1 0.01 damping viscoelastic
#pair_coeff 2 3 hertz/material 0.00000001 0.001 ${PR} tangential mindlin NULL 0.1 0.01 damping viscoelastic
comm_modify     vel yes
neigh_modify    delay 0 every 1 check yes

### Compute properties ###

compute 1 slider1 com                      # Compute the center of mass of top chain
#compute 2 support com                      # Compute the center of mass of supporting particle

variable p0 equal "step"

variable slider_z equal "c_1[3]"          # output the position of top chain in z-direction

#variable distance equal "c_2[1]-c_1[1]"   # Distance between COM of top chain and supporting particle

thermo 100000
thermo_style custom step lx ly lz press pxx pyy pzz ke pe temp c_1[1] c_1[2] c_1[3] #c_2[1] c_2[2] c_2[3] v_distance

############### Fix ##################


############## Equilibrium the system with apply force ########################

fix force_slider1 slider1 setforce NULL 0 NULL                                # Fix top chain not to move in y-direction

fix f_sub substrate freeze                                                    # Freeze the bottom chain

fix rigid_top slider1 rigid/nve group 1 slider1 langevin 0 0 ${lgv} 6987532   # NVE+langevin
fix rigid_top slider1 rigid/nve group 1 slider1 langevin 0 0 0.5 6987532   
  1 rigid bodies with 21 atoms

fix add slider1 addforce 0 0 ${Fn} every 1                                    # Add force to top layer
fix add slider1 addforce 0 0 -1000 every 1                                    

timestep ${dt}
timestep 1e-05

# fix  nve_1 slider1 nve

dump 		D1 all custom 100000 Equi_${num}_*.dump id type diameter mass xu yu zu
dump 		D1 all custom 100000 Equi_4_*.dump id type diameter mass xu yu zu

run 3000000
Generated 0 of 1 mixed pair_coeff terms from geometric mixing rule
Neighbor list info ...
  update every 1 steps, delay 0 steps, check yes
  max neighbors/atom: 2000, page size: 100000
  master list distance cutoff = 3.14
  ghost atom cutoff = 3.14
  binsize = 1.57, bins = 82 128 128
  1 neighbor lists, perpetual/occasional/extra = 1 0 0
  (1) pair granular, perpetual
      attributes: half, newton on, size, history
      pair build: half/size/bin/newton
      stencil: half/bin/3d
      bin: standard
Per MPI rank memory allocation (min/avg/max) = 14.28 | 17.75 | 18.9 Mbytes
   Step           Lx             Ly             Lz           Press           Pxx            Pyy            Pzz           KinEng         PotEng          Temp          c_1[1]         c_1[2]         c_1[3]    
         0   127.27922      200            200            0              0              0              0              0              0              0              2.6109412e-16  0              6            
    100000   127.27922      200            200            0.0033944821  -3.6312433e-39  0              0.010183446    12488.221      0              6.0301148e+10  2.6109412e-16  0              3.3263443    
[...]
   3000000   127.27922      200            200            0.004455226    4.3343106e-39  0              0.013365678    1.0779693e-19  0              5.205128e-13   2.6109412e-16  0              3.2403297    
Loop time of 69.3616 on 4 procs for 3000000 steps with 51 atoms

Performance: 37369383.113 ns/day, 0.000 hours/ns, 43251.601 timesteps/s
99.9% CPU use with 4 MPI tasks x 1 OpenMP threads

MPI task timing breakdown:
Section |  min time  |  avg time  |  max time  |%varavg| %total
---------------------------------------------------------------
Pair    | 0.25029    | 1.2456     | 4.0736     | 146.3 |  1.80
Neigh   | 0.060792   | 0.063173   | 0.06676    |   1.0 |  0.09
Comm    | 29.888     | 37.547     | 43.918     |  93.9 | 54.13
Output  | 0.062482   | 0.062801   | 0.063271   |   0.1 |  0.09
Modify  | 14.98      | 21.564     | 29.84      | 141.7 | 31.09
Other   |            | 8.879      |            |       | 12.80

Nlocal:          12.75 ave          51 max           0 min
Histogram: 3 0 0 0 0 0 0 0 0 1
Nghost:          39.25 ave          52 max           1 min
Histogram: 1 0 0 0 0 0 0 0 0 3
Neighs:           7.25 ave          29 max           0 min
Histogram: 3 0 0 0 0 0 0 0 0 1

Total # of neighbors = 29
Ave neighs/atom = 0.56862745
Neighbor list builds = 155
Dangerous builds = 0

undump D1

############ Add spring between top chain to supp particle and then equilibrium  ###########

#fix sp1 support spring couple slider1 ${K0} ${lenspr} NULL NULL 0                                 # Add spring

#dump 		D2 all custom 100000 add_${num}*.dump id type diameter mass xu yu zu

#fix add1 all print 10 "${p0} ${distance} ${slider_z}" file add_distance_${num}.txt screen no      # out put step, distance(spring length), z-position of top chain

#run 1000000

#undump D2

#unfix add1

########## Pulling the supporting particle with constant velocity #############

#fix m1 support move linear 0.1 0 0 units box                                                      # apply constant velocity to supporting particles along x-direction V=0.1m/s

#fix move1 all print 100 "${p0} ${distance} ${slider_z}" file move_distance_${num}.txt screen no

#dump 		1 all custom 50000 move_${num}_*.dump id type diameter mass xu yu zu

#run 1000000

clear
  using 1 OpenMP thread(s) per MPI task

next num

jump SELF startloop

include granular.in
### Simulation of contact between two chain

##################### Simulation setup ####################

units micro                              # units
dimension	3                            # dimension
boundary	p p p                        # boundary condition p: periodic
atom_style	sphere                       # atom style
#processors * * 1

####################### Parameter ##################################

variable ind equal ${num}
variable ind equal 50

#variable lat0 equal 1                    #
variable lat1 equal 3*(2^(1/2))       # Lattice distance of bottom chain
variable lat2 equal 3                   # Lattice distance of top chain
variable d1 equal 3+(v_ind*0.01)                      # Diamter of particle at bottom chain
variable d2 equal 3                      # Diamter of particle at top chain
#variable d3 equal 1                      # Diamter of supporting particle

variable n2e1 equal 10*v_lat2              # Half length of top chain. 1500 is number of particles
variable n1e1 equal 1.5*v_n2e1*(v_lat1/v_lat2)               # Half length of bottom chain, which is 1.5 time larger than top chain
variable n1e2 equal -v_n1e1
variable n2e2 equal -v_n2e1
#variable lenspr equal -(v_n2e1+100)           # length of the spring connecting top chain and supporting particle
#variable lenspr1 equal -v_lenspr-0.1         # Position of supporting particle upper bound
#variable lenspr2 equal -v_lenspr+0.1         # Position of supporting particle lower bound

variable den equal 2.2 #grams/cm^3      # micrometer^3=10^-12 cm^3 Density of materials
#variable den2 equal 1.5

variable V1 equal (1/6)*PI*(v_d1^3)     # Volume of particle 1
variable V2 equal (1/6)*PI*(v_d2^3)     # Volume of particle 2
#variable V3 equal (1/6)*PI*(v_d3^3)     # Volume of particle 3

variable mass1 equal v_den*v_V1  # Mass of particle 1 (picograms)
variable mass2 equal v_den*v_V2  # Mass of particle 2
#variable mass3 equal v_den*v_V3  # Mass of particle 3

# E GPa to picogram/(micrometer-microsecond^2)= 10^3 Pa= 10^-6 GPa
# Force unit(picogram-micrometer/microsecond^2)=10^-9 N= 1nN
# Spring stiffness (force/distance) 10^-3 N/m

variable K0 equal (1500/50)*(10^5)             # Spring stiffness conneting top chain and sup particle
variable E equal 100*(10^6)                    # Young's Modulus using for Hertz/material model
variable PR equal 0.3                          # Poisson's ratio using for Hertz/material model
variable Fn equal -1000 #-(v_ind*100)                       # Force apply to each particles in top chain
variable dt equal 0.00001                      # Time step units microsecond
variable lgv equal 0.5                         #damping for langevin thermostat for slider


################### Creating the model #################################
lattice sc ${lat1}                                                               # Bottom chain type1
lattice sc 4.24264068711929                                                               
Lattice spacing in x,y,z = 4.2426407 4.2426407 4.2426407

region box block ${n1e2} ${n1e1} -100 100 -100 100 units box
region box block -63.6396103067894 ${n1e1} -100 100 -100 100 units box
region box block -63.6396103067894 63.6396103067894 -100 100 -100 100 units box
region substrate block ${n1e2} ${n1e1} -0.5 0.5 0 0.5 units box
region substrate block -63.6396103067894 ${n1e1} -0.5 0.5 0 0.5 units box
region substrate block -63.6396103067894 63.6396103067894 -0.5 0.5 0 0.5 units box

create_box 2 box
Created orthogonal box = (-63.63961 -100 -100) to (63.63961 100 100)
  1 by 2 by 2 MPI processor grid
create_atoms 1 region substrate
Created 30 atoms
  using lattice units in orthogonal box = (-63.63961 -100 -100) to (63.63961 100 100)
  create_atoms CPU = 0.000 seconds

lattice sc ${lat2}                                                             # Top chain type2
lattice sc 3                                                             
Lattice spacing in x,y,z = 3 3 3

region slider1 block ${n2e2} ${n2e1} -0.1 0.1 5.9 6.1 units box
region slider1 block -30 ${n2e1} -0.1 0.1 5.9 6.1 units box
region slider1 block -30 30 -0.1 0.1 5.9 6.1 units box

create_atoms 2 region slider1
Created 21 atoms
  using lattice units in orthogonal box = (-63.63961 -100 -100) to (63.63961 100 100)
  create_atoms CPU = 0.001 seconds

#lattice sc ${lat0}                                                             # Supporting particle type3

#region support block ${lenspr1} ${lenspr2} -0.1 0.1 7.9 8.1 units box

#create_atoms 3 region support

set type 1 diameter ${d1}                    # Set mass and diameter for each particles type
set type 1 diameter 3.5                    
Setting atom values ...
  30 settings made for diameter
set type 1 mass ${mass1}
set type 1 mass 49.3884545083096
Setting atom values ...
  30 settings made for mass
set type 2 diameter ${d2}
set type 2 diameter 3
Setting atom values ...
  21 settings made for diameter
set type 2 mass ${mass2}
set type 2 mass 31.101767270539
Setting atom values ...
  21 settings made for mass
#set type 3 diameter ${d3}
#set type 3 mass ${mass3}

group substrate region substrate           # Define gorup
30 atoms in group substrate
group slider1 region slider1
21 atoms in group slider1
#group support region support
group substrate_slider union substrate slider1
51 atoms in group substrate_slider

########################## Potential ###################################
pair_style granular
pair_coeff 1 1 hertz/material 0.00000001 0.001 ${PR} tangential mindlin NULL 0.1 0.01 damping viscoelastic              ########### set E between each particle in same type is small to neglect their interaction
pair_coeff 1 1 hertz/material 0.00000001 0.001 0.3 tangential mindlin NULL 0.1 0.01 damping viscoelastic              
pair_coeff 2 2 hertz/material 0.00000001 0.001 ${PR} tangential mindlin NULL 0.1 0.01 damping viscoelastic
pair_coeff 2 2 hertz/material 0.00000001 0.001 0.3 tangential mindlin NULL 0.1 0.01 damping viscoelastic
#pair_coeff 3 3 hertz/material ${E} 0.001 ${PR} tangential mindlin NULL 0.1 0.01 damping viscoelastic
pair_coeff 1 2 hertz/material ${E} 0.001 ${PR} tangential mindlin NULL 0.1 0.01 damping viscoelastic
pair_coeff 1 2 hertz/material 100000000 0.001 ${PR} tangential mindlin NULL 0.1 0.01 damping viscoelastic
pair_coeff 1 2 hertz/material 100000000 0.001 0.3 tangential mindlin NULL 0.1 0.01 damping viscoelastic
#pair_coeff 1 3 hertz/material 0.00000001 0.001 ${PR} tangential mindlin NULL 0.1 0.01 damping viscoelastic
#pair_coeff 2 3 hertz/material 0.00000001 0.001 ${PR} tangential mindlin NULL 0.1 0.01 damping viscoelastic
comm_modify     vel yes
neigh_modify    delay 0 every 1 check yes

### Compute properties ###

compute 1 slider1 com                      # Compute the center of mass of top chain
#compute 2 support com                      # Compute the center of mass of supporting particle

variable p0 equal "step"

variable slider_z equal "c_1[3]"          # output the position of top chain in z-direction

#variable distance equal "c_2[1]-c_1[1]"   # Distance between COM of top chain and supporting particle

thermo 100000
thermo_style custom step lx ly lz press pxx pyy pzz ke pe temp c_1[1] c_1[2] c_1[3] #c_2[1] c_2[2] c_2[3] v_distance

############### Fix ##################


############## Equilibrium the system with apply force ########################

fix force_slider1 slider1 setforce NULL 0 NULL                                # Fix top chain not to move in y-direction

fix f_sub substrate freeze                                                    # Freeze the bottom chain

fix rigid_top slider1 rigid/nve group 1 slider1 langevin 0 0 ${lgv} 6987532   # NVE+langevin
fix rigid_top slider1 rigid/nve group 1 slider1 langevin 0 0 0.5 6987532   
  1 rigid bodies with 21 atoms

fix add slider1 addforce 0 0 ${Fn} every 1                                    # Add force to top layer
fix add slider1 addforce 0 0 -1000 every 1                                    

timestep ${dt}
timestep 1e-05

# fix  nve_1 slider1 nve

dump 		D1 all custom 100000 Equi_${num}_*.dump id type diameter mass xu yu zu
dump 		D1 all custom 100000 Equi_50_*.dump id type diameter mass xu yu zu

run 3000000
Generated 0 of 1 mixed pair_coeff terms from geometric mixing rule
Neighbor list info ...
  update every 1 steps, delay 0 steps, check yes
  max neighbors/atom: 2000, page size: 100000
  master list distance cutoff = 3.6
  ghost atom cutoff = 3.6
  binsize = 1.8, bins = 71 112 112
  1 neighbor lists, perpetual/occasional/extra = 1 0 0
  (1) pair granular, perpetual
      attributes: half, newton on, size, history
      pair build: half/size/bin/newton
      stencil: half/bin/3d
      bin: standard
Per MPI rank memory allocation (min/avg/max) = 13.77 | 17.23 | 18.39 Mbytes
   Step           Lx             Ly             Lz           Press           Pxx            Pyy            Pzz           KinEng         PotEng          Temp          c_1[1]         c_1[2]         c_1[3]    
         0   127.27922      200            200            0              0              0              0              0              0              0              2.6109412e-16  0              6            
    100000   127.27922      200            200            0.0038468183   2.4211221e-39  0              0.011540455    14778.088      0              7.1358098e+10  2.6109412e-16  0              3.3228281    
    200000   127.27922      200            200           -0.00045876282 -1.9352574e-37  0             -0.0013762885   2798.3578      0              1.3512268e+10  2.6109412e-16  0              3.2956606    
    300000   127.27922      200            200            0.022404091    0.0080203443   0              0.059191928    759.60271      0              3.6678496e+09  2.6109412e-16  0              3.2396572    
    400000   127.27922      200            200            0.00010154027 -1.8312379e-36  0              0.00030462081  39.25522       0              1.8954941e+08  2.6109412e-16  0              3.2539717    
    500000   127.27922      200            200            0.0083688213   1.7872732e-05  0              0.025088591    4.5507572      0              21973978       2.6109412e-16  0              3.2429285    
    600000   127.27922      200            200            0.0059701637   8.4147592e-37  0              0.017910491    0.010088471    0              48713.618      2.6109412e-16  0              3.2443296    
    700000   127.27922      200            200            0.004710934   -2.2722178e-36  0              0.014132802    0.37150521     0              1793865.7      2.6109412e-16  0              3.2451532    
    800000   127.27922      200            200            0.0043489238  -1.0227669e-37  0              0.013046771    0.043817916    0              211581.03      2.6109412e-16  0              3.2454089    
    900000   127.27922      200            200            0.0043901562   4.3050698e-37  0              0.013170469    0.00015002789  0              724.43097      2.6109412e-16  0              3.2453823    
   1000000   127.27922      200            200            0.0044536162   5.8647552e-39  0              0.013360849    0.0010538574   0              5088.7002      2.6109412e-16  0              3.245338     
   1100000   127.27922      200            200            0.0044690708   5.8983842e-38  0              0.013407212    8.1387366e-05  0              392.99046      2.6109412e-16  0              3.245327     
   1200000   127.27922      200            200            0.0044655416   2.3225325e-38  0              0.013396625    2.0395074e-06  0              9.8480511      2.6109412e-16  0              3.2453294    
   1300000   127.27922      200            200            0.0044622911   2.5227818e-39  0              0.013386873    2.8567102e-06  0              13.794031      2.6109412e-16  0              3.2453316    
   1400000   127.27922      200            200            0.0044617     -1.008346e-39   0              0.0133851      1.3141885e-07  0              0.63457459     2.6109412e-16  0              3.245332     
   1500000   127.27922      200            200            0.0044619455   8.538103e-39   0              0.013385836    1.199384e-08   0              0.057913962    2.6109412e-16  0              3.2453319    
   1600000   127.27922      200            200            0.0044621062  -3.6266566e-39  0              0.013386318    7.2367966e-09  0              0.034943901    2.6109412e-16  0              3.2453318    
   1700000   127.27922      200            200            0.0044621258  -4.7492251e-39  0              0.013386377    1.7298276e-10  0              0.00083527186  2.6109412e-16  0              3.2453318    
   1800000   127.27922      200            200            0.0044621105   1.0587857e-38  0              0.013386331    5.1654594e-11  0              0.00024942155  2.6109412e-16  0              3.2453318    
   1900000   127.27922      200            200            0.0044621028   2.4124251e-39  0              0.013386308    1.7164855e-11  0              8.2882941e-05  2.6109412e-16  0              3.2453318    
   2000000   127.27922      200            200            0.0044621023  -1.4297414e-39  0              0.013386307    1.5187559e-13  0              7.3335289e-07  2.6109412e-16  0              3.2453318    
   2100000   127.27922      200            200            0.0044621032   1.4940551e-39  0              0.01338631     1.8704674e-13  0              9.0318174e-07  2.6109412e-16  0              3.2453318    
   2200000   127.27922      200            200            0.0044621036  -3.0715475e-40  0              0.013386311    3.8006671e-14  0              1.8352061e-07  2.6109412e-16  0              3.2453318    
   2300000   127.27922      200            200            0.0044621036   4.3746337e-40  0              0.013386311    3.0405457e-17  0              1.4681707e-10  2.6109412e-16  0              3.2453318    
   2400000   127.27922      200            200            0.0044621035   6.157181e-39   0              0.013386311    6.0476107e-16  0              2.9201748e-09  2.6109412e-16  0              3.2453318    
   2500000   127.27922      200            200            0.0044621035  -4.9284201e-39  0              0.013386311    7.8872122e-17  0              3.8084525e-10  2.6109412e-16  0              3.2453318    
   2600000   127.27922      200            200            0.0044621035   4.7165339e-39  0              0.013386311    2.4256525e-19  0              1.1712608e-12  2.6109412e-16  0              3.2453318    
   2700000   127.27922      200            200            0.0044621035  -4.8448783e-39  0              0.013386311    1.967419e-18   0              9.4999623e-12  2.6109412e-16  0              3.2453318    
   2800000   127.27922      200            200            0.0044621035   9.977183e-39   0              0.013386311    1.8092297e-20  0              8.7361227e-14  2.6109412e-16  0              3.2453318    
   2900000   127.27922      200            200            0.0044621035   3.1946256e-39  0              0.013386311    1.120913e-19   0              5.4124877e-13  2.6109412e-16  0              3.2453318    
   3000000   127.27922      200            200            0.0044621035   1.4515126e-39  0              0.013386311    1.534281e-19   0              7.4084939e-13  2.6109412e-16  0              3.2453318    
Loop time of 68.988 on 4 procs for 3000000 steps with 51 atoms

Performance: 37571731.925 ns/day, 0.000 hours/ns, 43485.801 timesteps/s
99.9% CPU use with 4 MPI tasks x 1 OpenMP threads

MPI task timing breakdown:
Section |  min time  |  avg time  |  max time  |%varavg| %total
---------------------------------------------------------------
Pair    | 0.21524    | 1.2266     | 4.0407     | 146.8 |  1.78
Neigh   | 0.05949    | 0.060956   | 0.063708   |   0.7 |  0.09
Comm    | 29.826     | 37.355     | 43.658     |  92.8 | 54.15
Output  | 0.062088   | 0.062383   | 0.062802   |   0.1 |  0.09
Modify  | 14.952     | 21.449     | 29.606     | 140.5 | 31.09
Other   |            | 8.834      |            |       | 12.80

Nlocal:          12.75 ave          51 max           0 min
Histogram: 3 0 0 0 0 0 0 0 0 1
Nghost:          39.25 ave          52 max           1 min
Histogram: 1 0 0 0 0 0 0 0 0 3
Neighs:           7.25 ave          29 max           0 min
Histogram: 3 0 0 0 0 0 0 0 0 1

Total # of neighbors = 29
Ave neighs/atom = 0.56862745
Neighbor list builds = 155
Dangerous builds = 0

undump D1

############ Add spring between top chain to supp particle and then equilibrium  ###########

#fix sp1 support spring couple slider1 ${K0} ${lenspr} NULL NULL 0                                 # Add spring

#dump 		D2 all custom 100000 add_${num}*.dump id type diameter mass xu yu zu

#fix add1 all print 10 "${p0} ${distance} ${slider_z}" file add_distance_${num}.txt screen no      # out put step, distance(spring length), z-position of top chain

#run 1000000

#undump D2

#unfix add1

########## Pulling the supporting particle with constant velocity #############

#fix m1 support move linear 0.1 0 0 units box                                                      # apply constant velocity to supporting particles along x-direction V=0.1m/s

#fix move1 all print 100 "${p0} ${distance} ${slider_z}" file move_distance_${num}.txt screen no

#dump 		1 all custom 50000 move_${num}_*.dump id type diameter mass xu yu zu

#run 1000000

clear
  using 1 OpenMP thread(s) per MPI task

next num

jump SELF startloop
Total wall time: 0:59:40
