ITEM: TIMESTEP
2600000
ITEM: NUMBER OF ATOMS
58
ITEM: BOX BOUNDS pp pp pp
-6.0000000000000099e+01 6.0000000000000099e+01
-5.0000000000000000e+01 5.0000000000000000e+01
-5.0000000000000000e+01 5.0000000000000000e+01
ITEM: ATOMS id type diameter mass xu yu zu fx fy fz
1 1 3 31.1018 -59.3969696197 0 0 0 0 0
2 1 3 31.1018 -55.1543289326 0 0 0 0 0
3 1 3 31.1018 -50.9116882454 0 0 0 0 0
4 1 3 31.1018 -46.6690475583 0 0 0 0 0
5 1 3 31.1018 -42.4264068712 0 0 0 0 0
6 1 3 31.1018 -38.1837661841 0 0 0 0 0
7 1 3 31.1018 -33.941125497 0 0 0 0 0
8 1 3 31.1018 -29.6984848098 0 0 0 0 0
9 1 3 31.1018 -25.4558441227 0 0 0 0 0
10 1 3 31.1018 -21.2132034356 0 0 0 0 0
11 1 3 31.1018 -16.9705627485 0 0 0 0 0
12 1 3 31.1018 -12.7279220614 0 0 0 0 0
13 1 3 31.1018 -8.48528137424 0 0 0 0 0
14 1 3 31.1018 -4.24264068712 0 0 0 0 0
30 2 3 31.1018 -42 0 2.99626193644 0 0 -1000
31 2 3 31.1018 -39 0 2.99626193644 0 0 -1000
32 2 3 31.1018 -36 0 2.99626193644 0 0 -1000
33 2 3 31.1018 -33 0 2.99626193644 0 0 -1000
34 2 3 31.1018 -30 0 2.99626193644 0 0 -1000
35 2 3 31.1018 -27 0 2.99626193644 0 0 -1000
36 2 3 31.1018 -24 0 2.99626193644 0 0 -1000
37 2 3 31.1018 -21 0 2.99626193644 0 0 -1000
38 2 3 31.1018 -18 0 2.99626193644 0 0 -1000
39 2 3 31.1018 -15 0 2.99626193644 0 0 -1000
40 2 3 31.1018 -12 0 2.99626193644 0 0 -1000
41 2 3 31.1018 -9 0 2.99626193644 0 0 -1000
42 2 3 31.1018 -6 0 2.99626193644 0 0 -1000
43 2 3 31.1018 -3 0 2.99626193644 0 0 -1000
15 1 3 31.1018 0 0 0 0 0 0
16 1 3 31.1018 4.24264068712 0 0 0 0 0
17 1 3 31.1018 8.48528137424 0 0 0 0 0
18 1 3 31.1018 12.7279220614 0 0 0 0 0
19 1 3 31.1018 16.9705627485 0 0 0 0 0
20 1 3 31.1018 21.2132034356 0 0 0 0 0
21 1 3 31.1018 25.4558441227 0 0 0 0 0
22 1 3 31.1018 29.6984848098 0 0 0 0 0
23 1 3 31.1018 33.941125497 0 0 0 0 0
24 1 3 31.1018 38.1837661841 0 0 0 0 0
25 1 3 31.1018 42.4264068712 0 0 0 0 0
26 1 3 31.1018 46.6690475583 0 0 0 0 0
27 1 3 31.1018 50.9116882454 0 0 0 0 0
28 1 3 31.1018 55.1543289326 0 0 0 0 0
29 1 3 31.1018 59.3969696197 0 0 0 0 0
44 2 3 31.1018 1.57787091618e-19 0 2.99626193644 -9.82618e-25 0 28000
45 2 3 31.1018 3 0 2.99626193644 0 0 -1000
46 2 3 31.1018 6 0 2.99626193644 0 0 -1000
47 2 3 31.1018 9 0 2.99626193644 0 0 -1000
48 2 3 31.1018 12 0 2.99626193644 0 0 -1000
49 2 3 31.1018 15 0 2.99626193644 0 0 -1000
50 2 3 31.1018 18 0 2.99626193644 0 0 -1000
51 2 3 31.1018 21 0 2.99626193644 0 0 -1000
52 2 3 31.1018 24 0 2.99626193644 0 0 -1000
53 2 3 31.1018 27 0 2.99626193644 0 0 -1000
54 2 3 31.1018 30 0 2.99626193644 0 0 -1000
55 2 3 31.1018 33 0 2.99626193644 0 0 -1000
56 2 3 31.1018 36 0 2.99626193644 0 0 -1000
57 2 3 31.1018 39 0 2.99626193644 0 0 -1000
58 2 3 31.1018 42 0 2.99626193644 0 0 -1000
