LAMMPS (23 Jun 2022 - Update 1)
  using 1 OpenMP thread(s) per MPI task
Lattice spacing in x,y,z = 4.2426407 4.2426407 4.2426407
Created orthogonal box = (-60 -50 -50) to (60 50 50)
  2 by 1 by 2 MPI processor grid
Created 29 atoms
  using lattice units in orthogonal box = (-60 -50 -50) to (60 50 50)
  create_atoms CPU = 0.003 seconds
Lattice spacing in x,y,z = 3 3 3
Created 29 atoms
  using lattice units in orthogonal box = (-60 -50 -50) to (60 50 50)
  create_atoms CPU = 0.004 seconds
Setting atom values ...
  29 settings made for diameter
Setting atom values ...
  29 settings made for mass
Setting atom values ...
  29 settings made for diameter
Setting atom values ...
  29 settings made for mass
29 atoms in group substrate
29 atoms in group slider1
  1 rigid bodies with 29 atoms
Generated 0 of 1 mixed pair_coeff terms from geometric mixing rule
Neighbor list info ...
  update every 1 steps, delay 0 steps, check yes
  max neighbors/atom: 2000, page size: 100000
  master list distance cutoff = 3.1
  ghost atom cutoff = 3.1
  binsize = 1.55, bins = 78 65 65
  1 neighbor lists, perpetual/occasional/extra = 1 0 0
  (1) pair granular, perpetual
      attributes: half, newton on, size, history
      pair build: half/size/bin/newton
      stencil: half/bin/3d
      bin: standard
Setting up Verlet run ...
  Unit style    : micro
  Current step  : 0
  Time step     : 1e-05
Per MPI rank memory allocation (min/avg/max) = 13.11 | 15.42 | 17.73 Mbytes
   Step           Lx             Ly             Lz           Press           Pxx            Pyy            Pzz           KinEng         PotEng          Temp          c_1[1]         c_1[2]         c_1[3]    
         0   120            100            100            5.1071223e-15  1.5321367e-14  0              0              0              0              0              0              0              6            
    100000   120            100            100            0.018846772    1.5321367e-14  0              0.056540315    15947.543      0              7.7004977e+11  0              0              3.3517082    
    200000   120            100            100            0.005173997    1.5321367e-14  0              0.015521991    2588.956       0              1.2501142e+11  0              0              3.1118753    
    300000   120            100            100            0.0042605468   0.00029886365  0              0.012482777    1126.6007      0              5.4399518e+10  0              0              2.9919276    
    400000   120            100            100            0.071954898    0.009787891    0              0.2060768      5.3373337      0              2.5772074e+08  0              0              2.9768944    
    500000   120            100            100            0.044020057    0.015503594    0              0.11655658     0.4460338      0              21537376       0              0              2.9818503    
    600000   120            100            100            0.033212457    0.015039097    0              0.084598273    0.90779713     0              43834274       0              0              2.9840384    
    700000   120            100            100            0.030620577    0.014714398    0              0.077147334    0.00047205555  0              22793.873      0              0              2.9846637    
    800000   120            100            100            0.029210336    0.014598881    0              0.073032128    0.048545832    0              2344104.5      0              0              2.9850525    
    900000   120            100            100            0.028768277    0.014536743    0              0.071768086    0.0057220359   0              276296.63      0              0              2.9851715    
   1000000   120            100            100            0.028814626    0.01454436     0              0.071899518    2.8094214e-05  0              1356.569       0              0              2.9851571    
   1100000   120            100            100            0.028889471    0.01455531     0              0.072113103    0.00014291194  0              6900.7062      0              0              2.9851364    
   1200000   120            100            100            0.028907426    0.01455782     0              0.072164457    9.9067941e-06  0              478.36363      0              0              2.9851316    
   1300000   120            100            100            0.028903099    0.014557155    0              0.072152142    3.6002542e-07  0              17.384339      0              0              2.9851328    
   1400000   120            100            100            0.028899272    0.014556601    0              0.072141215    3.8416487e-07  0              18.549947      0              0              2.9851339    
   1500000   120            100            100            0.02889862     0.014556511    0              0.072139348    1.4207592e-08  0              0.68603376     0              0              2.9851341    
   1600000   120            100            100            0.028898927    0.014556558    0              0.072140223    2.0543471e-09  0              0.09919707     0              0              2.985134     
   1700000   120            100            100            0.028899114    0.014556585    0              0.072140759    9.4740609e-10  0              0.045746849    0              0              2.9851339    
   1800000   120            100            100            0.028899133    0.014556587    0              0.072140813    1.4579515e-11  0              0.00070399259  0              0              2.9851339    
   1900000   120            100            100            0.028899114    0.014556584    0              0.072140759    8.5853999e-12  0              0.00041455824  0              0              2.9851339    
   2000000   120            100            100            0.028899105    0.014556583    0              0.072140733    2.1428974e-12  0              0.00010347285  0              0              2.9851339    
   2100000   120            100            100            0.028899105    0.014556583    0              0.072140733    5.9040007e-15  0              2.8508307e-07  0              0              2.9851339    
   2200000   120            100            100            0.028899106    0.014556583    0              0.072140736    3.0006505e-14  0              1.4489067e-06  0              0              2.9851339    
   2300000   120            100            100            0.028899107    0.014556583    0              0.072140737    4.4049803e-15  0              2.1270074e-07  0              0              2.9851339    
   2400000   120            100            100            0.028899107    0.014556583    0              0.072140737    4.0689615e-18  0              1.9647559e-10  0              0              2.9851339    
   2500000   120            100            100            0.028899107    0.014556583    0              0.072140737    9.2294148e-17  0              4.4565541e-09  0              0              2.9851339    
   2600000   120            100            100            0.028899107    0.014556583    0              0.072140737    8.138255e-18   0              3.9296721e-10  0              0              2.9851339    
   2700000   120            100            100            0.028899107    0.014556583    0              0.072140737    1.2243743e-20  0              5.9120654e-13  0              0              2.9851339    
   2800000   120            100            100            0.028899107    0.014556583    0              0.072140737    2.9922694e-19  0              1.4448598e-11  0              0              2.9851339    
   2900000   120            100            100            0.028899107    0.014556583    0              0.072140737    2.9850778e-21  0              1.4413873e-13  0              0              2.9851339    
   3000000   120            100            100            0.028899107    0.014556583    0              0.072140737    1.6347104e-20  0              7.8934315e-13  0              0              2.9851339    
Loop time of 59.0653 on 4 procs for 3000000 steps with 58 atoms

Performance: 43883664.808 ns/day, 0.000 hours/ns, 50791.279 timesteps/s
100.0% CPU use with 4 MPI tasks x 1 OpenMP threads

MPI task timing breakdown:
Section |  min time  |  avg time  |  max time  |%varavg| %total
---------------------------------------------------------------
Pair    | 0.22499    | 1.7432     | 3.4548     | 111.5 |  2.95
Neigh   | 0.021713   | 0.022371   | 0.023026   |   0.4 |  0.04
Comm    | 25.441     | 29.777     | 34.273     |  78.8 | 50.41
Output  | 0.088309   | 0.08852    | 0.088773   |   0.1 |  0.15
Modify  | 14.425     | 19.941     | 25.441     | 122.2 | 33.76
Other   |            | 7.493      |            |       | 12.69

Nlocal:           14.5 ave          29 max           0 min
Histogram: 2 0 0 0 0 0 0 0 0 2
Nghost:           17.5 ave          32 max           3 min
Histogram: 2 0 0 0 0 0 0 0 0 2
Neighs:             10 ave          20 max           0 min
Histogram: 2 0 0 0 0 0 0 0 0 2

Total # of neighbors = 40
Ave neighs/atom = 0.68965517
Neighbor list builds = 164
Dangerous builds = 0
  using 1 OpenMP thread(s) per MPI task
Lattice spacing in x,y,z = 4.2426407 4.2426407 4.2426407
Created orthogonal box = (-60 -50 -50) to (60 50 50)
  2 by 1 by 2 MPI processor grid
Created 29 atoms
  using lattice units in orthogonal box = (-60 -50 -50) to (60 50 50)
  create_atoms CPU = 0.001 seconds
Lattice spacing in x,y,z = 3 3 3
Created 29 atoms
  using lattice units in orthogonal box = (-60 -50 -50) to (60 50 50)
  create_atoms CPU = 0.003 seconds
Setting atom values ...
  29 settings made for diameter
Setting atom values ...
  29 settings made for mass
Setting atom values ...
  29 settings made for diameter
Setting atom values ...
  29 settings made for mass
29 atoms in group substrate
29 atoms in group slider1
  1 rigid bodies with 29 atoms
Generated 0 of 1 mixed pair_coeff terms from geometric mixing rule
Neighbor list info ...
  update every 1 steps, delay 0 steps, check yes
  max neighbors/atom: 2000, page size: 100000
  master list distance cutoff = 3.1
  ghost atom cutoff = 3.1
  binsize = 1.55, bins = 78 65 65
  1 neighbor lists, perpetual/occasional/extra = 1 0 0
  (1) pair granular, perpetual
      attributes: half, newton on, size, history
      pair build: half/size/bin/newton
      stencil: half/bin/3d
      bin: standard
Setting up Verlet run ...
  Unit style    : micro
  Current step  : 0
  Time step     : 1e-05
Per MPI rank memory allocation (min/avg/max) = 13.11 | 15.42 | 17.73 Mbytes
   Step           Lx             Ly             Lz           Press           Pxx            Pyy            Pzz           KinEng         PotEng          Temp          c_1[1]         c_1[2]         c_1[3]    
         0   120            100            100            5.1071223e-15  1.5321367e-14  0              0              0              0              0              0              0              6            
    100000   120            100            100            0.018999504    1.5321367e-14  0              0.056998511    16141.486      0              7.7941461e+11  0              0              3.3465167    
    200000   120            100            100            0.0055043838   1.5321367e-14  0              0.016513151    2857.755       0              1.3799076e+11  0              0              3.1054425    
    300000   120            100            100           -0.001465077    1.5321367e-14  0             -0.0043952311   667.94419      0              3.2252634e+10  0              0              3.0101158    
    400000   120            100            100            0.003398038    1.5321367e-14  0              0.010194114    96.929608      0              4.6803839e+09  0              0              2.9947282    
    500000   120            100            100            0.033680335    0.014316       0              0.086725004    26.593699      0              1.2841145e+09  0              0              2.9859219    
    600000   120            100            100            0.023104328    0.0098896242   0              0.059423359    0.99591967     0              48089397       0              0              2.9880642    
    700000   120            100            100            0.026664978    0.012299937    0              0.067694996    0.17809629     0              8599632.3      0              0              2.9873315    
    800000   120            100            100            0.028377975    0.012552792    0              0.072581134    0.065474416    0              3161525.2      0              0              2.9869346    
    900000   120            100            100            0.028495094    0.01256654     0              0.072918741    0.00045729347  0              22081.065      0              0              2.9869114    
   1000000   120            100            100            0.028299038    0.012539089    0              0.072358026    0.00078192907  0              37756.557      0              0              2.9869575    
   1100000   120            100            100            0.028222786    0.012528633    0              0.072139723    0.00013396343  0              6468.6147      0              0              2.9869748    
   1200000   120            100            100            0.028225591    0.012529143    0              0.072147629    3.4337609e-08  0              1.6580403      0              0              2.986974     
   1300000   120            100            100            0.028236779    0.012530719    0              0.072179619    2.6364799e-06  0              127.30618      0              0              2.9869714    
   1400000   120            100            100            0.028239878    0.01253114     0              0.072188493    2.2991617e-07  0              11.101829      0              0              2.9869707    
   1500000   120            100            100            0.028239326    0.012531058    0              0.072186922    4.9979147e-09  0              0.24133142     0              0              2.9869708    
   1600000   120            100            100            0.028238736    0.012530975    0              0.072185233    7.5419914e-09  0              0.36417577     0              0              2.9869709    
   1700000   120            100            100            0.028238627    0.012530961    0              0.072184921    3.0349708e-10  0              0.014654788    0              0              2.986971     
   1800000   120            100            100            0.028238673    0.012530967    0              0.072185052    4.0153916e-11  0              0.0019388889   0              0              2.986971     
   1900000   120            100            100            0.028238702    0.012530971    0              0.072185135    1.8716483e-11  0              0.00090375198  0              0              2.986971     
   2000000   120            100            100            0.028238705    0.012530972    0              0.072185143    2.3718922e-13  0              1.1453018e-05  0              0              2.986971     
   2100000   120            100            100            0.028238702    0.012530971    0              0.072185135    1.8839225e-13  0              9.0967876e-06  0              0              2.986971     
   2200000   120            100            100            0.028238701    0.012530971    0              0.072185131    4.0307487e-14  0              1.9463043e-06  0              0              2.986971     
   2300000   120            100            100            0.028238701    0.012530971    0              0.072185131    1.2549176e-17  0              6.059548e-10   0              0              2.986971     
   2400000   120            100            100            0.028238701    0.012530971    0              0.072185131    6.7637088e-16  0              3.2659529e-08  0              0              2.986971     
   2500000   120            100            100            0.028238701    0.012530971    0              0.072185131    7.2514278e-17  0              3.501455e-09   0              0              2.986971     
   2600000   120            100            100            0.028238701    0.012530971    0              0.072185131    1.238612e-18   0              5.9808142e-11  0              0              2.986971     
   2700000   120            100            100            0.028238701    0.012530971    0              0.072185131    1.5556913e-18  0              7.5118766e-11  0              0              2.986971     
   2800000   120            100            100            0.028238701    0.012530971    0              0.072185131    4.4379063e-20  0              2.1429061e-12  0              0              2.986971     
   2900000   120            100            100            0.028238701    0.012530971    0              0.072185131    8.951329e-20   0              4.3222764e-12  0              0              2.986971     
   3000000   120            100            100            0.028238701    0.012530971    0              0.072185131    1.1941007e-20  0              5.765885e-13   0              0              2.986971     
Loop time of 57.4959 on 4 procs for 3000000 steps with 58 atoms

Performance: 45081502.901 ns/day, 0.000 hours/ns, 52177.665 timesteps/s
99.9% CPU use with 4 MPI tasks x 1 OpenMP threads

MPI task timing breakdown:
Section |  min time  |  avg time  |  max time  |%varavg| %total
---------------------------------------------------------------
Pair    | 0.21966    | 1.5564     | 3.0302     | 103.0 |  2.71
Neigh   | 0.020952   | 0.021531   | 0.022128   |   0.4 |  0.04
Comm    | 24.96      | 29.458     | 33.92      |  81.3 | 51.24
Output  | 0.089669   | 0.089851   | 0.090069   |   0.1 |  0.16
Modify  | 13.414     | 19.118     | 24.756     | 128.8 | 33.25
Other   |            | 7.252      |            |       | 12.61

Nlocal:           14.5 ave          30 max           0 min
Histogram: 2 0 0 0 0 0 0 0 0 2
Nghost:           17.5 ave          32 max           2 min
Histogram: 2 0 0 0 0 0 0 0 0 2
Neighs:             10 ave          21 max           0 min
Histogram: 2 0 0 0 0 0 0 0 0 2

Total # of neighbors = 40
Ave neighs/atom = 0.68965517
Neighbor list builds = 162
Dangerous builds = 0
  using 1 OpenMP thread(s) per MPI task
Lattice spacing in x,y,z = 4.2426407 4.2426407 4.2426407
Created orthogonal box = (-60 -50 -50) to (60 50 50)
  2 by 1 by 2 MPI processor grid
Created 29 atoms
  using lattice units in orthogonal box = (-60 -50 -50) to (60 50 50)
  create_atoms CPU = 0.001 seconds
Lattice spacing in x,y,z = 3 3 3
Created 29 atoms
  using lattice units in orthogonal box = (-60 -50 -50) to (60 50 50)
  create_atoms CPU = 0.003 seconds
Setting atom values ...
  29 settings made for diameter
Setting atom values ...
  29 settings made for mass
Setting atom values ...
  29 settings made for diameter
Setting atom values ...
  29 settings made for mass
29 atoms in group substrate
29 atoms in group slider1
  1 rigid bodies with 29 atoms
Generated 0 of 1 mixed pair_coeff terms from geometric mixing rule
Neighbor list info ...
  update every 1 steps, delay 0 steps, check yes
  max neighbors/atom: 2000, page size: 100000
  master list distance cutoff = 3.1
  ghost atom cutoff = 3.1
  binsize = 1.55, bins = 78 65 65
  1 neighbor lists, perpetual/occasional/extra = 1 0 0
  (1) pair granular, perpetual
      attributes: half, newton on, size, history
      pair build: half/size/bin/newton
      stencil: half/bin/3d
      bin: standard
Setting up Verlet run ...
  Unit style    : micro
  Current step  : 0
  Time step     : 1e-05
Per MPI rank memory allocation (min/avg/max) = 13.11 | 15.42 | 17.73 Mbytes
   Step           Lx             Ly             Lz           Press           Pxx            Pyy            Pzz           KinEng         PotEng          Temp          c_1[1]         c_1[2]         c_1[3]    
         0   120            100            100            5.1071223e-15  1.5321367e-14  0              0              0              0              0              0              0              6            
    100000   120            100            100            0.019106343    1.5321367e-14  0              0.057319029    16277.512      0              7.8598282e+11  0              0              3.3428909    
    200000   120            100            100            0.0057387363   1.5321367e-14  0              0.017216209    3053.4426      0              1.4743981e+11  0              0              3.1006398    
    300000   120            100            100           -0.0012154821   1.5321367e-14  0             -0.0036464462   409.65851      0              1.9780943e+10  0              0              3.0205633    
    400000   120            100            100            0.00039159999  1.5321367e-14  0              0.0011748      9.4953776      0              4.584978e+08   0              0              2.9994538    
    500000   120            100            100            0.011359048    0.0012639938   0              0.032813149    3.5194703      0              1.6994263e+08  0              0              2.9914948    
    600000   120            100            100            0.034253445    0.013473985    0              0.089286352    0.22680518     0              10951611       0              0              2.9870402    
    700000   120            100            100            0.025724735    0.010451413    0              0.066722794    0.090579721    0              4373770.5      0              0              2.9885932    
    800000   120            100            100            0.02795231     0.010786125    0              0.073070804    0.061467359    0              2968038.8      0              0              2.988128     
    900000   120            100            100            0.02775178     0.01075622     0              0.07249912     0.0087406029   0              422052.43      0              0              2.9881735    
   1000000   120            100            100            0.027558108    0.010731004    0              0.071943321    0.00029032993  0              14018.993      0              0              2.9882112    
   1100000   120            100            100            0.027690564    0.010748901    0              0.072322791    1.1741655e-05  0              566.9625       0              0              2.9881845    
   1200000   120            100            100            0.027645198    0.010742679    0              0.072192914    1.7296325e-05  0              835.17765      0              0              2.9881938    
   1300000   120            100            100            0.027651799    0.010743633    0              0.072211764    3.1861592e-06  0              153.84822      0              0              2.9881924    
   1400000   120            100            100            0.027654368    0.010743961    0              0.072219144    1.6183904e-07  0              7.8146281      0              0              2.9881919    
   1500000   120            100            100            0.027652086    0.010743655    0              0.072212604    5.7726576e-10  0              0.027874098    0              0              2.9881924    
   1600000   120            100            100            0.027652972    0.010743776    0              0.072215141    4.5456114e-09  0              0.21949131     0              0              2.9881922    
   1700000   120            100            100            0.027652802    0.010743752    0              0.072214654    1.1021956e-09  0              0.05322108     0              0              2.9881922    
   1800000   120            100            100            0.027652774    0.010743749    0              0.072214574    7.7904799e-11  0              0.0037617439   0              0              2.9881922    
   1900000   120            100            100            0.027652812    0.010743754    0              0.072214683    7.8279152e-14  0              3.7798201e-06  0              0              2.9881922    
   2000000   120            100            100            0.027652796    0.010743751    0              0.072214635    1.0878247e-12  0              5.2527164e-05  0              0              2.9881922    
   2100000   120            100            100            0.027652799    0.010743752    0              0.072214647    3.6204646e-13  0              1.7481928e-05  0              0              2.9881922    
   2200000   120            100            100            0.0276528      0.010743752    0              0.072214647    3.3931758e-14  0              1.6384432e-06  0              0              2.9881922    
   2300000   120            100            100            0.027652799    0.010743752    0              0.072214645    3.271037e-16   0              1.5794667e-08  0              0              2.9881922    
   2400000   120            100            100            0.027652799    0.010743752    0              0.072214646    2.319214e-16   0              1.1198654e-08  0              0              2.9881922    
   2500000   120            100            100            0.027652799    0.010743752    0              0.072214646    1.1297389e-16  0              5.4551047e-09  0              0              2.9881922    
   2600000   120            100            100            0.027652799    0.010743752    0              0.072214646    1.3733207e-17  0              6.6312744e-10  0              0              2.9881922    
   2700000   120            100            100            0.027652799    0.010743752    0              0.072214646    3.8286689e-21  0              1.8487272e-13  0              0              2.9881922    
   2800000   120            100            100            0.027652799    0.010743752    0              0.072214646    3.6820219e-20  0              1.7779166e-12  0              0              2.9881922    
   2900000   120            100            100            0.027652799    0.010743752    0              0.072214646    3.000034e-20   0              1.448609e-12   0              0              2.9881922    
   3000000   120            100            100            0.027652799    0.010743752    0              0.072214646    1.3468367e-19  0              6.5033926e-12  0              0              2.9881922    
Loop time of 58.0265 on 4 procs for 3000000 steps with 58 atoms

Performance: 44669225.951 ns/day, 0.000 hours/ns, 51700.493 timesteps/s
99.9% CPU use with 4 MPI tasks x 1 OpenMP threads

MPI task timing breakdown:
Section |  min time  |  avg time  |  max time  |%varavg| %total
---------------------------------------------------------------
Pair    | 0.21883    | 1.5371     | 2.8911     | 101.8 |  2.65
Neigh   | 0.022269   | 0.023034   | 0.0238     |   0.5 |  0.04
Comm    | 25.221     | 29.777     | 34.266     |  82.2 | 51.32
Output  | 0.089122   | 0.089282   | 0.089468   |   0.1 |  0.15
Modify  | 13.481     | 19.306     | 25.108     | 129.9 | 33.27
Other   |            | 7.294      |            |       | 12.57

Nlocal:           14.5 ave          29 max           0 min
Histogram: 2 0 0 0 0 0 0 0 0 2
Nghost:           17.5 ave          32 max           3 min
Histogram: 2 0 0 0 0 0 0 0 0 2
Neighs:             10 ave          20 max           0 min
Histogram: 2 0 0 0 0 0 0 0 0 2

Total # of neighbors = 40
Ave neighs/atom = 0.68965517
Neighbor list builds = 166
Dangerous builds = 0
  using 1 OpenMP thread(s) per MPI task
Lattice spacing in x,y,z = 4.2426407 4.2426407 4.2426407
Created orthogonal box = (-60 -50 -50) to (60 50 50)
  2 by 1 by 2 MPI processor grid
Created 29 atoms
  using lattice units in orthogonal box = (-60 -50 -50) to (60 50 50)
  create_atoms CPU = 0.000 seconds
Lattice spacing in x,y,z = 3 3 3
Created 29 atoms
  using lattice units in orthogonal box = (-60 -50 -50) to (60 50 50)
  create_atoms CPU = 0.003 seconds
Setting atom values ...
  29 settings made for diameter
Setting atom values ...
  29 settings made for mass
Setting atom values ...
  29 settings made for diameter
Setting atom values ...
  29 settings made for mass
29 atoms in group substrate
29 atoms in group slider1
  1 rigid bodies with 29 atoms
Generated 0 of 1 mixed pair_coeff terms from geometric mixing rule
Neighbor list info ...
  update every 1 steps, delay 0 steps, check yes
  max neighbors/atom: 2000, page size: 100000
  master list distance cutoff = 3.1
  ghost atom cutoff = 3.1
  binsize = 1.55, bins = 78 65 65
  1 neighbor lists, perpetual/occasional/extra = 1 0 0
  (1) pair granular, perpetual
      attributes: half, newton on, size, history
      pair build: half/size/bin/newton
      stencil: half/bin/3d
      bin: standard
Setting up Verlet run ...
  Unit style    : micro
  Current step  : 0
  Time step     : 1e-05
Per MPI rank memory allocation (min/avg/max) = 13.11 | 15.42 | 17.73 Mbytes
   Step           Lx             Ly             Lz           Press           Pxx            Pyy            Pzz           KinEng         PotEng          Temp          c_1[1]         c_1[2]         c_1[3]    
         0   120            100            100            5.1071223e-15  1.5321367e-14  0              0              0              0              0              0              0              6            
    100000   120            100            100            0.019186759    1.5321367e-14  0              0.057560276    16380.054      0              7.909342e+11   0              0              3.3401749    
    200000   120            100            100            0.0059183196   1.5321367e-14  0              0.017754959    3206.1488      0              1.5481345e+11  0              0              3.0968109    
    300000   120            100            100           -0.0010043457   1.5321367e-14  0             -0.0030130372   257.92175      0              1.2454118e+10  0              0              3.0271452    
    400000   120            100            100            0.0058325429   1.5321367e-14  0              0.017497629    144.02379      0              6.9543934e+09  0              0              2.9954226    
    500000   120            100            100            0.046731594    0.019423976    0              0.12077081     7.2822028      0              3.5163151e+08  0              0              2.9863418    
    600000   120            100            100            0.033962971    0.01231836     0              0.089570554    0.70156141     0              33875890       0              0              2.9880114    
    700000   120            100            100            0.026183483    0.009063583    0              0.069486866    0.46885358     0              22639262       0              0              2.9892489    
    800000   120            100            100            0.026359946    0.0089113774   0              0.07016846     0.019555215    0              944251.33      0              0              2.9892159    
    900000   120            100            100            0.027278806    0.0090352235   0              0.072801194    0.0062935663   0              303893.79      0              0              2.9890455    
   1000000   120            100            100            0.027159926    0.0090209926   0              0.072458787    0.00073568836  0              35523.758      0              0              2.989066     
   1100000   120            100            100            0.027047648    0.0090062617   0              0.072136682    6.2840878e-05  0              3034.3611      0              0              2.9890869    
   1200000   120            100            100            0.027075327    0.0090097514   0              0.07221623     2.0116904e-05  0              971.37328      0              0              2.9890819    
   1300000   120            100            100            0.02708767     0.0090113918   0              0.072251619    3.728194e-07   0              18.002115      0              0              2.9890796    
   1400000   120            100            100            0.027082653    0.0090107519   0              0.072237207    4.486753e-07   0              21.664924      0              0              2.9890805    
   1500000   120            100            100            0.0270815      0.0090105959   0              0.072233904    1.8435195e-10  0              0.0089016957   0              0              2.9890807    
   1600000   120            100            100            0.027082298    0.0090106986   0              0.072236195    8.4699147e-09  0              0.40898187     0              0              2.9890806    
   1700000   120            100            100            0.027082371    0.0090107091   0              0.072236405    5.8493972e-11  0              0.0028244646   0              0              2.9890806    
   1800000   120            100            100            0.027082256    0.0090106941   0              0.072236074    1.3605699e-10  0              0.0065697053   0              0              2.9890806    
   1900000   120            100            100            0.027082258    0.0090106943   0              0.072236079    5.0044411e-12  0              0.00024164655  0              0              2.9890806    
   2000000   120            100            100            0.027082273    0.0090106963   0              0.072236124    1.816355e-12   0              8.770528e-05   0              0              2.9890806    
   2100000   120            100            100            0.027082271    0.0090106961   0              0.072236118    1.9498879e-13  0              9.4153107e-06  0              0              2.9890806    
   2200000   120            100            100            0.02708227     0.0090106958   0              0.072236113    1.873287e-14   0              9.0454325e-07  0              0              2.9890806    
   2300000   120            100            100            0.02708227     0.0090106959   0              0.072236114    5.446217e-15   0              2.6297833e-07  0              0              2.9890806    
   2400000   120            100            100            0.02708227     0.0090106959   0              0.072236115    1.2196201e-16  0              5.889109e-09   0              0              2.9890806    
   2500000   120            100            100            0.02708227     0.0090106959   0              0.072236115    1.2358924e-16  0              5.9676822e-09  0              0              2.9890806    
   2600000   120            100            100            0.02708227     0.0090106959   0              0.072236114    3.6968749e-20  0              1.7850886e-12  0              0              2.9890806    
   2700000   120            100            100            0.02708227     0.0090106959   0              0.072236115    1.8681302e-18  0              9.020532e-11   0              0              2.9890806    
   2800000   120            100            100            0.02708227     0.0090106959   0              0.072236115    4.0069725e-20  0              1.9348236e-12  0              0              2.9890806    
   2900000   120            100            100            0.02708227     0.0090106959   0              0.072236115    1.5387741e-19  0              7.4301894e-12  0              0              2.9890806    
   3000000   120            100            100            0.02708227     0.0090106959   0              0.072236115    3.8055603e-20  0              1.8375689e-12  0              0              2.9890806    
Loop time of 57.6823 on 4 procs for 3000000 steps with 58 atoms

Performance: 44935815.653 ns/day, 0.000 hours/ns, 52009.046 timesteps/s
99.9% CPU use with 4 MPI tasks x 1 OpenMP threads

MPI task timing breakdown:
Section |  min time  |  avg time  |  max time  |%varavg| %total
---------------------------------------------------------------
Pair    | 0.21789    | 1.5383     | 3.0591     | 102.5 |  2.67
Neigh   | 0.021854   | 0.022583   | 0.023313   |   0.5 |  0.04
Comm    | 25.146     | 29.614     | 34.175     |  81.4 | 51.34
Output  | 0.13162    | 0.1318     | 0.13202    |   0.0 |  0.23
Modify  | 13.414     | 19.11      | 24.796     | 129.8 | 33.13
Other   |            | 7.266      |            |       | 12.60

Nlocal:           14.5 ave          30 max           0 min
Histogram: 2 0 0 0 0 0 0 0 0 2
Nghost:           17.5 ave          32 max           2 min
Histogram: 2 0 0 0 0 0 0 0 0 2
Neighs:             10 ave          21 max           0 min
Histogram: 2 0 0 0 0 0 0 0 0 2

Total # of neighbors = 40
Ave neighs/atom = 0.68965517
Neighbor list builds = 164
Dangerous builds = 0
  using 1 OpenMP thread(s) per MPI task
Lattice spacing in x,y,z = 4.2426407 4.2426407 4.2426407
Created orthogonal box = (-60 -50 -50) to (60 50 50)
  2 by 1 by 2 MPI processor grid
Created 29 atoms
  using lattice units in orthogonal box = (-60 -50 -50) to (60 50 50)
  create_atoms CPU = 0.000 seconds
Lattice spacing in x,y,z = 3 3 3
Created 29 atoms
  using lattice units in orthogonal box = (-60 -50 -50) to (60 50 50)
  create_atoms CPU = 0.003 seconds
Setting atom values ...
  29 settings made for diameter
Setting atom values ...
  29 settings made for mass
Setting atom values ...
  29 settings made for diameter
Setting atom values ...
  29 settings made for mass
29 atoms in group substrate
29 atoms in group slider1
  1 rigid bodies with 29 atoms
Generated 0 of 1 mixed pair_coeff terms from geometric mixing rule
Neighbor list info ...
  update every 1 steps, delay 0 steps, check yes
  max neighbors/atom: 2000, page size: 100000
  master list distance cutoff = 3.1
  ghost atom cutoff = 3.1
  binsize = 1.55, bins = 78 65 65
  1 neighbor lists, perpetual/occasional/extra = 1 0 0
  (1) pair granular, perpetual
      attributes: half, newton on, size, history
      pair build: half/size/bin/newton
      stencil: half/bin/3d
      bin: standard
Setting up Verlet run ...
  Unit style    : micro
  Current step  : 0
  Time step     : 1e-05
Per MPI rank memory allocation (min/avg/max) = 13.11 | 15.42 | 17.73 Mbytes
   Step           Lx             Ly             Lz           Press           Pxx            Pyy            Pzz           KinEng         PotEng          Temp          c_1[1]         c_1[2]         c_1[3]    
         0   120            100            100            5.1071223e-15  1.5321367e-14  0              0              0              0              0              0              0              6            
    100000   120            100            100            0.019250319    1.5321367e-14  0              0.057750957    16461.186      0              7.9485174e+11  0              0              3.3380398    
    200000   120            100            100            0.006061452    1.5321367e-14  0              0.018184356    3329.5198      0              1.607706e+11   0              0              3.0936796    
    300000   120            100            100           -0.00082491041  1.5321367e-14  0             -0.0024747312   163.7592       0              7.9073458e+09  0              0              3.031555     
    400000   120            100            100            0.032669149    0.0093622965   0              0.08864515     233.60137      0              1.1279774e+10  0              0              2.9890404    
    500000   120            100            100            0.014480107    0.001076568    0              0.042363752    21.512611      0              1.038767e+09   0              0              2.9917549    
    600000   120            100            100            0.033405034    0.010420371    0              0.089794731    1.2024567      0              58062333       0              0              2.9887945    
    700000   120            100            100            0.025595846    0.0068632312   0              0.069924307    0.51822227     0              25023099       0              0              2.9899153    
    800000   120            100            100            0.025679211    0.0073422777   0              0.069695356    6.7068727e-06  0              323.85088      0              0              2.9899196    
    900000   120            100            100            0.026447639    0.0074464711   0              0.071896445    0.0092351714   0              445933.37      0              0              2.9897867    
   1000000   120            100            100            0.026660078    0.0074725576   0              0.072507675    0.00065365693  0              31562.754      0              0              2.9897514    
   1100000   120            100            100            0.026611317    0.0074662031   0              0.072367747    3.9632373e-05  0              1913.7054      0              0              2.98976      
   1200000   120            100            100            0.026569825    0.0074610167   0              0.072248457    2.6142559e-05  0              1262.3306      0              0              2.9897671    
   1300000   120            100            100            0.026565512    0.0074605166   0              0.072236019    2.4364983e-07  0              11.764978      0              0              2.9897678    
   1400000   120            100            100            0.02656999     0.0074610887   0              0.072248882    3.1580143e-07  0              15.248921      0              0              2.989767     
   1500000   120            100            100            0.026571752    0.0074613069   0              0.07225395     4.6072017e-08  0              2.2246528      0              0              2.9897667    
   1600000   120            100            100            0.02657161     0.0074612869   0              0.072253543    3.8288383e-10  0              0.01848809     0              0              2.9897667    
   1700000   120            100            100            0.026571334    0.0074612521   0              0.07225275     1.169035e-09   0              0.056448517    0              0              2.9897668    
   1800000   120            100            100            0.026571281    0.0074612457   0              0.072252596    4.0296112e-11  0              0.001945755    0              0              2.9897668    
   1900000   120            100            100            0.026571304    0.0074612487   0              0.072252663    8.7394458e-12  0              0.00042199656  0              0              2.9897668    
   2000000   120            100            100            0.026571317    0.0074612504   0              0.072252702    2.6787794e-12  0              0.00012934867  0              0              2.9897668    
   2100000   120            100            100            0.026571318    0.0074612504   0              0.072252703    9.361455e-16   0              4.5203116e-08  0              0              2.9897668    
   2200000   120            100            100            0.026571316    0.0074612502   0              0.072252698    4.556227e-14   0              2.2000389e-06  0              0              2.9897668    
   2300000   120            100            100            0.026571315    0.0074612501   0              0.072252696    3.6318783e-15  0              1.753704e-07   0              0              2.9897668    
   2400000   120            100            100            0.026571316    0.0074612501   0              0.072252697    1.7080178e-16  0              8.2474069e-09  0              0              2.9897668    
   2500000   120            100            100            0.026571316    0.0074612501   0              0.072252697    1.3399275e-16  0              6.4700304e-09  0              0              2.9897668    
   2600000   120            100            100            0.026571316    0.0074612501   0              0.072252697    2.1988454e-18  0              1.0617437e-10  0              0              2.9897668    
   2700000   120            100            100            0.026571316    0.0074612501   0              0.072252697    6.5243043e-19  0              3.1503531e-11  0              0              2.9897668    
   2800000   120            100            100            0.026571316    0.0074612501   0              0.072252697    3.1065685e-19  0              1.5000507e-11  0              0              2.9897668    
   2900000   120            100            100            0.026571316    0.0074612501   0              0.072252697    7.8348502e-20  0              3.7831688e-12  0              0              2.9897668    
   3000000   120            100            100            0.026571316    0.0074612501   0              0.072252697    1.6057923e-19  0              7.7537966e-12  0              0              2.9897668    
Loop time of 57.6342 on 4 procs for 3000000 steps with 58 atoms

Performance: 44973299.346 ns/day, 0.000 hours/ns, 52052.430 timesteps/s
99.9% CPU use with 4 MPI tasks x 1 OpenMP threads

MPI task timing breakdown:
Section |  min time  |  avg time  |  max time  |%varavg| %total
---------------------------------------------------------------
Pair    | 0.22092    | 1.4884     | 2.9127     | 100.1 |  2.58
Neigh   | 0.021058   | 0.021748   | 0.02242    |   0.4 |  0.04
Comm    | 25.085     | 29.631     | 34.219     |  82.5 | 51.41
Output  | 0.086807   | 0.086976   | 0.08717    |   0.1 |  0.15
Modify  | 13.456     | 19.15      | 24.826     | 129.2 | 33.23
Other   |            | 7.256      |            |       | 12.59

Nlocal:           14.5 ave          30 max           0 min
Histogram: 2 0 0 0 0 0 0 0 0 2
Nghost:           17.5 ave          32 max           2 min
Histogram: 2 0 0 0 0 0 0 0 0 2
Neighs:             10 ave          21 max           0 min
Histogram: 2 0 0 0 0 0 0 0 0 2

Total # of neighbors = 40
Ave neighs/atom = 0.68965517
Neighbor list builds = 164
Dangerous builds = 0
  using 1 OpenMP thread(s) per MPI task
Lattice spacing in x,y,z = 4.2426407 4.2426407 4.2426407
Created orthogonal box = (-60 -50 -50) to (60 50 50)
  2 by 1 by 2 MPI processor grid
Created 29 atoms
  using lattice units in orthogonal box = (-60 -50 -50) to (60 50 50)
  create_atoms CPU = 0.000 seconds
Lattice spacing in x,y,z = 3 3 3
Created 29 atoms
  using lattice units in orthogonal box = (-60 -50 -50) to (60 50 50)
  create_atoms CPU = 0.003 seconds
Setting atom values ...
  29 settings made for diameter
Setting atom values ...
  29 settings made for mass
Setting atom values ...
  29 settings made for diameter
Setting atom values ...
  29 settings made for mass
29 atoms in group substrate
29 atoms in group slider1
  1 rigid bodies with 29 atoms
Generated 0 of 1 mixed pair_coeff terms from geometric mixing rule
Neighbor list info ...
  update every 1 steps, delay 0 steps, check yes
  max neighbors/atom: 2000, page size: 100000
  master list distance cutoff = 3.1
  ghost atom cutoff = 3.1
  binsize = 1.55, bins = 78 65 65
  1 neighbor lists, perpetual/occasional/extra = 1 0 0
  (1) pair granular, perpetual
      attributes: half, newton on, size, history
      pair build: half/size/bin/newton
      stencil: half/bin/3d
      bin: standard
Setting up Verlet run ...
  Unit style    : micro
  Current step  : 0
  Time step     : 1e-05
Per MPI rank memory allocation (min/avg/max) = 13.11 | 15.42 | 17.73 Mbytes
   Step           Lx             Ly             Lz           Press           Pxx            Pyy            Pzz           KinEng         PotEng          Temp          c_1[1]         c_1[2]         c_1[3]    
         0   120            100            100            5.1071223e-15  1.5321367e-14  0              0              0              0              0              0              0              6            
    100000   120            100            100            0.019302329    1.5321367e-14  0              0.057906987    16527.621      0              7.9805968e+11  0              0              3.3363021    
    200000   120            100            100            0.0061794851   1.5321367e-14  0              0.018538455    3432.3479      0              1.657358e+11   0              0              3.0910435    
    300000   120            100            100           -0.00067056603  1.5321367e-14  0             -0.0020116981   103.19381      0              4.9828598e+09  0              0              3.0346477    
    400000   120            100            100            0.085262814    0.038499979    0              0.21728846     80.072486      0              3.8664138e+09  0              0              2.9843633    
    500000   120            100            100            0.013810385    1.5321367e-14  0              0.041431155    19.436922      0              9.3853938e+08  0              0              2.9925782    
    600000   120            100            100            0.018795577    0.0020258986   0              0.054360832    0.64848407     0              31312975       0              0              2.9914222    
    700000   120            100            100            0.026029216    0.005306896    0              0.072780753    0.61035515     0              29471866       0              0              2.9903017    
    800000   120            100            100            0.02702543     0.0060971411   0              0.074979148    2.9517794e-05  0              1425.3086      0              0              2.9901713    
    900000   120            100            100            0.026110433    0.0059963859   0              0.072334913    0.010911078    0              526856.89      0              0              2.9903156    
   1000000   120            100            100            0.02596084     0.0059774467   0              0.071905074    3.0894578e-05  0              1491.7886      0              0              2.9903407    
   1100000   120            100            100            0.026077151    0.0059913813   0              0.072240073    0.00019263662  0              9301.7327      0              0              2.9903222    
   1200000   120            100            100            0.026102792    0.0059945636   0              0.072313813    1.897043e-06   0              91.601417      0              0              2.990318     
   1300000   120            100            100            0.026088194    0.0059928424   0              0.07227174     3.2988937e-06  0              159.29177      0              0              2.9903203    
   1400000   120            100            100            0.026084071    0.0059923344   0              0.072259878    7.1805073e-08  0              3.46721        0              0              2.990321     
   1500000   120            100            100            0.026085861    0.0059925448   0              0.072265037    5.4622586e-08  0              2.6375292      0              0              2.9903207    
   1600000   120            100            100            0.026086499    0.005992623    0              0.072266874    2.1867691e-09  0              0.10559125     0              0              2.9903206    
   1700000   120            100            100            0.026086286    0.0059925981   0              0.072266259    8.7157878e-10  0              0.04208542     0              0              2.9903206    
   1800000   120            100            100            0.02608619     0.0059925864   0              0.072265982    5.8588733e-11  0              0.0028290403   0              0              2.9903206    
   1900000   120            100            100            0.026086214    0.0059925892   0              0.072266053    1.3327759e-11  0              0.00064354981  0              0              2.9903206    
   2000000   120            100            100            0.026086228    0.0059925909   0              0.072266094    1.4393477e-12  0              6.9500947e-05  0              0              2.9903206    
   2100000   120            100            100            0.026086226    0.0059925906   0              0.072266086    1.9368937e-13  0              9.3525663e-06  0              0              2.9903206    
   2200000   120            100            100            0.026086224    0.0059925904   0              0.07226608     3.3185989e-14  0              1.6024327e-06  0              0              2.9903206    
   2300000   120            100            100            0.026086224    0.0059925904   0              0.072266081    2.643014e-15   0              1.2762169e-07  0              0              2.9903206    
   2400000   120            100            100            0.026086224    0.0059925904   0              0.072266082    7.250925e-16   0              3.5012122e-08  0              0              2.9903206    
   2500000   120            100            100            0.026086224    0.0059925904   0              0.072266082    3.5523142e-17  0              1.7152854e-09  0              0              2.9903206    
   2600000   120            100            100            0.026086224    0.0059925904   0              0.072266082    1.4076115e-17  0              6.7968522e-10  0              0              2.9903206    
   2700000   120            100            100            0.026086224    0.0059925904   0              0.072266082    1.0279348e-18  0              4.9635292e-11  0              0              2.9903206    
   2800000   120            100            100            0.026086224    0.0059925904   0              0.072266082    1.8173548e-19  0              8.7753561e-12  0              0              2.9903206    
   2900000   120            100            100            0.026086224    0.0059925904   0              0.072266082    1.8950023e-20  0              9.1502877e-13  0              0              2.9903206    
   3000000   120            100            100            0.026086224    0.0059925904   0              0.072266082    5.7053912e-22  0              2.7549292e-14  0              0              2.9903206    
Loop time of 58.1928 on 4 procs for 3000000 steps with 58 atoms

Performance: 44541593.383 ns/day, 0.000 hours/ns, 51552.770 timesteps/s
99.9% CPU use with 4 MPI tasks x 1 OpenMP threads

MPI task timing breakdown:
Section |  min time  |  avg time  |  max time  |%varavg| %total
---------------------------------------------------------------
Pair    | 0.2222     | 1.5442     | 3.0843     | 103.0 |  2.65
Neigh   | 0.021392   | 0.021925   | 0.022496   |   0.4 |  0.04
Comm    | 25.155     | 29.672     | 34.238     |  81.7 | 50.99
Output  | 0.10795    | 0.10808    | 0.10823    |   0.0 |  0.19
Modify  | 13.835     | 19.513     | 25.2       | 127.6 | 33.53
Other   |            | 7.333      |            |       | 12.60

Nlocal:           14.5 ave          30 max           0 min
Histogram: 2 0 0 0 0 0 0 0 0 2
Nghost:           17.5 ave          32 max           2 min
Histogram: 2 0 0 0 0 0 0 0 0 2
Neighs:             10 ave          21 max           0 min
Histogram: 2 0 0 0 0 0 0 0 0 2

Total # of neighbors = 40
Ave neighs/atom = 0.68965517
Neighbor list builds = 166
Dangerous builds = 0
  using 1 OpenMP thread(s) per MPI task
Lattice spacing in x,y,z = 4.2426407 4.2426407 4.2426407
Created orthogonal box = (-60 -50 -50) to (60 50 50)
  2 by 1 by 2 MPI processor grid
Created 29 atoms
  using lattice units in orthogonal box = (-60 -50 -50) to (60 50 50)
  create_atoms CPU = 0.001 seconds
Lattice spacing in x,y,z = 3 3 3
Created 29 atoms
  using lattice units in orthogonal box = (-60 -50 -50) to (60 50 50)
  create_atoms CPU = 0.003 seconds
Setting atom values ...
  29 settings made for diameter
Setting atom values ...
  29 settings made for mass
Setting atom values ...
  29 settings made for diameter
Setting atom values ...
  29 settings made for mass
29 atoms in group substrate
29 atoms in group slider1
  1 rigid bodies with 29 atoms
Generated 0 of 1 mixed pair_coeff terms from geometric mixing rule
Neighbor list info ...
  update every 1 steps, delay 0 steps, check yes
  max neighbors/atom: 2000, page size: 100000
  master list distance cutoff = 3.1
  ghost atom cutoff = 3.1
  binsize = 1.55, bins = 78 65 65
  1 neighbor lists, perpetual/occasional/extra = 1 0 0
  (1) pair granular, perpetual
      attributes: half, newton on, size, history
      pair build: half/size/bin/newton
      stencil: half/bin/3d
      bin: standard
Setting up Verlet run ...
  Unit style    : micro
  Current step  : 0
  Time step     : 1e-05
Per MPI rank memory allocation (min/avg/max) = 13.11 | 15.42 | 17.73 Mbytes
   Step           Lx             Ly             Lz           Press           Pxx            Pyy            Pzz           KinEng         PotEng          Temp          c_1[1]         c_1[2]         c_1[3]    
         0   120            100            100            5.1071223e-15  1.5321367e-14  0              0              0              0              0              0              0              6            
    100000   120            100            100            0.019346006    1.5321367e-14  0              0.058038017    16583.441      0              8.0075499e+11  0              0              3.3348505    
    200000   120            100            100            0.0062794972   1.5321367e-14  0              0.018838492    3520.2427      0              1.6997992e+11  0              0              3.088768     
    300000   120            100            100           -0.00053624205  1.5321367e-14  0             -0.0016087261   63.500287      0              3.0662016e+09  0              0              3.0368907    
    400000   120            100            100            0.10124688     0.045287739    0              0.25845289     12.04784       0              5.8174707e+08  0              0              2.9839158    
    500000   120            100            100            0.049720494    0.017219555    0              0.13194193     5.2660669      0              2.5427952e+08  0              0              2.9881357    
    600000   120            100            100            0.034393865    0.008794056    0              0.094387539    0.15900355     0              7677712.2      0              0              2.989695     
    700000   120            100            100            0.022826799    0.003463599    0              0.065016798    0.040060122    0              1934359.9      0              0              2.991186     
    800000   120            100            100            0.026390596    0.0047075035   0              0.074464284    0.031829059    0              1536911.3      0              0              2.9906664    
    900000   120            100            100            0.025481388    0.0046080523   0              0.071836111    0.0090641234   0              437674.08      0              0              2.9908079    
   1000000   120            100            100            0.025632278    0.0046265623   0              0.072270271    0.0015212282   0              73454.663      0              0              2.9907833    
   1100000   120            100            100            0.025656657    0.0046289012   0              0.07234107     0.00016425671  0              7931.3689      0              0              2.9907801    
   1200000   120            100            100            0.025620328    0.0046249108   0              0.072236072    1.0036605e-05  0              484.63175      0              0              2.9907855    
   1300000   120            100            100            0.025641004    0.0046272307   0              0.072295781    1.257444e-07   0              6.0717471      0              0              2.9907824    
   1400000   120            100            100            0.025632293    0.0046262436   0              0.072270635    3.8029244e-08  0              1.8362961      0              0              2.9907837    
   1500000   120            100            100            0.025635237    0.0046265809   0              0.07227913     3.115972e-08   0              1.5045914      0              0              2.9907833    
   1600000   120            100            100            0.025634475    0.0046264922   0              0.072276933    8.0933388e-09  0              0.39079837     0              0              2.9907834    
   1700000   120            100            100            0.025634579    0.004626505    0              0.072277232    1.2540545e-09  0              0.060553802    0              0              2.9907834    
   1800000   120            100            100            0.025634614    0.0046265086   0              0.072277332    1.2474041e-10  0              0.0060232677   0              0              2.9907834    
   1900000   120            100            100            0.025634577    0.0046265045   0              0.072277225    6.6049878e-12  0              0.00031893122  0              0              2.9907834    
   2000000   120            100            100            0.025634596    0.0046265067   0              0.072277282    3.3392239e-14  0              1.6123917e-06  0              0              2.9907834    
   2100000   120            100            100            0.025634588    0.0046265058   0              0.072277259    5.1673378e-14  0              2.4951225e-06  0              0              2.9907834    
   2200000   120            100            100            0.025634591    0.0046265061   0              0.072277267    3.0493618e-14  0              1.4724277e-06  0              0              2.9907834    
   2300000   120            100            100            0.02563459     0.004626506    0              0.072277265    7.1039129e-15  0              3.4302253e-07  0              0              2.9907834    
   2400000   120            100            100            0.02563459     0.0046265061   0              0.072277265    1.0210921e-15  0              4.9304884e-08  0              0              2.9907834    
   2500000   120            100            100            0.02563459     0.0046265061   0              0.072277265    9.0445577e-17  0              4.3672932e-09  0              0              2.9907834    
   2600000   120            100            100            0.02563459     0.0046265061   0              0.072277265    3.394801e-18   0              1.6392279e-10  0              0              2.9907834    
   2700000   120            100            100            0.02563459     0.0046265061   0              0.072277265    1.6200862e-19  0              7.8228163e-12  0              0              2.9907834    
   2800000   120            100            100            0.02563459     0.0046265061   0              0.072277265    1.3637131e-19  0              6.5848826e-12  0              0              2.9907834    
   2900000   120            100            100            0.02563459     0.0046265061   0              0.072277265    2.027481e-20   0              9.7899802e-13  0              0              2.9907834    
   3000000   120            100            100            0.02563459     0.0046265061   0              0.072277265    1.375004e-19   0              6.639402e-12   0              0              2.9907834    
Loop time of 58.1321 on 4 procs for 3000000 steps with 58 atoms

Performance: 44588073.810 ns/day, 0.000 hours/ns, 51606.567 timesteps/s
99.9% CPU use with 4 MPI tasks x 1 OpenMP threads

MPI task timing breakdown:
Section |  min time  |  avg time  |  max time  |%varavg| %total
---------------------------------------------------------------
Pair    | 0.21618    | 1.5333     | 2.9679     | 102.0 |  2.64
Neigh   | 0.021566   | 0.022315   | 0.023089   |   0.5 |  0.04
Comm    | 25.186     | 29.725     | 34.26      |  81.5 | 51.13
Output  | 0.088797   | 0.088971   | 0.089178   |   0.1 |  0.15
Modify  | 13.737     | 19.437     | 25.05      | 127.3 | 33.44
Other   |            | 7.325      |            |       | 12.60

Nlocal:           14.5 ave          29 max           0 min
Histogram: 2 0 0 0 0 0 0 0 0 2
Nghost:           17.5 ave          32 max           3 min
Histogram: 2 0 0 0 0 0 0 0 0 2
Neighs:             10 ave          20 max           0 min
Histogram: 2 0 0 0 0 0 0 0 0 2

Total # of neighbors = 40
Ave neighs/atom = 0.68965517
Neighbor list builds = 164
Dangerous builds = 0
  using 1 OpenMP thread(s) per MPI task
Lattice spacing in x,y,z = 4.2426407 4.2426407 4.2426407
Created orthogonal box = (-60 -50 -50) to (60 50 50)
  2 by 1 by 2 MPI processor grid
Created 29 atoms
  using lattice units in orthogonal box = (-60 -50 -50) to (60 50 50)
  create_atoms CPU = 0.000 seconds
Lattice spacing in x,y,z = 3 3 3
Created 29 atoms
  using lattice units in orthogonal box = (-60 -50 -50) to (60 50 50)
  create_atoms CPU = 0.003 seconds
Setting atom values ...
  29 settings made for diameter
Setting atom values ...
  29 settings made for mass
Setting atom values ...
  29 settings made for diameter
Setting atom values ...
  29 settings made for mass
29 atoms in group substrate
29 atoms in group slider1
  1 rigid bodies with 29 atoms
Generated 0 of 1 mixed pair_coeff terms from geometric mixing rule
Neighbor list info ...
  update every 1 steps, delay 0 steps, check yes
  max neighbors/atom: 2000, page size: 100000
  master list distance cutoff = 3.1
  ghost atom cutoff = 3.1
  binsize = 1.55, bins = 78 65 65
  1 neighbor lists, perpetual/occasional/extra = 1 0 0
  (1) pair granular, perpetual
      attributes: half, newton on, size, history
      pair build: half/size/bin/newton
      stencil: half/bin/3d
      bin: standard
Setting up Verlet run ...
  Unit style    : micro
  Current step  : 0
  Time step     : 1e-05
Per MPI rank memory allocation (min/avg/max) = 13.11 | 15.42 | 17.73 Mbytes
   Step           Lx             Ly             Lz           Press           Pxx            Pyy            Pzz           KinEng         PotEng          Temp          c_1[1]         c_1[2]         c_1[3]    
         0   120            100            100            5.1071223e-15  1.5321367e-14  0              0              0              0              0              0              0              6            
    100000   120            100            100            0.019383429    1.5321367e-14  0              0.058150288    16631.288      0              8.0306538e+11  0              0              3.3336126    
    200000   120            100            100            0.0063654056   1.5321367e-14  0              0.019096217    3596.2902      0              1.7365198e+11  0              0              3.0867893    
    300000   120            100            100           -0.00041819716  1.5321367e-14  0             -0.0012545915   37.401741      0              1.8059962e+09  0              0              3.0385589    
    400000   120            100            100            0.070966657    0.036077536    0              0.17682244     164.18153      0              7.9277385e+09  0              0              2.9870085    
    500000   120            100            100            0.027285106    0.0053091549   0              0.076546162    35.363027      0              1.707554e+09   0              0              2.990907     
    600000   120            100            100            0.020513707    0.0012838913   0              0.060257229    3.3482385      0              1.6167445e+08  0              0              2.9918291    
    700000   120            100            100            0.028191941    0.0045184528   0              0.080057371    0.054910039    0              2651409.3      0              0              2.9907933    
    800000   120            100            100            0.025707134    0.003387842    0              0.07373356     0.063977065    0              3089223.5      0              0              2.9911103    
    900000   120            100            100            0.024983844    0.0033523615   0              0.07159917     0.0064074568   0              309393.16      0              0              2.9912179    
   1000000   120            100            100            0.025098006    0.0033658483   0              0.07192817     0.00022660694  0              10942.038      0              0              2.9911998    
   1100000   120            100            100            0.025224573    0.0033795254   0              0.072294193    0.00020873549  0              10079.09       0              0              2.9911809    
   1200000   120            100            100            0.025239415    0.0033810023   0              0.072337242    1.9882694e-06  0              96.006413      0              0              2.9911788    
   1300000   120            100            100            0.025225815    0.0033795343   0              0.07229791     2.6187963e-06  0              126.4523       0              0              2.9911809    
   1400000   120            100            100            0.025220563    0.0033789831   0              0.072282705    3.3318855e-07  0              16.088483      0              0              2.9911817    
   1500000   120            100            100            0.025221149    0.0033790505   0              0.072284395    6.5783936e-09  0              0.31764708     0              0              2.9911816    
   1600000   120            100            100            0.025221999    0.0033791413   0              0.072286856    9.5019532e-09  0              0.45881531     0              0              2.9911815    
   1700000   120            100            100            0.025222123    0.0033791538   0              0.072287215    1.5141289e-10  0              0.0073111867   0              0              2.9911814    
   1800000   120            100            100            0.025222037    0.0033791445   0              0.072286968    1.0509052e-10  0              0.005074445    0              0              2.9911815    
   1900000   120            100            100            0.025222       0.0033791406   0              0.07228686     1.6919e-11     0              0.00081695795  0              0              2.9911815    
   2000000   120            100            100            0.025222003    0.0033791409   0              0.072286868    1.6384327e-13  0              7.9114053e-06  0              0              2.9911815    
   2100000   120            100            100            0.025222009    0.0033791415   0              0.072286884    4.2677053e-13  0              2.0607222e-05  0              0              2.9911815    
   2200000   120            100            100            0.02522201     0.0033791416   0              0.072286887    1.0264226e-14  0              4.9562275e-07  0              0              2.9911815    
   2300000   120            100            100            0.025222009    0.0033791416   0              0.072286886    4.1309731e-15  0              1.9946991e-07  0              0              2.9911815    
   2400000   120            100            100            0.025222009    0.0033791416   0              0.072286885    8.4229155e-16  0              4.0671245e-08  0              0              2.9911815    
   2500000   120            100            100            0.025222009    0.0033791416   0              0.072286885    3.780738e-18   0              1.825583e-10   0              0              2.9911815    
   2600000   120            100            100            0.025222009    0.0033791416   0              0.072286885    1.8545314e-17  0              8.9548683e-10  0              0              2.9911815    
   2700000   120            100            100            0.025222009    0.0033791416   0              0.072286885    1.2856261e-18  0              6.2078285e-11  0              0              2.9911815    
   2800000   120            100            100            0.025222009    0.0033791416   0              0.072286885    5.2001269e-20  0              2.5109552e-12  0              0              2.9911815    
   2900000   120            100            100            0.025222009    0.0033791416   0              0.072286885    7.7750748e-20  0              3.7543054e-12  0              0              2.9911815    
   3000000   120            100            100            0.025222009    0.0033791415   0              0.072286885    1.742478e-19   0              8.4138027e-12  0              0              2.9911815    
Loop time of 57.9928 on 4 procs for 3000000 steps with 58 atoms

Performance: 44695196.804 ns/day, 0.000 hours/ns, 51730.552 timesteps/s
99.9% CPU use with 4 MPI tasks x 1 OpenMP threads

MPI task timing breakdown:
Section |  min time  |  avg time  |  max time  |%varavg| %total
---------------------------------------------------------------
Pair    | 0.22132    | 1.5121     | 2.9108     | 100.4 |  2.61
Neigh   | 0.02181    | 0.022392   | 0.022974   |   0.4 |  0.04
Comm    | 25.201     | 29.791     | 34.38      |  82.4 | 51.37
Output  | 0.088699   | 0.088866   | 0.089054   |   0.1 |  0.15
Modify  | 13.542     | 19.272     | 25.011     | 129.4 | 33.23
Other   |            | 7.306      |            |       | 12.60

Nlocal:           14.5 ave          29 max           0 min
Histogram: 2 0 0 0 0 0 0 0 0 2
Nghost:           17.5 ave          32 max           3 min
Histogram: 2 0 0 0 0 0 0 0 0 2
Neighs:             10 ave          20 max           0 min
Histogram: 2 0 0 0 0 0 0 0 0 2

Total # of neighbors = 40
Ave neighs/atom = 0.68965517
Neighbor list builds = 164
Dangerous builds = 0
  using 1 OpenMP thread(s) per MPI task
Lattice spacing in x,y,z = 4.2426407 4.2426407 4.2426407
Created orthogonal box = (-60 -50 -50) to (60 50 50)
  2 by 1 by 2 MPI processor grid
Created 29 atoms
  using lattice units in orthogonal box = (-60 -50 -50) to (60 50 50)
  create_atoms CPU = 0.000 seconds
Lattice spacing in x,y,z = 3 3 3
Created 29 atoms
  using lattice units in orthogonal box = (-60 -50 -50) to (60 50 50)
  create_atoms CPU = 0.003 seconds
Setting atom values ...
  29 settings made for diameter
Setting atom values ...
  29 settings made for mass
Setting atom values ...
  29 settings made for diameter
Setting atom values ...
  29 settings made for mass
29 atoms in group substrate
29 atoms in group slider1
  1 rigid bodies with 29 atoms
Generated 0 of 1 mixed pair_coeff terms from geometric mixing rule
Neighbor list info ...
  update every 1 steps, delay 0 steps, check yes
  max neighbors/atom: 2000, page size: 100000
  master list distance cutoff = 3.1
  ghost atom cutoff = 3.1
  binsize = 1.55, bins = 78 65 65
  1 neighbor lists, perpetual/occasional/extra = 1 0 0
  (1) pair granular, perpetual
      attributes: half, newton on, size, history
      pair build: half/size/bin/newton
      stencil: half/bin/3d
      bin: standard
Setting up Verlet run ...
  Unit style    : micro
  Current step  : 0
  Time step     : 1e-05
Per MPI rank memory allocation (min/avg/max) = 13.11 | 15.42 | 17.73 Mbytes
   Step           Lx             Ly             Lz           Press           Pxx            Pyy            Pzz           KinEng         PotEng          Temp          c_1[1]         c_1[2]         c_1[3]    
         0   120            100            100            5.1071223e-15  1.5321367e-14  0              0              0              0              0              0              0              6            
    100000   120            100            100            0.019416016    1.5321367e-14  0              0.058248048    16672.965      0              8.0507782e+11  0              0              3.3325392    
    200000   120            100            100            0.0064403936   1.5321367e-14  0              0.019321181    3663.0811      0              1.7687708e+11  0              0              3.0850434    
    300000   120            100            100           -0.0003135077   1.5321367e-14  0             -0.00094052309  20.451526      0              9.87531e+08    0              0              3.0398245    
    400000   120            100            100            0.025061387    0.00321951     0              0.07196465     247.40401      0              1.1946254e+10  0              0              2.9914036    
    500000   120            100            100            0.010482616    1.5321367e-14  0              0.031447849    4.8338627      0              2.3340993e+08  0              0              2.9948799    
    600000   120            100            100            0.018007755    1.5321367e-14  0              0.054023265    0.11004188     0              5313528.5      0              0              2.9927292    
    700000   120            100            100            0.024413873    0.0023356327   0              0.070905985    0.64900479     0              31338119       0              0              2.9915955    
    800000   120            100            100            0.025433754    0.0024425188   0              0.073858742    0.061063652    0              2948545.2      0              0              2.991452     
    900000   120            100            100            0.025183241    0.0022772381   0              0.073272485    0.0018438692   0              89033.844      0              0              2.9914835    
   1000000   120            100            100            0.024980934    0.0022586612   0              0.072684141    3.7373205e-05  0              1804.6183      0              0              2.9915136    
   1100000   120            100            100            0.024884894    0.002249508    0              0.072405174    9.1582001e-05  0              4422.1671      0              0              2.9915277    
   1200000   120            100            100            0.024852535    0.002246395    0              0.072311209    2.6309106e-05  0              1270.3726      0              0              2.9915325    
   1300000   120            100            100            0.024845369    0.0022457169   0              0.072290389    3.6065248e-06  0              174.14618      0              0              2.9915335    
   1400000   120            100            100            0.024845284    0.0022457186   0              0.072290133    2.3859036e-07  0              11.520674      0              0              2.9915335    
   1500000   120            100            100            0.024846201    0.0022458115   0              0.072292791    2.2242647e-09  0              0.10740178     0              0              2.9915333    
   1600000   120            100            100            0.024846783    0.0022458691   0              0.072294481    1.3491922e-09  0              0.065147664    0              0              2.9915333    
   1700000   120            100            100            0.024847022    0.0022458924   0              0.072295174    8.557065e-10   0              0.041319004    0              0              2.9915332    
   1800000   120            100            100            0.024847092    0.0022458991   0              0.072295376    1.7539492e-10  0              0.0084691929   0              0              2.9915332    
   1900000   120            100            100            0.024847103    0.0022459001   0              0.072295408    1.8385129e-11  0              0.00088775207  0              0              2.9915332    
   2000000   120            100            100            0.0248471      0.0022458999   0              0.072295401    7.7034856e-13  0              3.7197375e-05  0              0              2.9915332    
   2100000   120            100            100            0.024847097    0.0022458995   0              0.072295392    1.1386115e-15  0              5.4979476e-08  0              0              2.9915332    
   2200000   120            100            100            0.024847096    0.0022458994   0              0.072295388    1.9534489e-14  0              9.4325054e-07  0              0              2.9915332    
   2300000   120            100            100            0.024847095    0.0022458993   0              0.072295386    6.7960568e-15  0              3.2815726e-07  0              0              2.9915332    
[...]
   2900000   120            100            100            0.024136554    1.5321367e-14  0              0.072409663    1.2433427e-21  0              6.0036569e-14  0              0              2.9962619    
   3000000   120            100            100            0.024136554    1.5321367e-14  0              0.072409663    1.6210704e-19  0              7.8275686e-12  0              0              2.9962619    
Loop time of 58.1984 on 4 procs for 3000000 steps with 58 atoms

Performance: 44537315.568 ns/day, 0.000 hours/ns, 51547.819 timesteps/s
99.9% CPU use with 4 MPI tasks x 1 OpenMP threads

MPI task timing breakdown:
Section |  min time  |  avg time  |  max time  |%varavg| %total
---------------------------------------------------------------
Pair    | 0.2269     | 1.3888     | 2.7273     |  93.4 |  2.39
Neigh   | 0.021909   | 0.022436   | 0.022953   |   0.3 |  0.04
Comm    | 25.219     | 29.937     | 34.689     |  84.5 | 51.44
Output  | 0.087898   | 0.088054   | 0.088247   |   0.1 |  0.15
Modify  | 13.585     | 19.368     | 25.017     | 128.2 | 33.28
Other   |            | 7.393      |            |       | 12.70

Nlocal:           14.5 ave          30 max           0 min
Histogram: 2 0 0 0 0 0 0 0 0 2
Nghost:           17.5 ave          32 max           2 min
Histogram: 2 0 0 0 0 0 0 0 0 2
Neighs:             10 ave          21 max           0 min
Histogram: 2 0 0 0 0 0 0 0 0 2

Total # of neighbors = 40
Ave neighs/atom = 0.68965517
Neighbor list builds = 166
Dangerous builds = 0
  using 1 OpenMP thread(s) per MPI task
Lattice spacing in x,y,z = 4.2426407 4.2426407 4.2426407
Created orthogonal box = (-60 -50 -50) to (60 50 50)
  2 by 1 by 2 MPI processor grid
Created 29 atoms
  using lattice units in orthogonal box = (-60 -50 -50) to (60 50 50)
  create_atoms CPU = 0.000 seconds
Lattice spacing in x,y,z = 3 3 3
Created 29 atoms
  using lattice units in orthogonal box = (-60 -50 -50) to (60 50 50)
  create_atoms CPU = 0.002 seconds
Setting atom values ...
  29 settings made for diameter
Setting atom values ...
  29 settings made for mass
Setting atom values ...
  29 settings made for diameter
Setting atom values ...
  29 settings made for mass
29 atoms in group substrate
29 atoms in group slider1
  1 rigid bodies with 29 atoms
Generated 0 of 1 mixed pair_coeff terms from geometric mixing rule
Neighbor list info ...
  update every 1 steps, delay 0 steps, check yes
  max neighbors/atom: 2000, page size: 100000
  master list distance cutoff = 3.1
  ghost atom cutoff = 3.1
  binsize = 1.55, bins = 78 65 65
  1 neighbor lists, perpetual/occasional/extra = 1 0 0
  (1) pair granular, perpetual
      attributes: half, newton on, size, history
      pair build: half/size/bin/newton
      stencil: half/bin/3d
      bin: standard
Setting up Verlet run ...
  Unit style    : micro
  Current step  : 0
  Time step     : 1e-05
Per MPI rank memory allocation (min/avg/max) = 13.11 | 15.42 | 17.73 Mbytes
   Step           Lx             Ly             Lz           Press           Pxx            Pyy            Pzz           KinEng         PotEng          Temp          c_1[1]         c_1[2]         c_1[3]    
         0   120            100            100            5.1071223e-15  1.5321367e-14  0              0              0              0              0              0              0              6            
    100000   120            100            100            0.019774046    1.5321367e-14  0              0.059322137    17132.897      0              8.2728629e+11  0              0              3.3206932    
    200000   120            100            100            0.0072791794   1.5321367e-14  0              0.021837538    4435.8997      0              2.1419372e+11  0              0              3.0639815    
    300000   120            100            100            0.00089106547  1.5321367e-14  0              0.0026731964   130.11963      0              6.2830111e+09  0              0              3.0437646    
    400000   120            100            100            0.064908204    1.5321367e-14  0              0.19472461     213.76017      0              1.0321714e+10  0              0              2.9929685    
    500000   120            100            100            0.011336174    1.5321367e-14  0              0.034008522    33.720134      0              1.6282246e+09  0              0              2.9978355    
    600000   120            100            100            0.020791173    1.5321367e-14  0              0.062373518    5.5369454      0              2.6735928e+08  0              0              2.9966895    
    700000   120            100            100            0.027219586    1.5321367e-14  0              0.081658759    0.29273973     0              14135354       0              0              2.9960197    
    800000   120            100            100            0.02509832     1.5321367e-14  0              0.075294959    0.058228865    0              2811663.5      0              0              2.9962242    
    900000   120            100            100            0.023832459    1.5321367e-14  0              0.071497376    0.010036013    0              484603.14      0              0              2.9963533    
   1000000   120            100            100            0.023974091    1.5321367e-14  0              0.071922273    0.00046912842  0              22652.532      0              0              2.9963397    
   1100000   120            100            100            0.024160742    1.5321367e-14  0              0.072482227    0.00025280296  0              12206.95       0              0              2.9963207    
   1200000   120            100            100            0.024161649    1.5321367e-14  0              0.072484947    1.5205484e-06  0              73.421842      0              0              2.9963205    
   1300000   120            100            100            0.024136467    1.5321367e-14  0              0.072409402    5.2132095e-06  0              251.72723      0              0              2.996323     
   1400000   120            100            100            0.024133655    1.5321367e-14  0              0.072400966    5.9715689e-09  0              0.28834569     0              0              2.9963233    
   1500000   120            100            100            0.024136762    1.5321367e-14  0              0.072410286    9.0431909e-08  0              4.3666332      0              0              2.996323     
   1600000   120            100            100            0.024137475    1.5321367e-14  0              0.072412424    1.8157245e-09  0              0.087674838    0              0              2.9963229    
   1700000   120            100            100            0.02413713     1.5321367e-14  0              0.072411391    1.3060187e-09  0              0.063062969    0              0              2.996323     
   1800000   120            100            100            0.024136997    1.5321367e-14  0              0.072410991    9.2744667e-11  0              0.0044783081   0              0              2.996323     
   1900000   120            100            100            0.024137029    1.5321367e-14  0              0.072411088    1.4905844e-11  0              0.00071974986  0              0              2.996323     
   2000000   120            100            100            0.024137051    1.5321367e-14  0              0.072411153    2.9448339e-12  0              0.00014219549  0              0              2.996323     
   2100000   120            100            100            0.024137049    1.5321367e-14  0              0.072411147    1.1496372e-13  0              5.5511868e-06  0              0              2.996323     
   2200000   120            100            100            0.024137046    1.5321367e-14  0              0.072411137    7.2067883e-14  0              3.4799001e-06  0              0              2.996323     
   2300000   120            100            100            0.024137046    1.5321367e-14  0              0.072411137    2.9869521e-16  0              1.4422922e-08  0              0              2.996323     
   2400000   120            100            100            0.024137046    1.5321367e-14  0              0.072411138    1.4572182e-15  0              7.036385e-08   0              0              2.996323     
   2500000   120            100            100            0.024137046    1.5321367e-14  0              0.072411139    3.5998915e-18  0              1.7382588e-10  0              0              2.996323     
   2600000   120            100            100            0.024137046    1.5321367e-14  0              0.072411138    2.4767967e-17  0              1.1959565e-09  0              0              2.996323     
   2700000   120            100            100            0.024137046    1.5321367e-14  0              0.072411138    1.2107388e-18  0              5.8462245e-11  0              0              2.996323     
   2800000   120            100            100            0.024137046    1.5321367e-14  0              0.072411138    8.492075e-20   0              4.1005191e-12  0              0              2.996323     
   2900000   120            100            100            0.024137046    1.5321367e-14  0              0.072411138    1.169636e-19   0              5.6477535e-12  0              0              2.996323     
   3000000   120            100            100            0.024137046    1.5321367e-14  0              0.072411138    1.1622701e-20  0              5.6121865e-13  0              0              2.996323     
Loop time of 58.335 on 4 procs for 3000000 steps with 58 atoms

Performance: 44433022.878 ns/day, 0.000 hours/ns, 51427.110 timesteps/s
99.9% CPU use with 4 MPI tasks x 1 OpenMP threads

MPI task timing breakdown:
Section |  min time  |  avg time  |  max time  |%varavg| %total
---------------------------------------------------------------
Pair    | 0.22377    | 1.4131     | 2.7889     |  96.1 |  2.42
Neigh   | 0.02187    | 0.022351   | 0.022808   |   0.3 |  0.04
Comm    | 25.326     | 30.01      | 34.776     |  84.7 | 51.44
Output  | 0.11362    | 0.11379    | 0.11398    |   0.0 |  0.20
Modify  | 13.675     | 19.407     | 25.228     | 130.0 | 33.27
Other   |            | 7.369      |            |       | 12.63

Nlocal:           14.5 ave          30 max           0 min
Histogram: 2 0 0 0 0 0 0 0 0 2
Nghost:           17.5 ave          32 max           2 min
Histogram: 2 0 0 0 0 0 0 0 0 2
Neighs:             10 ave          21 max           0 min
Histogram: 2 0 0 0 0 0 0 0 0 2

Total # of neighbors = 40
Ave neighs/atom = 0.68965517
Neighbor list builds = 166
Dangerous builds = 0
  using 1 OpenMP thread(s) per MPI task
Lattice spacing in x,y,z = 4.2426407 4.2426407 4.2426407
Created orthogonal box = (-60 -50 -50) to (60 50 50)
  2 by 1 by 2 MPI processor grid
Created 29 atoms
  using lattice units in orthogonal box = (-60 -50 -50) to (60 50 50)
  create_atoms CPU = 0.000 seconds
Lattice spacing in x,y,z = 3 3 3
Created 29 atoms
  using lattice units in orthogonal box = (-60 -50 -50) to (60 50 50)
  create_atoms CPU = 0.002 seconds
Setting atom values ...
  29 settings made for diameter
Setting atom values ...
  29 settings made for mass
Setting atom values ...
  29 settings made for diameter
Setting atom values ...
  29 settings made for mass
29 atoms in group substrate
29 atoms in group slider1
  1 rigid bodies with 29 atoms
Generated 0 of 1 mixed pair_coeff terms from geometric mixing rule
Neighbor list info ...
  update every 1 steps, delay 0 steps, check yes
  max neighbors/atom: 2000, page size: 100000
  master list distance cutoff = 3.1
  ghost atom cutoff = 3.1
  binsize = 1.55, bins = 78 65 65
  1 neighbor lists, perpetual/occasional/extra = 1 0 0
  (1) pair granular, perpetual
      attributes: half, newton on, size, history
      pair build: half/size/bin/newton
      stencil: half/bin/3d
      bin: standard
Setting up Verlet run ...
  Unit style    : micro
  Current step  : 0
  Time step     : 1e-05
Per MPI rank memory allocation (min/avg/max) = 13.11 | 15.42 | 17.73 Mbytes
   Step           Lx             Ly             Lz           Press           Pxx            Pyy            Pzz           KinEng         PotEng          Temp          c_1[1]         c_1[2]         c_1[3]    
         0   120            100            100            5.1071223e-15  1.5321367e-14  0              0              0              0              0              0              0              6            
    100000   120            100            100            0.019779294    1.5321367e-14  0              0.059337881    17139.674      0              8.2761353e+11  0              0              3.3205167    
    200000   120            100            100            0.0072912926   1.5321367e-14  0              0.021873878    4447.3909      0              2.1474859e+11  0              0              3.0636614    
    300000   120            100            100            0.00090974483  1.5321367e-14  0              0.0027292345   135.20922      0              6.5287695e+09  0              0              3.0437017    
    400000   120            100            100            0.072571331    1.5321367e-14  0              0.21771399     186.96485      0              9.0278634e+09  0              0              2.9925303    
    500000   120            100            100            0.021407781    1.5321367e-14  0              0.064223344    45.69257       0              2.2063307e+09  0              0              2.9967126    
    600000   120            100            100            0.033053918    1.5321367e-14  0              0.099161754    1.9286759      0              93128855       0              0              2.995546     
    700000   120            100            100            0.023853069    1.5321367e-14  0              0.071559206    0.85408566     0              41240740       0              0              2.9964036    
    800000   120            100            100            0.023182426    1.5321367e-14  0              0.069547277    0.059769001    0              2886031.2      0              0              2.9964795    
    900000   120            100            100            0.024649873    1.5321367e-14  0              0.073949619    1.1356048e-06  0              54.834293      0              0              2.9963305    
   1000000   120            100            100            0.024003311    1.5321367e-14  0              0.072009933    0.0010608879   0              51226.48       0              0              2.9963948    
   1100000   120            100            100            0.024137608    1.5321367e-14  0              0.072412823    0.00028779603  0              13896.64       0              0              2.9963817    
   1200000   120            100            100            0.024155621    1.5321367e-14  0              0.072466864    1.8907064e-05  0              912.95447      0              0              2.9963797    
   1300000   120            100            100            0.024128157    1.5321367e-14  0              0.072384471    2.5982865e-09  0              0.12546196     0              0              2.9963825    
   1400000   120            100            100            0.024139902    1.5321367e-14  0              0.072419705    3.7786033e-07  0              18.245523      0              0              2.9963813    
   1500000   120            100            100            0.024137554    1.5321367e-14  0              0.072412663    9.6387635e-08  0              4.6542139      0              0              2.9963816    
   1600000   120            100            100            0.024137177    1.5321367e-14  0              0.072411531    5.9452176e-09  0              0.28707328     0              0              2.9963816    
   1700000   120            100            100            0.024137689    1.5321367e-14  0              0.072413068    4.861168e-12   0              0.00023472841  0              0              2.9963816    
   1800000   120            100            100            0.024137476    1.5321367e-14  0              0.072412428    1.3392589e-10  0              0.0064668019   0              0              2.9963816    
   1900000   120            100            100            0.024137517    1.5321367e-14  0              0.07241255     3.222242e-11   0              0.0015559053   0              0              2.9963816    
   2000000   120            100            100            0.024137525    1.5321367e-14  0              0.072412574    1.8622675e-12  0              8.9922232e-05  0              0              2.9963816    
   2100000   120            100            100            0.024137515    1.5321367e-14  0              0.072412545    4.0438126e-15  0              1.9526124e-07  0              0              2.9963816    
   2200000   120            100            100            0.024137519    1.5321367e-14  0              0.072412557    4.7279787e-14  0              2.2829717e-06  0              0              2.9963816    
   2300000   120            100            100            0.024137518    1.5321367e-14  0              0.072412555    1.0743606e-14  0              5.1877027e-07  0              0              2.9963816    
   2400000   120            100            100            0.024137518    1.5321367e-14  0              0.072412554    5.7288305e-16  0              2.7662472e-08  0              0              2.9963816    
   2500000   120            100            100            0.024137518    1.5321367e-14  0              0.072412555    3.0792879e-18  0              1.4868779e-10  0              0              2.9963816    
   2600000   120            100            100            0.024137518    1.5321367e-14  0              0.072412555    1.6005359e-17  0              7.728415e-10   0              0              2.9963816    
   2700000   120            100            100            0.024137518    1.5321367e-14  0              0.072412555    3.2673411e-18  0              1.5776821e-10  0              0              2.9963816    
   2800000   120            100            100            0.024137518    1.5321367e-14  0              0.072412555    1.1029432e-20  0              5.325718e-13   0              0              2.9963816    
   2900000   120            100            100            0.024137518    1.5321367e-14  0              0.072412555    1.7772482e-19  0              8.5816953e-12  0              0              2.9963816    
   3000000   120            100            100            0.024137518    1.5321367e-14  0              0.072412555    6.801476e-20   0              3.2841893e-12  0              0              2.9963816    
Loop time of 58.4398 on 4 procs for 3000000 steps with 58 atoms

Performance: 44353350.826 ns/day, 0.000 hours/ns, 51334.897 timesteps/s
99.9% CPU use with 4 MPI tasks x 1 OpenMP threads

MPI task timing breakdown:
Section |  min time  |  avg time  |  max time  |%varavg| %total
---------------------------------------------------------------
Pair    | 0.2278     | 1.4157     | 2.7156     |  95.2 |  2.42
Neigh   | 0.022125   | 0.022796   | 0.023473   |   0.4 |  0.04
Comm    | 25.413     | 30.087     | 34.766     |  84.3 | 51.48
Output  | 0.12047    | 0.12062    | 0.1208     |   0.0 |  0.21
Modify  | 13.64      | 19.428     | 25.176     | 129.8 | 33.24
Other   |            | 7.366      |            |       | 12.60

Nlocal:           14.5 ave          29 max           0 min
Histogram: 2 0 0 0 0 0 0 0 0 2
Nghost:           17.5 ave          32 max           3 min
Histogram: 2 0 0 0 0 0 0 0 0 2
Neighs:             10 ave          20 max           0 min
Histogram: 2 0 0 0 0 0 0 0 0 2

Total # of neighbors = 40
Ave neighs/atom = 0.68965517
Neighbor list builds = 166
Dangerous builds = 0
  using 1 OpenMP thread(s) per MPI task
Total wall time: 0:38:39
