LAMMPS (23 Jun 2022 - Update 1)
  using 1 OpenMP thread(s) per MPI task
Lattice spacing in x,y,z = 3 3 3
Created orthogonal box = (-30 -50 -50) to (30 50 50)
  1 by 1 by 2 MPI processor grid
Created 20 atoms
  using lattice units in orthogonal box = (-30 -50 -50) to (30 50 50)
  create_atoms CPU = 0.001 seconds
Lattice spacing in x,y,z = 3 3 3
Created 20 atoms
  using lattice units in orthogonal box = (-30 -50 -50) to (30 50 50)
  create_atoms CPU = 0.004 seconds
Setting atom values ...
  20 settings made for diameter
Setting atom values ...
  20 settings made for mass
Setting atom values ...
  20 settings made for diameter
Setting atom values ...
  20 settings made for mass
20 atoms in group substrate
20 atoms in group slider1
  1 rigid bodies with 20 atoms
Generated 0 of 1 mixed pair_coeff terms from geometric mixing rule
Neighbor list info ...
  update every 1 steps, delay 0 steps, check yes
  max neighbors/atom: 2000, page size: 100000
  master list distance cutoff = 3.1
  ghost atom cutoff = 3.1
  binsize = 1.55, bins = 39 65 65
  1 neighbor lists, perpetual/occasional/extra = 1 0 0
  (1) pair granular, perpetual
      attributes: half, newton on, size, history
      pair build: half/size/bin/newton
      stencil: half/bin/3d
      bin: standard
Setting up Verlet run ...
  Unit style    : micro
  Current step  : 0
  Time step     : 1e-05
Per MPI rank memory allocation (min/avg/max) = 13.1 | 15.41 | 17.72 Mbytes
   Step           Lx             Ly             Lz           Press           Pxx            Pyy            Pzz           KinEng         PotEng          Temp          c_1[1]         c_1[2]         c_1[3]    
         0   60             100            100            0              0              0              0              0              0              0             -1.5            0              6            
    100000   60             100            100            0.027664729    2.6535242e-21  0              0.082994188    12060.465      0              5.823567e+11  -1.5            0              3.3143275    
    200000   60             100            100            0.010908915   -9.6174631e-21  0              0.032726746    3475.3184      0              1.6781069e+11 -1.5            0              3.0506011    
    300000   60             100            100            0.00299945    -1.041243e-20   0              0.0089983501   444.288        0              2.1453077e+10 -1.5            0              3.0341764    
    400000   60             100            100            0.0019742049  -1.0341681e-20  0              0.0059226147   217.11075      0              1.0483501e+10 -1.5            0              3.0021225    
    500000   60             100            100            0.071676019   -1.0364744e-18  0              0.21502806     52.295924      0              2.525183e+09  -1.5            0              2.9988838    
    600000   60             100            100           -6.2779285e-05 -1.102938e-20   0             -0.00018833786  0.28189322     0              13611615      -1.5            0              3.000082     
    700000   60             100            100            0.023331465   -3.2629086e-19  0              0.069994394    0.9514516      0              45942193      -1.5            0              2.999474     
    800000   60             100            100            0.039200457   -5.5220119e-19  0              0.11760137     0.053284922    0              2572938.2     -1.5            0              2.9992587    
    900000   60             100            100            0.035655417   -5.0430847e-19  0              0.10696625     0.0039900378   0              192664.65     -1.5            0              2.9993045    
   1000000   60             100            100            0.033588767   -4.7502973e-19  0              0.1007663      0.0031492277   0              152064.94     -1.5            0              2.9993316    
   1100000   60             100            100            0.033140146   -4.68184e-19    0              0.099420439    0.00032273913  0              15583.918     -1.5            0              2.9993375    
   1200000   60             100            100            0.033201855   -4.6879025e-19  0              0.099605564    9.5044313e-07  0              45.893497     -1.5            0              2.9993367    
   1300000   60             100            100            0.033291917   -4.7001481e-19  0              0.09987575     3.866865e-06   0              186.71707     -1.5            0              2.9993355    
   1400000   60             100            100            0.033326523   -4.7051907e-19  0              0.099979568    1.1427268e-06  0              55.178189     -1.5            0              2.999335     
   1500000   60             100            100            0.033330824   -4.7059328e-19  0              0.099992471    5.9206247e-08  0              2.8588578     -1.5            0              2.999335     
   1600000   60             100            100            0.033328191   -4.705611e-19   0              0.099984574    8.2170341e-10  0              0.039677117   -1.5            0              2.999335     
   1700000   60             100            100            0.033326355   -4.705359e-19   0              0.099979066    2.1690338e-09  0              0.10473488    -1.5            0              2.999335     
   1800000   60             100            100            0.033325837   -4.7052734e-19  0              0.09997751     3.3539425e-10  0              0.016194988   -1.5            0              2.999335     
   1900000   60             100            100            0.033325838   -4.7052782e-19  0              0.099977513    5.8867989e-12  0              0.00028425245 -1.5            0              2.999335     
   2000000   60             100            100            0.033325908   -4.7052918e-19  0              0.099977725    1.7457559e-12  0              8.4296307e-05 -1.5            0              2.999335     
   2100000   60             100            100            0.033325942   -4.7052733e-19  0              0.099977826    9.1725527e-13  0              4.4290974e-05 -1.5            0              2.999335     
   2200000   60             100            100            0.033325948   -4.7052852e-19  0              0.099977845    7.7056739e-14  0              3.7207942e-06 -1.5            0              2.999335     
   2300000   60             100            100            0.033325947   -4.7052941e-19  0              0.099977841    7.1946181e-18  0              3.4740236e-10 -1.5            0              2.999335     
   2400000   60             100            100            0.033325945   -4.7052826e-19  0              0.099977836    1.3203837e-15  0              6.3756603e-08 -1.5            0              2.999335     
   2500000   60             100            100            0.033325945   -4.7053026e-19  0              0.099977834    3.1240529e-16  0              1.5084933e-08 -1.5            0              2.999335     
   2600000   60             100            100            0.033325945   -4.705297e-19   0              0.099977834    1.1782335e-17  0              5.6892681e-10 -1.5            0              2.999335     
   2700000   60             100            100            0.033325945   -4.7052907e-19  0              0.099977834    1.6097783e-18  0              7.7730433e-11 -1.5            0              2.999335     
   2800000   60             100            100            0.033325945   -4.7052998e-19  0              0.099977835    3.2726169e-19  0              1.5802296e-11 -1.5            0              2.999335     
   2900000   60             100            100            0.033325945   -4.7052778e-19  0              0.099977835    1.7300585e-19  0              8.3538331e-12 -1.5            0              2.999335     
   3000000   60             100            100            0.033325945   -4.7052955e-19  0              0.099977835    6.0627582e-22  0              2.9274889e-14 -1.5            0              2.999335     
Loop time of 34.0084 on 2 procs for 3000000 steps with 40 atoms

Performance: 76216544.994 ns/day, 0.000 hours/ns, 88213.594 timesteps/s
99.8% CPU use with 2 MPI tasks x 1 OpenMP threads

MPI task timing breakdown:
Section |  min time  |  avg time  |  max time  |%varavg| %total
---------------------------------------------------------------
Pair    | 0.32459    | 4.2911     | 8.2576     | 191.5 | 12.62
Neigh   | 0.021433   | 0.022323   | 0.023212   |   0.6 |  0.07
Comm    | 9.2789     | 9.9258     | 10.573     |  20.5 | 29.19
Output  | 0.11174    | 0.11185    | 0.11195    |   0.0 |  0.33
Modify  | 12.959     | 14.656     | 16.352     |  44.3 | 43.09
Other   |            | 5.002      |            |       | 14.71

Nlocal:             20 ave          40 max           0 min
Histogram: 1 0 0 0 0 0 0 0 0 1
Nghost:             26 ave          46 max           6 min
Histogram: 1 0 0 0 0 0 0 0 0 1
Neighs:             30 ave          60 max           0 min
Histogram: 1 0 0 0 0 0 0 0 0 1

Total # of neighbors = 60
Ave neighs/atom = 1.5
Neighbor list builds = 174
Dangerous builds = 0
  using 1 OpenMP thread(s) per MPI task
Lattice spacing in x,y,z = 3 3 3
Created orthogonal box = (-30 -50 -50) to (30 50 50)
  1 by 1 by 2 MPI processor grid
Created 20 atoms
  using lattice units in orthogonal box = (-30 -50 -50) to (30 50 50)
  create_atoms CPU = 0.000 seconds
Lattice spacing in x,y,z = 3 3 3
Created 20 atoms
  using lattice units in orthogonal box = (-30 -50 -50) to (30 50 50)
  create_atoms CPU = 0.003 seconds
Setting atom values ...
  20 settings made for diameter
Setting atom values ...
  20 settings made for mass
Setting atom values ...
  20 settings made for diameter
Setting atom values ...
  20 settings made for mass
20 atoms in group substrate
20 atoms in group slider1
  1 rigid bodies with 20 atoms
Generated 0 of 1 mixed pair_coeff terms from geometric mixing rule
Neighbor list info ...
  update every 1 steps, delay 0 steps, check yes
  max neighbors/atom: 2000, page size: 100000
  master list distance cutoff = 3.1
  ghost atom cutoff = 3.1
  binsize = 1.55, bins = 39 65 65
  1 neighbor lists, perpetual/occasional/extra = 1 0 0
  (1) pair granular, perpetual
      attributes: half, newton on, size, history
      pair build: half/size/bin/newton
      stencil: half/bin/3d
      bin: standard
Setting up Verlet run ...
  Unit style    : micro
  Current step  : 0
  Time step     : 1e-05
Per MPI rank memory allocation (min/avg/max) = 13.1 | 15.41 | 17.72 Mbytes
   Step           Lx             Ly             Lz           Press           Pxx            Pyy            Pzz           KinEng         PotEng          Temp          c_1[1]         c_1[2]         c_1[3]    
         0   60             100            100            0              0              0              0              0              0              0             -1.5            0              6            
    100000   60             100            100            0.027665213   -1.8914901e-21  0              0.082995638    12060.785      0              5.8237216e+11 -1.5            0              3.314313     
    200000   60             100            100            0.010910071   -1.5331131e-20  0              0.032730213    3475.8916      0              1.6783836e+11 -1.5            0              3.0505741    
    300000   60             100            100            0.0030013942  -1.5448801e-20  0              0.0090041826   444.78707      0              2.1477176e+10 -1.5            0              3.034155     
    400000   60             100            100            0.0019780315  -1.1680415e-20  0              0.0059340945   217.86518      0              1.051993e+10  -1.5            0              3.002086     
    500000   60             100            100            0.067147122   -9.4814661e-19  0              0.20144136     53.343651      0              2.575774e+09  -1.5            0              2.9989322    
    600000   60             100            100           -4.2437718e-05 -1.177343e-20   0             -0.00012731315  0.12706758     0              6135638.9     -1.5            0              3.0000909    
    700000   60             100            100            0.02030906    -2.789889e-19   0              0.060927181    0.63405514     0              30616253      -1.5            0              2.9995213    
    800000   60             100            100            0.03702077    -5.1021812e-19  0              0.11106231     0.13306444     0              6425205.6     -1.5            0              2.9992872    
    900000   60             100            100            0.03580077    -4.949379e-19   0              0.10740231     0.0012114722   0              58497.659     -1.5            0              2.9993034    
   1000000   60             100            100            0.034155411   -4.7269603e-19  0              0.10246623     0.00070216013  0              33904.8       -1.5            0              2.999325     
   1100000   60             100            100            0.033467256   -4.6313844e-19  0              0.10040177     0.00038440286  0              18561.438     -1.5            0              2.9993341    
   1200000   60             100            100            0.033295262   -4.6065832e-19  0              0.099885786    5.8714435e-05  0              2835.1099     -1.5            0              2.9993364    
   1300000   60             100            100            0.033289223   -4.6046598e-19  0              0.09986767     3.0547662e-06  0              147.50373     -1.5            0              2.9993365    
   1400000   60             100            100            0.033309015   -4.6071602e-19  0              0.099927044    1.0994381e-09  0              0.053087932   -1.5            0              2.9993362    
   1500000   60             100            100            0.033321199   -4.608873e-19   0              0.099963597    6.5273599e-08  0              3.1518285     -1.5            0              2.999336     
   1600000   60             100            100            0.033325516   -4.6095101e-19  0              0.099976549    2.0216031e-08  0              0.97615979    -1.5            0              2.999336     
   1700000   60             100            100            0.033326347   -4.6096347e-19  0              0.09997904     2.2148616e-09  0              0.10694774    -1.5            0              2.999336     
   1800000   60             100            100            0.033326239   -4.609634e-19   0              0.099978718    6.058035e-11   0              0.0029252083  -1.5            0              2.999336     
   1900000   60             100            100            0.033326065   -4.6096051e-19  0              0.099978196    3.6023775e-12  0              0.00017394592 -1.5            0              2.999336     
   2000000   60             100            100            0.03332598    -4.6095925e-19  0              0.09997794     4.5903947e-12  0              0.00022165373 -1.5            0              2.999336     
   2100000   60             100            100            0.033325955   -4.6095898e-19  0              0.099977864    9.4710545e-13  0              4.5732332e-05 -1.5            0              2.999336     
   2200000   60             100            100            0.033325952   -4.6095846e-19  0              0.099977855    7.2322783e-14  0              3.4922084e-06 -1.5            0              2.999336     
   2300000   60             100            100            0.033325953   -4.6095957e-19  0              0.09997786     5.1843395e-16  0              2.503332e-08  -1.5            0              2.999336     
   2400000   60             100            100            0.033325955   -4.6095855e-19  0              0.099977864    5.4400084e-16  0              2.6267854e-08 -1.5            0              2.999336     
   2500000   60             100            100            0.033325955   -4.6095852e-19  0              0.099977866    2.7112996e-16  0              1.3091895e-08 -1.5            0              2.999336     
   2600000   60             100            100            0.033325955   -4.6095866e-19  0              0.099977866    3.9514479e-17  0              1.9080128e-09 -1.5            0              2.999336     
   2700000   60             100            100            0.033325955   -4.6095892e-19  0              0.099977866    9.6790419e-19  0              4.6736629e-11 -1.5            0              2.999336     
   2800000   60             100            100            0.033325955   -4.6095901e-19  0              0.099977866    8.9374646e-20  0              4.3155818e-12 -1.5            0              2.999336     
   2900000   60             100            100            0.033325955   -4.6095901e-19  0              0.099977866    3.9478899e-20  0              1.9062947e-12 -1.5            0              2.999336     
   3000000   60             100            100            0.033325955   -4.6095852e-19  0              0.099977866    8.4063193e-20  0              4.0591107e-12 -1.5            0              2.999336     
Loop time of 32.6468 on 2 procs for 3000000 steps with 40 atoms

Performance: 79395153.121 ns/day, 0.000 hours/ns, 91892.538 timesteps/s
99.8% CPU use with 2 MPI tasks x 1 OpenMP threads

MPI task timing breakdown:
Section |  min time  |  avg time  |  max time  |%varavg| %total
---------------------------------------------------------------
Pair    | 0.31425    | 4.1524     | 7.9906     | 188.4 | 12.72
Neigh   | 0.021173   | 0.022051   | 0.02293    |   0.6 |  0.07
Comm    | 8.9971     | 9.7333     | 10.469     |  23.6 | 29.81
Output  | 0.11051    | 0.11059    | 0.11067    |   0.0 |  0.34
Modify  | 12.159     | 13.816     | 15.474     |  44.6 | 42.32
Other   |            | 4.812      |            |       | 14.74

Nlocal:             20 ave          40 max           0 min
Histogram: 1 0 0 0 0 0 0 0 0 1
Nghost:             26 ave          46 max           6 min
Histogram: 1 0 0 0 0 0 0 0 0 1
Neighs:             30 ave          60 max           0 min
Histogram: 1 0 0 0 0 0 0 0 0 1

Total # of neighbors = 60
Ave neighs/atom = 1.5
Neighbor list builds = 174
Dangerous builds = 0
  using 1 OpenMP thread(s) per MPI task
Lattice spacing in x,y,z = 3 3 3
Created orthogonal box = (-30 -50 -50) to (30 50 50)
  1 by 1 by 2 MPI processor grid
Created 20 atoms
  using lattice units in orthogonal box = (-30 -50 -50) to (30 50 50)
  create_atoms CPU = 0.000 seconds
Lattice spacing in x,y,z = 3 3 3
Created 20 atoms
  using lattice units in orthogonal box = (-30 -50 -50) to (30 50 50)
  create_atoms CPU = 0.002 seconds
Setting atom values ...
  20 settings made for diameter
Setting atom values ...
  20 settings made for mass
Setting atom values ...
  20 settings made for diameter
Setting atom values ...
  20 settings made for mass
20 atoms in group substrate
20 atoms in group slider1
  1 rigid bodies with 20 atoms
Generated 0 of 1 mixed pair_coeff terms from geometric mixing rule
Neighbor list info ...
  update every 1 steps, delay 0 steps, check yes
  max neighbors/atom: 2000, page size: 100000
  master list distance cutoff = 3.1
  ghost atom cutoff = 3.1
  binsize = 1.55, bins = 39 65 65
  1 neighbor lists, perpetual/occasional/extra = 1 0 0
  (1) pair granular, perpetual
      attributes: half, newton on, size, history
      pair build: half/size/bin/newton
      stencil: half/bin/3d
      bin: standard
Setting up Verlet run ...
  Unit style    : micro
  Current step  : 0
  Time step     : 1e-05
Per MPI rank memory allocation (min/avg/max) = 13.1 | 15.41 | 17.72 Mbytes
   Step           Lx             Ly             Lz           Press           Pxx            Pyy            Pzz           KinEng         PotEng          Temp          c_1[1]         c_1[2]         c_1[3]    
         0   60             100            100            0              0              0              0              0              0              0             -1.5            0              6            
    100000   60             100            100            0.027665741   -6.5279499e-21  0              0.082997222    12061.135      0              5.8238903e+11 -1.5            0              3.3142976    
    200000   60             100            100            0.010911319   -8.4505445e-21  0              0.032733956    3476.5101      0              1.6786823e+11 -1.5            0              3.0505452    
    300000   60             100            100            0.0030034998  -1.224417e-20   0              0.0090104995   445.3278       0              2.1503286e+10 -1.5            0              3.0341318    
    400000   60             100            100            0.0019821928  -1.1471101e-20  0              0.0059465785   218.68678      0              1.0559602e+10 -1.5            0              3.0020463    
    500000   60             100            100            0.062255219   -8.7055789e-19  0              0.18676566     54.352028      0              2.6244649e+09 -1.5            0              2.9989856    
    600000   60             100            100           -2.012738e-05  -1.1949428e-20  0             -6.0382139e-05  0.027480818    0              1326950.4     -1.5            0              3.0000972    
    700000   60             100            100            0.017891398   -2.4307097e-19  0              0.053674194    0.30568217     0              14760298      -1.5            0              2.999561     
    800000   60             100            100            0.033891639   -4.5751441e-19  0              0.10167492     0.18557938     0              8960964.3     -1.5            0              2.9993289    
    900000   60             100            100            0.034872101   -4.7198136e-19  0              0.1046163      0.015791131    0              762497.22     -1.5            0              2.9993165    
   1000000   60             100            100            0.034170818   -4.6334359e-19  0              0.10251246     0.00058758362  0              28372.31      -1.5            0              2.9993258    
   1100000   60             100            100            0.033667146   -4.5648845e-19  0              0.10100144     8.0641496e-07  0              38.938893     -1.5            0              2.9993325    
   1200000   60             100            100            0.033435819   -4.5340223e-19  0              0.10030746     1.4824726e-05  0              715.83297     -1.5            0              2.9993356    
   1300000   60             100            100            0.033352036   -4.5223364e-19  0              0.10005611     5.7965984e-06  0              279.89699     -1.5            0              2.9993367    
   1400000   60             100            100            0.033328243   -4.5189124e-19  0              0.099984729    1.126539e-06   0              54.396537     -1.5            0              2.999337     
   1500000   60             100            100            0.033323936   -4.5183248e-19  0              0.099971809    1.3826256e-07  0              6.6762044     -1.5            0              2.999337     
   1600000   60             100            100            0.033324325   -4.518418e-19   0              0.099972974    1.0157067e-08  0              0.4904484     -1.5            0              2.999337     
   1700000   60             100            100            0.033325162   -4.5184934e-19  0              0.099975487    2.5379533e-10  0              0.012254868   -1.5            0              2.999337     
   1800000   60             100            100            0.03332566    -4.5185835e-19  0              0.099976981    1.0010296e-11  0              0.00048336139 -1.5            0              2.999337     
   1900000   60             100            100            0.033325874   -4.5186092e-19  0              0.099977622    1.7927909e-11  0              0.00086567458 -1.5            0              2.999337     
   2000000   60             100            100            0.033325947   -4.5185996e-19  0              0.099977842    5.5436882e-12  0              0.00026768486 -1.5            0              2.999337     
   2100000   60             100            100            0.033325967   -4.5186264e-19  0              0.0999779      9.4969245e-13  0              4.5857249e-05 -1.5            0              2.999337     
   2200000   60             100            100            0.033325969   -4.5186224e-19  0              0.099977908    1.0362546e-13  0              5.0037025e-06 -1.5            0              2.999337     
   2300000   60             100            100            0.033325968   -4.5186214e-19  0              0.099977905    6.359813e-15   0              3.0709261e-07 -1.5            0              2.999337     
   2400000   60             100            100            0.033325968   -4.5186084e-19  0              0.099977903    7.632765e-17   0              3.6855891e-09 -1.5            0              2.999337     
   2500000   60             100            100            0.033325967   -4.5186233e-19  0              0.099977901    2.5935727e-17  0              1.2523434e-09 -1.5            0              2.999337     
   2600000   60             100            100            0.033325967   -4.5186221e-19  0              0.099977901    2.0823171e-17  0              1.0054764e-09 -1.5            0              2.999337     
   2700000   60             100            100            0.033325967   -4.5185601e-19  0              0.0999779      5.66735e-18    0              2.7365605e-10 -1.5            0              2.999337     
   2800000   60             100            100            0.033325967   -4.5186317e-19  0              0.0999779      6.3183352e-19  0              3.050898e-11  -1.5            0              2.999337     
   2900000   60             100            100            0.033325967   -4.51862e-19    0              0.0999779      8.6925484e-20  0              4.1973205e-12 -1.5            0              2.999337     
   3000000   60             100            100            0.033325967   -4.5185967e-19  0              0.0999779      4.0633336e-20  0              1.9620384e-12 -1.5            0              2.999337     
Loop time of 32.5788 on 2 procs for 3000000 steps with 40 atoms

Performance: 79560840.508 ns/day, 0.000 hours/ns, 92084.306 timesteps/s
99.8% CPU use with 2 MPI tasks x 1 OpenMP threads

MPI task timing breakdown:
Section |  min time  |  avg time  |  max time  |%varavg| %total
---------------------------------------------------------------
Pair    | 0.3199     | 4.1386     | 7.9573     | 187.7 | 12.70
Neigh   | 0.021712   | 0.022633   | 0.023555   |   0.6 |  0.07
Comm    | 9.0388     | 9.7716     | 10.504     |  23.4 | 29.99
Output  | 0.10883    | 0.1089     | 0.10897    |   0.0 |  0.33
Modify  | 12.126     | 13.719     | 15.313     |  43.0 | 42.11
Other   |            | 4.818      |            |       | 14.79

Nlocal:             20 ave          40 max           0 min
Histogram: 1 0 0 0 0 0 0 0 0 1
Nghost:             26 ave          46 max           6 min
Histogram: 1 0 0 0 0 0 0 0 0 1
Neighs:             30 ave          60 max           0 min
Histogram: 1 0 0 0 0 0 0 0 0 1

Total # of neighbors = 60
Ave neighs/atom = 1.5
Neighbor list builds = 174
Dangerous builds = 0
  using 1 OpenMP thread(s) per MPI task
Lattice spacing in x,y,z = 3 3 3
Created orthogonal box = (-30 -50 -50) to (30 50 50)
  1 by 1 by 2 MPI processor grid
Created 20 atoms
  using lattice units in orthogonal box = (-30 -50 -50) to (30 50 50)
  create_atoms CPU = 0.001 seconds
Lattice spacing in x,y,z = 3 3 3
Created 20 atoms
  using lattice units in orthogonal box = (-30 -50 -50) to (30 50 50)
  create_atoms CPU = 0.003 seconds
Setting atom values ...
  20 settings made for diameter
Setting atom values ...
  20 settings made for mass
Setting atom values ...
  20 settings made for diameter
Setting atom values ...
  20 settings made for mass
20 atoms in group substrate
20 atoms in group slider1
  1 rigid bodies with 20 atoms
Generated 0 of 1 mixed pair_coeff terms from geometric mixing rule
Neighbor list info ...
  update every 1 steps, delay 0 steps, check yes
  max neighbors/atom: 2000, page size: 100000
  master list distance cutoff = 3.1
  ghost atom cutoff = 3.1
  binsize = 1.55, bins = 39 65 65
  1 neighbor lists, perpetual/occasional/extra = 1 0 0
  (1) pair granular, perpetual
      attributes: half, newton on, size, history
      pair build: half/size/bin/newton
      stencil: half/bin/3d
      bin: standard
Setting up Verlet run ...
  Unit style    : micro
  Current step  : 0
  Time step     : 1e-05
Per MPI rank memory allocation (min/avg/max) = 13.1 | 15.41 | 17.72 Mbytes
   Step           Lx             Ly             Lz           Press           Pxx            Pyy            Pzz           KinEng         PotEng          Temp          c_1[1]         c_1[2]         c_1[3]    
         0   60             100            100            0              0              0              0              0              0              0             -1.5            0              6            
    100000   60             100            100            0.027666318   -5.6335077e-21  0              0.082998953    12061.518      0              5.8240752e+11 -1.5            0              3.3142802    
    200000   60             100            100            0.010912692   -1.0983505e-20  0              0.032738077    3477.1915      0              1.6790113e+11 -1.5            0              3.0505132    
    300000   60             100            100            0.0030058127  -7.9913454e-21  0              0.0090174382   445.92206      0              2.153198e+10  -1.5            0              3.0341063    
    400000   60             100            100            0.0019867538  -1.2423398e-20  0              0.0059602613   219.58871      0              1.0603153e+10 -1.5            0              3.0020026    
    500000   60             100            100            0.056988977   -7.770364e-19   0              0.17096693     55.288919      0              2.669704e+09  -1.5            0              2.9990445    
    600000   60             100            100            4.2461571e-06 -1.1103436e-20  0              1.2738471e-05  0.0017445244   0              84236.841     -1.5            0              3.0000998    
    700000   60             100            100            0.016376627   -2.2019506e-19  0              0.04912988     0.062769915    0              3030934.6     -1.5            0              2.9995874    
    800000   60             100            100            0.030460956   -4.0265144e-19  0              0.091382867    0.15439147     0              7455011.4     -1.5            0              2.999376     
    900000   60             100            100            0.033092096   -4.3898823e-19  0              0.099276287    0.025120852    0              1212996       -1.5            0              2.999341     
   1000000   60             100            100            0.033476223   -4.4437585e-19  0              0.10042867     0.0033318099   0              160881.18     -1.5            0              2.9993361    
   1100000   60             100            100            0.033460173   -4.44167e-19    0              0.10038052     0.00039063886  0              18862.552     -1.5            0              2.9993363    
   1200000   60             100            100            0.033401219   -4.4348183e-19  0              0.10020366     3.997441e-05   0              1930.2212     -1.5            0              2.9993371    
   1300000   60             100            100            0.033361585   -4.430167e-19   0              0.10008475     3.4115957e-06  0              164.73375     -1.5            0              2.9993377    
   1400000   60             100            100            0.033341254   -4.4273542e-19  0              0.10002376     2.1654797e-07  0              10.456326     -1.5            0              2.9993379    
   1500000   60             100            100            0.033332083   -4.4262036e-19  0              0.099996249    6.8643889e-09  0              0.33145677    -1.5            0              2.999338     
   1600000   60             100            100            0.033328277   -4.4257034e-19  0              0.099984831    1.3790502e-11  0              0.00066589398 -1.5            0              2.9993381    
   1700000   60             100            100            0.033326796   -4.4255035e-19  0              0.099980389    1.9215897e-10  0              0.0092786691  -1.5            0              2.9993381    
   1800000   60             100            100            0.033326252   -4.4254348e-19  0              0.099978757    8.8513703e-11  0              0.0042740099  -1.5            0              2.9993381    
   1900000   60             100            100            0.033326064   -4.4254086e-19  0              0.099978192    2.3531949e-11  0              0.0011362736  -1.5            0              2.9993381    
   2000000   60             100            100            0.033326003   -4.4253956e-19  0              0.099978009    4.8190771e-12  0              0.00023269599 -1.5            0              2.9993381    
   2100000   60             100            100            0.033325985   -4.4253652e-19  0              0.099977954    8.343228e-13   0              4.0286462e-05 -1.5            0              2.9993381    
   2200000   60             100            100            0.03332598    -4.4253878e-19  0              0.09997794     1.2681545e-13  0              6.1234644e-06 -1.5            0              2.9993381    
   2300000   60             100            100            0.033325979   -4.4254015e-19  0              0.099977937    1.7156306e-14  0              8.284166e-07  -1.5            0              2.9993381    
   2400000   60             100            100            0.033325979   -4.4253954e-19  0              0.099977937    2.0705391e-15  0              9.9978923e-08 -1.5            0              2.9993381    
   2500000   60             100            100            0.033325979   -4.4253916e-19  0              0.099977937    2.2074436e-16  0              1.0658955e-08 -1.5            0              2.9993381    
   2600000   60             100            100            0.033325979   -4.4253881e-19  0              0.099977937    1.9497119e-17  0              9.414461e-10  -1.5            0              2.9993381    
   2700000   60             100            100            0.033325979   -4.4253997e-19  0              0.099977938    5.4725946e-19  0              2.6425201e-11 -1.5            0              2.9993381    
   2800000   60             100            100            0.033325979   -4.4253968e-19  0              0.099977938    3.0104825e-19  0              1.4536543e-11 -1.5            0              2.9993381    
   2900000   60             100            100            0.033325979   -4.4253975e-19  0              0.099977938    2.0900251e-20  0              1.0091983e-12 -1.5            0              2.9993381    
   3000000   60             100            100            0.033325979   -4.4253986e-19  0              0.099977938    4.4123188e-20  0              2.1305508e-12 -1.5            0              2.9993381    
Loop time of 32.7914 on 2 procs for 3000000 steps with 40 atoms

Performance: 79045151.308 ns/day, 0.000 hours/ns, 91487.444 timesteps/s
99.8% CPU use with 2 MPI tasks x 1 OpenMP threads

MPI task timing breakdown:
Section |  min time  |  avg time  |  max time  |%varavg| %total
---------------------------------------------------------------
Pair    | 0.3178     | 4.1466     | 7.9754     | 188.0 | 12.65
Neigh   | 0.022775   | 0.023684   | 0.024593   |   0.6 |  0.07
Comm    | 9.1117     | 9.7773     | 10.443     |  21.3 | 29.82
Output  | 0.1118     | 0.11187    | 0.11194    |   0.0 |  0.34
Modify  | 12.239     | 13.961     | 15.683     |  46.1 | 42.57
Other   |            | 4.771      |            |       | 14.55

Nlocal:             20 ave          40 max           0 min
Histogram: 1 0 0 0 0 0 0 0 0 1
Nghost:             26 ave          46 max           6 min
Histogram: 1 0 0 0 0 0 0 0 0 1
Neighs:             30 ave          60 max           0 min
Histogram: 1 0 0 0 0 0 0 0 0 1

Total # of neighbors = 60
Ave neighs/atom = 1.5
Neighbor list builds = 174
Dangerous builds = 0
  using 1 OpenMP thread(s) per MPI task
Lattice spacing in x,y,z = 3 3 3
Created orthogonal box = (-30 -50 -50) to (30 50 50)
  1 by 1 by 2 MPI processor grid
Created 20 atoms
  using lattice units in orthogonal box = (-30 -50 -50) to (30 50 50)
  create_atoms CPU = 0.000 seconds
Lattice spacing in x,y,z = 3 3 3
Created 20 atoms
  using lattice units in orthogonal box = (-30 -50 -50) to (30 50 50)
  create_atoms CPU = 0.003 seconds
Setting atom values ...
  20 settings made for diameter
Setting atom values ...
  20 settings made for mass
Setting atom values ...
  20 settings made for diameter
Setting atom values ...
  20 settings made for mass
20 atoms in group substrate
20 atoms in group slider1
  1 rigid bodies with 20 atoms
Generated 0 of 1 mixed pair_coeff terms from geometric mixing rule
Neighbor list info ...
  update every 1 steps, delay 0 steps, check yes
  max neighbors/atom: 2000, page size: 100000
  master list distance cutoff = 3.1
  ghost atom cutoff = 3.1
  binsize = 1.55, bins = 39 65 65
  1 neighbor lists, perpetual/occasional/extra = 1 0 0
  (1) pair granular, perpetual
      attributes: half, newton on, size, history
      pair build: half/size/bin/newton
      stencil: half/bin/3d
      bin: standard
Setting up Verlet run ...
  Unit style    : micro
  Current step  : 0
  Time step     : 1e-05
Per MPI rank memory allocation (min/avg/max) = 13.1 | 15.41 | 17.72 Mbytes
   Step           Lx             Ly             Lz           Press           Pxx            Pyy            Pzz           KinEng         PotEng          Temp          c_1[1]         c_1[2]         c_1[3]    
         0   60             100            100            0              0              0              0              0              0              0             -1.5            0              6            
    100000   60             100            100            0.02766694    -2.1286306e-21  0              0.08300082     12061.929      0              5.824274e+11  -1.5            0              3.3142619    
    200000   60             100            100            0.010914165   -1.5606634e-20  0              0.032742494    3477.9216      0              1.6793639e+11 -1.5            0              3.050479     
    300000   60             100            100            0.0030083031  -1.6390186e-20  0              0.0090249093   446.56223      0              2.1562892e+10 -1.5            0              3.0340789    
    400000   60             100            100            0.0019916769  -1.3137604e-20  0              0.0059750306   220.5639       0              1.0650241e+10 -1.5            0              3.0019554    
    500000   60             100            100            0.051411276   -6.9357538e-19  0              0.15423383     56.106099      0              2.7091627e+09 -1.5            0              2.9991086    
    600000   60             100            100            3.0664956e-05 -1.0495287e-20  0              9.1994869e-05  0.070654431    0              3411649.6     -1.5            0              3.0000979    
    700000   60             100            100            0.016066606   -2.1281651e-19  0              0.048199818    0.0091525116   0              441942.03     -1.5            0              2.999594     
    800000   60             100            100            0.027696722   -3.5899632e-19  0              0.083090166    0.057113254    0              2757794.6     -1.5            0              2.9994156    
    900000   60             100            100            0.031360075   -4.0785539e-19  0              0.094080224    0.0099004757   0              478058.54     -1.5            0              2.9993654    
   1000000   60             100            100            0.032603225   -4.2352732e-19  0              0.097809675    0.0013588517   0              65614.084     -1.5            0              2.9993489    
   1100000   60             100            100            0.033058247   -4.2952466e-19  0              0.099174742    0.00018060684  0              8720.8578     -1.5            0              2.9993429    
   1200000   60             100            100            0.033226737   -4.3164935e-19  0              0.099680212    2.3860705e-05  0              1152.148      -1.5            0              2.9993406    
   1300000   60             100            100            0.033289202   -4.3252907e-19  0              0.099867607    3.14687e-06    0              151.95109     -1.5            0              2.9993398    
   1400000   60             100            100            0.033312358   -4.3281373e-19  0              0.099937075    4.1466212e-07  0              20.02255      -1.5            0              2.9993395    
   1500000   60             100            100            0.033320941   -4.3293095e-19  0              0.099962822    5.4603609e-08  0              2.6366129     -1.5            0              2.9993394    
   1600000   60             100            100            0.033324121   -4.3297078e-19  0              0.099972363    7.1859416e-09  0              0.3469834     -1.5            0              2.9993394    
   1700000   60             100            100            0.033325299   -4.3298761e-19  0              0.099975898    9.4509922e-10  0              0.045635459   -1.5            0              2.9993394    
   1800000   60             100            100            0.033325736   -4.3299089e-19  0              0.099977208    1.2422643e-10  0              0.0059984498  -1.5            0              2.9993393    
   1900000   60             100            100            0.033325898   -4.3299558e-19  0              0.099977693    1.6316983e-11  0              0.00078788872 -1.5            0              2.9993393    
   2000000   60             100            100            0.033325957   -4.3299296e-19  0              0.099977872    2.141687e-12   0              0.0001034144  -1.5            0              2.9993393    
   2100000   60             100            100            0.03332598    -4.3299482e-19  0              0.099977939    2.8095727e-13  0              1.3566421e-05 -1.5            0              2.9993393    
   2200000   60             100            100            0.033325988   -4.3299304e-19  0              0.099977964    3.6828095e-14  0              1.7782969e-06 -1.5            0              2.9993393    
   2300000   60             100            100            0.033325991   -4.3299615e-19  0              0.099977973    4.8296396e-15  0              2.3320601e-07 -1.5            0              2.9993393    
   2400000   60             100            100            0.033325992   -4.3299621e-19  0              0.099977976    6.3560251e-16  0              3.069097e-08  -1.5            0              2.9993393    
   2500000   60             100            100            0.033325992   -4.3299638e-19  0              0.099977977    8.3228248e-17  0              4.0187942e-09 -1.5            0              2.9993393    
   2600000   60             100            100            0.033325993   -4.3299634e-19  0              0.099977978    1.1017481e-17  0              5.3199471e-10 -1.5            0              2.9993393    
   2700000   60             100            100            0.033325993   -4.3299636e-19  0              0.099977978    2.7293602e-18  0              1.3179104e-10 -1.5            0              2.9993393    
   2800000   60             100            100            0.033325993   -4.3299635e-19  0              0.099977978    9.3938694e-22  0              4.5359633e-14 -1.5            0              2.9993393    
   2900000   60             100            100            0.033325993   -4.3299635e-19  0              0.099977978    1.5768753e-19  0              7.6141666e-12 -1.5            0              2.9993393    
   3000000   60             100            100            0.033325993   -4.3299635e-19  0              0.099977978    8.9386098e-21  0              4.3161348e-13 -1.5            0              2.9993393    
Loop time of 32.553 on 2 procs for 3000000 steps with 40 atoms

Performance: 79624028.977 ns/day, 0.000 hours/ns, 92157.441 timesteps/s
99.8% CPU use with 2 MPI tasks x 1 OpenMP threads

MPI task timing breakdown:
Section |  min time  |  avg time  |  max time  |%varavg| %total
---------------------------------------------------------------
Pair    | 0.33113    | 4.0557     | 7.7802     | 184.9 | 12.46
Neigh   | 0.022015   | 0.022937   | 0.02386    |   0.6 |  0.07
Comm    | 9.0653     | 9.7844     | 10.503     |  23.0 | 30.06
Output  | 0.11114    | 0.1112     | 0.11127    |   0.0 |  0.34
Modify  | 12.232     | 13.784     | 15.337     |  41.8 | 42.34
Other   |            | 4.794      |            |       | 14.73

Nlocal:             20 ave          40 max           0 min
Histogram: 1 0 0 0 0 0 0 0 0 1
Nghost:             26 ave          46 max           6 min
Histogram: 1 0 0 0 0 0 0 0 0 1
Neighs:             30 ave          60 max           0 min
Histogram: 1 0 0 0 0 0 0 0 0 1

Total # of neighbors = 60
Ave neighs/atom = 1.5
Neighbor list builds = 174
Dangerous builds = 0
  using 1 OpenMP thread(s) per MPI task
Lattice spacing in x,y,z = 3 3 3
Created orthogonal box = (-30 -50 -50) to (30 50 50)
  1 by 1 by 2 MPI processor grid
Created 20 atoms
  using lattice units in orthogonal box = (-30 -50 -50) to (30 50 50)
  create_atoms CPU = 0.000 seconds
Lattice spacing in x,y,z = 3 3 3
Created 20 atoms
  using lattice units in orthogonal box = (-30 -50 -50) to (30 50 50)
  create_atoms CPU = 0.003 seconds
Setting atom values ...
  20 settings made for diameter
Setting atom values ...
  20 settings made for mass
Setting atom values ...
  20 settings made for diameter
Setting atom values ...
  20 settings made for mass
20 atoms in group substrate
20 atoms in group slider1
  1 rigid bodies with 20 atoms
Generated 0 of 1 mixed pair_coeff terms from geometric mixing rule
Neighbor list info ...
  update every 1 steps, delay 0 steps, check yes
  max neighbors/atom: 2000, page size: 100000
  master list distance cutoff = 3.1
  ghost atom cutoff = 3.1
  binsize = 1.55, bins = 39 65 65
  1 neighbor lists, perpetual/occasional/extra = 1 0 0
  (1) pair granular, perpetual
      attributes: half, newton on, size, history
      pair build: half/size/bin/newton
      stencil: half/bin/3d
      bin: standard
Setting up Verlet run ...
  Unit style    : micro
  Current step  : 0
  Time step     : 1e-05
Per MPI rank memory allocation (min/avg/max) = 13.1 | 15.41 | 17.72 Mbytes
   Step           Lx             Ly             Lz           Press           Pxx            Pyy            Pzz           KinEng         PotEng          Temp          c_1[1]         c_1[2]         c_1[3]    
         0   60             100            100            0              0              0              0              0              0              0             -1.5            0              6            
    100000   60             100            100            0.02766761    -4.1760166e-21  0              0.083002829    12062.372      0              5.8244879e+11 -1.5            0              3.3142422    
    200000   60             100            100            0.010915751   -1.2129521e-20  0              0.032747253    3478.7083      0              1.6797437e+11 -1.5            0              3.0504421    
    300000   60             100            100            0.0030109779  -1.4892335e-20  0              0.0090329336   447.25018      0              2.1596111e+10 -1.5            0              3.0340494    
    400000   60             100            100            0.0019969602  -1.1922341e-20  0              0.0059908806   221.61237      0              1.0700868e+10 -1.5            0              3.0019046    
    500000   60             100            100            0.045576305   -6.0207523e-19  0              0.13672891     56.757956      0              2.7406386e+09 -1.5            0              2.9991779    
    600000   60             100            100            5.9135299e-05 -1.0624343e-20  0              0.0001774059   0.25623607     0              12372723      -1.5            0              3.0000902    
    700000   60             100            100            0.017278555   -2.2387099e-19  0              0.051835665    0.21093555     0              10185323      -1.5            0              2.9995754    
    800000   60             100            100            0.026610339   -3.3859296e-19  0              0.079831016    1.0591833e-05  0              511.44171     -1.5            0              2.9994325    
    900000   60             100            100            0.030862956   -3.925189e-19   0              0.092588869    0.00090726028  0              43808.352     -1.5            0              2.9993736    
   1000000   60             100            100            0.032493485   -4.1306952e-19  0              0.097480454    0.00066256101  0              31992.7       -1.5            0              2.9993517    
   1100000   60             100            100            0.033072066   -4.2012607e-19  0              0.099216197    0.00020681657  0              9986.4321     -1.5            0              2.999344     
   1200000   60             100            100            0.033259206   -4.2243362e-19  0              0.099777617    4.4917593e-05  0              2168.9098     -1.5            0              2.9993415    
   1300000   60             100            100            0.033313114   -4.2305583e-19  0              0.099939343    7.820262e-06   0              377.61246     -1.5            0              2.9993408    
   1400000   60             100            100            0.033325922   -4.2321393e-19  0              0.099977766    1.1490888e-06  0              55.485384     -1.5            0              2.9993406    
   1500000   60             100            100            0.033327691   -4.2324051e-19  0              0.099983072    1.4452794e-07  0              6.9787369     -1.5            0              2.9993406    
   1600000   60             100            100            0.03332721    -4.2323016e-19  0              0.099981629    1.5371827e-08  0              0.7422505     -1.5            0              2.9993406    
   1700000   60             100            100            0.03332663    -4.2322477e-19  0              0.099979891    1.3175873e-09  0              0.063621573   -1.5            0              2.9993406    
   1800000   60             100            100            0.033326285   -4.2322179e-19  0              0.099978856    7.941643e-11   0              0.0038347352  -1.5            0              2.9993406    
   1900000   60             100            100            0.03332612    -4.2321919e-19  0              0.099978359    1.9469705e-12  0              9.4012235e-05 -1.5            0              2.9993406    
   2000000   60             100            100            0.033326049   -4.2321851e-19  0              0.099978148    4.7649788e-14  0              2.3008377e-06 -1.5            0              2.9993406    
   2100000   60             100            100            0.033326022   -4.2321811e-19  0              0.099978065    1.1782459e-13  0              5.6893279e-06 -1.5            0              2.9993406    
   2200000   60             100            100            0.033326012   -4.2321799e-19  0              0.099978035    4.550874e-14   0              2.1974542e-06 -1.5            0              2.9993406    
   2300000   60             100            100            0.033326008   -4.2321795e-19  0              0.099978025    1.0914727e-14  0              5.2703309e-07 -1.5            0              2.9993406    
   2400000   60             100            100            0.033326007   -4.2321794e-19  0              0.099978022    2.042094e-15   0              9.8605413e-08 -1.5            0              2.9993406    
   2500000   60             100            100            0.033326007   -4.2321793e-19  0              0.099978022    3.1659618e-16  0              1.5287296e-08 -1.5            0              2.9993406    
   2600000   60             100            100            0.033326007   -4.2321842e-19  0              0.099978022    4.188455e-17   0              2.022455e-09  -1.5            0              2.9993406    
   2700000   60             100            100            0.033326007   -4.232169e-19   0              0.099978022    5.4587099e-18  0              2.6358157e-10 -1.5            0              2.9993406    
   2800000   60             100            100            0.033326007   -4.2321804e-19  0              0.099978022    4.3627626e-20  0              2.1066219e-12 -1.5            0              2.9993406    
   2900000   60             100            100            0.033326007   -4.2321794e-19  0              0.099978022    3.0630777e-21  0              1.4790506e-13 -1.5            0              2.9993406    
   3000000   60             100            100            0.033326007   -4.2321791e-19  0              0.099978022    3.5390674e-20  0              1.708889e-12  -1.5            0              2.9993406    
Loop time of 32.3777 on 2 procs for 3000000 steps with 40 atoms

Performance: 80055208.513 ns/day, 0.000 hours/ns, 92656.491 timesteps/s
99.8% CPU use with 2 MPI tasks x 1 OpenMP threads

MPI task timing breakdown:
Section |  min time  |  avg time  |  max time  |%varavg| %total
---------------------------------------------------------------
Pair    | 0.32686    | 4.016      | 7.7051     | 184.1 | 12.40
Neigh   | 0.021447   | 0.022378   | 0.023309   |   0.6 |  0.07
Comm    | 9.0163     | 9.7287     | 10.441     |  22.8 | 30.05
Output  | 0.10968    | 0.10973    | 0.10979    |   0.0 |  0.34
Modify  | 12.176     | 13.697     | 15.218     |  41.1 | 42.30
Other   |            | 4.804      |            |       | 14.84

Nlocal:             20 ave          40 max           0 min
Histogram: 1 0 0 0 0 0 0 0 0 1
Nghost:             26 ave          46 max           6 min
Histogram: 1 0 0 0 0 0 0 0 0 1
Neighs:             30 ave          60 max           0 min
Histogram: 1 0 0 0 0 0 0 0 0 1

Total # of neighbors = 60
Ave neighs/atom = 1.5
Neighbor list builds = 174
Dangerous builds = 0
  using 1 OpenMP thread(s) per MPI task
Lattice spacing in x,y,z = 3 3 3
Created orthogonal box = (-30 -50 -50) to (30 50 50)
  1 by 1 by 2 MPI processor grid
Created 20 atoms
  using lattice units in orthogonal box = (-30 -50 -50) to (30 50 50)
  create_atoms CPU = 0.000 seconds
Lattice spacing in x,y,z = 3 3 3
Created 20 atoms
  using lattice units in orthogonal box = (-30 -50 -50) to (30 50 50)
  create_atoms CPU = 0.001 seconds
Setting atom values ...
  20 settings made for diameter
Setting atom values ...
  20 settings made for mass
Setting atom values ...
  20 settings made for diameter
Setting atom values ...
  20 settings made for mass
20 atoms in group substrate
20 atoms in group slider1
  1 rigid bodies with 20 atoms
Generated 0 of 1 mixed pair_coeff terms from geometric mixing rule
Neighbor list info ...
  update every 1 steps, delay 0 steps, check yes
  max neighbors/atom: 2000, page size: 100000
  master list distance cutoff = 3.1
  ghost atom cutoff = 3.1
  binsize = 1.55, bins = 39 65 65
  1 neighbor lists, perpetual/occasional/extra = 1 0 0
  (1) pair granular, perpetual
      attributes: half, newton on, size, history
      pair build: half/size/bin/newton
      stencil: half/bin/3d
      bin: standard
Setting up Verlet run ...
  Unit style    : micro
  Current step  : 0
  Time step     : 1e-05
Per MPI rank memory allocation (min/avg/max) = 13.1 | 15.41 | 17.72 Mbytes
   Step           Lx             Ly             Lz           Press           Pxx            Pyy            Pzz           KinEng         PotEng          Temp          c_1[1]         c_1[2]         c_1[3]    
         0   60             100            100            0              0              0              0              0              0              0             -1.5            0              6            
    100000   60             100            100            0.027668328   -9.5436849e-23  0              0.083004983    12062.848      0              5.8247175e+11 -1.5            0              3.3142209    
    200000   60             100            100            0.010917446   -6.1214439e-21  0              0.032752337    3479.5486      0              1.6801495e+11 -1.5            0              3.0504028    
    300000   60             100            100            0.0030138323  -9.4171425e-21  0              0.0090414968   447.98477      0              2.1631581e+10 -1.5            0              3.0340179    
    400000   60             100            100            0.0020026106  -1.2288798e-20  0              0.0060078319   222.73587      0              1.0755118e+10 -1.5            0              3.0018502    
    500000   60             100            100            0.039541539   -5.17617e-19    0              0.11862462     57.199366      0              2.7619527e+09 -1.5            0              2.9992523    
    600000   60             100            100            8.9695551e-05 -1.0512315e-20  0              0.00026908665  0.58222581     0              28113601      -1.5            0              3.0000756    
    700000   60             100            100            0.020350214   -2.5621673e-19  0              0.061050642    0.64012544     0              30909366      -1.5            0              2.9995279    
    800000   60             100            100            0.02793138    -3.4787671e-19  0              0.08379414     0.067496872    0              3259182.4     -1.5            0              2.9994155    
    900000   60             100            100            0.032233913   -4.0024243e-19  0              0.096701738    0.020575727    0              993528.22     -1.5            0              2.9993567    
   1000000   60             100            100            0.033426882   -4.1477406e-19  0              0.10028065     0.0033981433   0              164084.18     -1.5            0              2.9993408    
   1100000   60             100            100            0.033539781   -4.1590325e-19  0              0.10061934     0.00028616084  0              13817.683     -1.5            0              2.9993393    
   1200000   60             100            100            0.033445228   -4.1465207e-19  0              0.10033568     6.9202533e-06  0              334.15427     -1.5            0              2.9993405    
   1300000   60             100            100            0.033371214   -4.1369765e-19  0              0.10011364     4.2490655e-07  0              20.517217     -1.5            0              2.9993414    
   1400000   60             100            100            0.033338002   -4.1330437e-19  0              0.10001401     5.7923109e-07  0              27.968997     -1.5            0              2.9993419    
   1500000   60             100            100            0.03332736    -4.1316976e-19  0              0.09998208     1.4830775e-07  0              7.1612503     -1.5            0              2.999342     
   1600000   60             100            100            0.033325234   -4.1314347e-19  0              0.099975702    1.8642355e-08  0              0.90017262    -1.5            0              2.9993421    
   1700000   60             100            100            0.033325351   -4.1314599e-19  0              0.099976054    1.0767684e-09  0              0.051993292   -1.5            0              2.9993421    
   1800000   60             100            100            0.033325712   -4.1315079e-19  0              0.099977136    3.7497597e-12  0              0.00018106248 -1.5            0              2.999342     
   1900000   60             100            100            0.03332592    -4.1315293e-19  0              0.099977761    1.0463597e-11  0              0.00050524964 -1.5            0              2.999342     
   2000000   60             100            100            0.033326001   -4.1315363e-19  0              0.099978003    5.1688841e-12  0              0.00024958691 -1.5            0              2.999342     
   2100000   60             100            100            0.033326023   -4.1315358e-19  0              0.099978069    9.5297101e-13  0              4.6015559e-05 -1.5            0              2.999342     
   2200000   60             100            100            0.033326026   -4.1315462e-19  0              0.099978078    8.9781992e-14  0              4.3352511e-06 -1.5            0              2.999342     
   2300000   60             100            100            0.033326025   -4.1315394e-19  0              0.099978074    2.9615606e-15  0              1.4300316e-07 -1.5            0              2.999342     
   2400000   60             100            100            0.033326023   -4.1315414e-19  0              0.09997807     4.4471695e-17  0              2.147379e-09  -1.5            0              2.999342     
   2500000   60             100            100            0.033326023   -4.1315291e-19  0              0.099978069    1.3382106e-16  0              6.4617399e-09 -1.5            0              2.999342     
   2600000   60             100            100            0.033326023   -4.1315449e-19  0              0.099978068    3.9500283e-17  0              1.9073273e-09 -1.5            0              2.999342     
   2700000   60             100            100            0.033326023   -4.1315449e-19  0              0.099978068    5.80704e-18    0              2.8040118e-10 -1.5            0              2.999342     
   2800000   60             100            100            0.033326023   -4.1315355e-19  0              0.099978068    1.0000012e-19  0              4.828648e-12  -1.5            0              2.999342     
   2900000   60             100            100            0.033326023   -4.1315231e-19  0              0.099978068    1.7149587e-19  0              8.2809219e-12 -1.5            0              2.999342     
   3000000   60             100            100            0.033326023   -4.1315416e-19  0              0.099978068    7.7528775e-21  0              3.7435871e-13 -1.5            0              2.999342     
Loop time of 32.6789 on 2 procs for 3000000 steps with 40 atoms

Performance: 79317302.223 ns/day, 0.000 hours/ns, 91802.433 timesteps/s
99.8% CPU use with 2 MPI tasks x 1 OpenMP threads

MPI task timing breakdown:
Section |  min time  |  avg time  |  max time  |%varavg| %total
---------------------------------------------------------------
Pair    | 0.32434    | 4.0959     | 7.8675     | 186.4 | 12.53
Neigh   | 0.022068   | 0.02291    | 0.023753   |   0.6 |  0.07
Comm    | 9.0757     | 9.7512     | 10.427     |  21.6 | 29.84
Output  | 0.10831    | 0.10839    | 0.10847    |   0.0 |  0.33
Modify  | 12.243     | 13.87      | 15.497     |  43.7 | 42.44
Other   |            | 4.83       |            |       | 14.78

Nlocal:             20 ave          40 max           0 min
Histogram: 1 0 0 0 0 0 0 0 0 1
Nghost:             26 ave          46 max           6 min
Histogram: 1 0 0 0 0 0 0 0 0 1
Neighs:             30 ave          60 max           0 min
Histogram: 1 0 0 0 0 0 0 0 0 1

Total # of neighbors = 60
Ave neighs/atom = 1.5
Neighbor list builds = 174
Dangerous builds = 0
  using 1 OpenMP thread(s) per MPI task
Lattice spacing in x,y,z = 3 3 3
Created orthogonal box = (-30 -50 -50) to (30 50 50)
  1 by 1 by 2 MPI processor grid
Created 20 atoms
  using lattice units in orthogonal box = (-30 -50 -50) to (30 50 50)
  create_atoms CPU = 0.000 seconds
Lattice spacing in x,y,z = 3 3 3
Created 20 atoms
  using lattice units in orthogonal box = (-30 -50 -50) to (30 50 50)
  create_atoms CPU = 0.003 seconds
Setting atom values ...
  20 settings made for diameter
Setting atom values ...
  20 settings made for mass
Setting atom values ...
  20 settings made for diameter
Setting atom values ...
  20 settings made for mass
20 atoms in group substrate
20 atoms in group slider1
  1 rigid bodies with 20 atoms
Generated 0 of 1 mixed pair_coeff terms from geometric mixing rule
Neighbor list info ...
  update every 1 steps, delay 0 steps, check yes
  max neighbors/atom: 2000, page size: 100000
  master list distance cutoff = 3.1
  ghost atom cutoff = 3.1
  binsize = 1.55, bins = 39 65 65
  1 neighbor lists, perpetual/occasional/extra = 1 0 0
  (1) pair granular, perpetual
      attributes: half, newton on, size, history
      pair build: half/size/bin/newton
      stencil: half/bin/3d
      bin: standard
Setting up Verlet run ...
  Unit style    : micro
  Current step  : 0
  Time step     : 1e-05
Per MPI rank memory allocation (min/avg/max) = 13.1 | 15.41 | 17.72 Mbytes
   Step           Lx             Ly             Lz           Press           Pxx            Pyy            Pzz           KinEng         PotEng          Temp          c_1[1]         c_1[2]         c_1[3]    
         0   60             100            100            0              0              0              0              0              0              0             -1.5            0              6            
    100000   60             100            100            0.027669094    1.3327083e-21  0              0.083007281    12063.356      0              5.8249627e+11 -1.5            0              3.3141981    
    200000   60             100            100            0.010919273   -1.1908967e-20  0              0.032757818    3480.4551      0              1.6805872e+11 -1.5            0              3.0503602    
    300000   60             100            100            0.003016919   -1.0725815e-20  0              0.0090507571   448.77969      0              2.1669965e+10 -1.5            0              3.0339837    
    400000   60             100            100            0.0020086898  -1.1525253e-20  0              0.0060260693   223.94716      0              1.0813607e+10 -1.5            0              3.0017914    
    500000   60             100            100            0.033354516   -4.2427183e-19  0              0.10006355     57.38567       0              2.7709486e+09 -1.5            0              2.9993323    
    600000   60             100            100            0.00012244202 -1.0710162e-20  0              0.00036732606  1.0751586      0              51915561      -1.5            0              3.0000527    
    700000   60             100            100            0.025546709   -3.1424769e-19  0              0.076640127    1.1284747      0              54490004      -1.5            0              2.999452     
    800000   60             100            100            0.031706964   -3.8550846e-19  0              0.095120893    0.17712233     0              8552603.5     -1.5            0              2.9993656    
    900000   60             100            100            0.034667063   -4.1993076e-19  0              0.10400119     0.018481764    0              892418.25     -1.5            0              2.9993262    
   1000000   60             100            100            0.034252029   -4.1440297e-19  0              0.10275609     8.4098811e-05  0              4060.8306     -1.5            0              2.9993314    
   1100000   60             100            100            0.033585458   -4.0617471e-19  0              0.10075637     0.00019876369  0              9597.5874     -1.5            0              2.9993401    
   1200000   60             100            100            0.033324207   -4.0309879e-19  0              0.09997262     6.2930047e-05  0              3038.6668     -1.5            0              2.9993435    
   1300000   60             100            100            0.033290106   -4.0272791e-19  0              0.099870318    3.4539914e-06  0              166.78088     -1.5            0              2.999344     
   1400000   60             100            100            0.033309232   -4.0295536e-19  0              0.099927695    3.6576442e-08  0              1.7661455     -1.5            0              2.9993437    
   1500000   60             100            100            0.033322926   -4.0311489e-19  0              0.099968777    1.1708093e-07  0              5.6534189     -1.5            0              2.9993436    
   1600000   60             100            100            0.033326836   -4.031646e-19   0              0.099980507    1.8623306e-08  0              0.8992528     -1.5            0              2.9993435    
   1700000   60             100            100            0.033326838   -4.0316084e-19  0              0.099980515    3.4069161e-10  0              0.016450778   -1.5            0              2.9993435    
   1800000   60             100            100            0.033326311   -4.0315779e-19  0              0.099978932    9.4153638e-11  0              0.0045463422  -1.5            0              2.9993435    
   1900000   60             100            100            0.03332606    -4.0315243e-19  0              0.09997818     5.0415873e-11  0              0.0024344021  -1.5            0              2.9993435    
   2000000   60             100            100            0.033326012   -4.0315388e-19  0              0.099978037    4.2277889e-12  0              0.0002041448  -1.5            0              2.9993435    
   2100000   60             100            100            0.033326024   -4.031555e-19   0              0.099978071    2.2941748e-16  0              1.1077749e-08 -1.5            0              2.9993435    
   2200000   60             100            100            0.033326035   -4.031557e-19   0              0.099978106    7.3373323e-14  0              3.5429352e-06 -1.5            0              2.9993435    
   2300000   60             100            100            0.03332604    -4.0315559e-19  0              0.099978119    1.7073769e-14  0              8.2443119e-07 -1.5            0              2.9993435    
   2400000   60             100            100            0.03332604    -4.0315558e-19  0              0.09997812     6.4575732e-16  0              3.118131e-08  -1.5            0              2.9993435    
   2500000   60             100            100            0.033326039   -4.0315276e-19  0              0.099978118    3.2159114e-17  0              1.5528485e-09 -1.5            0              2.9993435    
   2600000   60             100            100            0.033326039   -4.0315596e-19  0              0.099978118    3.7608868e-17  0              1.8159976e-09 -1.5            0              2.9993435    
   2700000   60             100            100            0.033326039   -4.0315435e-19  0              0.099978118    5.4354362e-18  0              2.6245776e-10 -1.5            0              2.9993435    
   2800000   60             100            100            0.033326039   -4.0315632e-19  0              0.099978118    6.572271e-20   0              3.1735144e-12 -1.5            0              2.9993435    
   2900000   60             100            100            0.033326039   -4.0315525e-19  0              0.099978118    1.1396669e-19  0              5.5030437e-12 -1.5            0              2.9993435    
   3000000   60             100            100            0.033326039   -4.0315559e-19  0              0.099978118    4.1736994e-20  0              2.0153301e-12 -1.5            0              2.9993435    
Loop time of 32.9057 on 2 procs for 3000000 steps with 40 atoms

Performance: 78770630.236 ns/day, 0.000 hours/ns, 91169.711 timesteps/s
99.8% CPU use with 2 MPI tasks x 1 OpenMP threads

MPI task timing breakdown:
Section |  min time  |  avg time  |  max time  |%varavg| %total
---------------------------------------------------------------
Pair    | 0.3177     | 4.1299     | 7.9421     | 187.6 | 12.55
Neigh   | 0.021364   | 0.022257   | 0.023151   |   0.6 |  0.07
Comm    | 9.0057     | 9.7019     | 10.398     |  22.4 | 29.48
Output  | 0.11062    | 0.11067    | 0.11073    |   0.0 |  0.34
Modify  | 12.471     | 14.002     | 15.533     |  40.9 | 42.55
Other   |            | 4.939      |            |       | 15.01

Nlocal:             20 ave          40 max           0 min
Histogram: 1 0 0 0 0 0 0 0 0 1
Nghost:             26 ave          46 max           6 min
Histogram: 1 0 0 0 0 0 0 0 0 1
Neighs:             30 ave          60 max           0 min
Histogram: 1 0 0 0 0 0 0 0 0 1

Total # of neighbors = 60
Ave neighs/atom = 1.5
Neighbor list builds = 174
Dangerous builds = 0
  using 1 OpenMP thread(s) per MPI task
Lattice spacing in x,y,z = 3 3 3
Created orthogonal box = (-30 -50 -50) to (30 50 50)
  1 by 1 by 2 MPI processor grid
Created 20 atoms
  using lattice units in orthogonal box = (-30 -50 -50) to (30 50 50)
  create_atoms CPU = 0.000 seconds
Lattice spacing in x,y,z = 3 3 3
Created 20 atoms
  using lattice units in orthogonal box = (-30 -50 -50) to (30 50 50)
  create_atoms CPU = 0.002 seconds
Setting atom values ...
  20 settings made for diameter
Setting atom values ...
  20 settings made for mass
Setting atom values ...
  20 settings made for diameter
Setting atom values ...
  20 settings made for mass
20 atoms in group substrate
20 atoms in group slider1
  1 rigid bodies with 20 atoms
Generated 0 of 1 mixed pair_coeff terms from geometric mixing rule
Neighbor list info ...
  update every 1 steps, delay 0 steps, check yes
  max neighbors/atom: 2000, page size: 100000
  master list distance cutoff = 3.1
  ghost atom cutoff = 3.1
  binsize = 1.55, bins = 39 65 65
  1 neighbor lists, perpetual/occasional/extra = 1 0 0
  (1) pair granular, perpetual
      attributes: half, newton on, size, history
      pair build: half/size/bin/newton
      stencil: half/bin/3d
      bin: standard
Setting up Verlet run ...
  Unit style    : micro
  Current step  : 0
  Time step     : 1e-05
Per MPI rank memory allocation (min/avg/max) = 13.1 | 15.41 | 17.72 Mbytes
   Step           Lx             Ly             Lz           Press           Pxx            Pyy            Pzz           KinEng         PotEng          Temp          c_1[1]         c_1[2]         c_1[3]    
         0   60             100            100            0              0              0              0              0              0              0             -1.5            0              6            
    100000   60             100            100            0.027669908   -1.3738447e-20  0              0.083009723    12063.895      0              5.8252232e+11 -1.5            0              3.3141739    
    200000   60             100            100            0.010921208   -5.9605269e-21  0              0.032763625    3481.4154      0              1.6810509e+11 -1.5            0              3.0503151    
    300000   60             100            100            0.0030201814  -1.1923477e-20  0              0.0090605442   449.62039      0              2.1710559e+10 -1.5            0              3.0339476    
    400000   60             100            100            0.0020151279  -1.1759612e-20  0              0.0060453836   225.23281      0              1.0875686e+10 -1.5            0              3.0017291    
    500000   60             100            100            0.027151121   -3.4682776e-19  0              0.081453362    57.273516      0              2.7655331e+09 -1.5            0              2.9994172    
    600000   60             100            100            0.00015731168 -9.8562584e-21  0              0.00047193505  1.7609398      0              85029480      -1.5            0              3.0000202    
    700000   60             100            100            0.032771758   -3.9197098e-19  0              0.098315274    1.3856299      0              66907111      -1.5            0              2.9993542    
    800000   60             100            100            0.036699092   -4.3454219e-19  0              0.11009728     0.14490889     0              6997131.7     -1.5            0              2.9993022    
    900000   60             100            100            0.035887632   -4.2376704e-19  0              0.1076629      6.8234463e-05  0              3294.798      -1.5            0              2.9993119    
   1000000   60             100            100            0.033628882   -3.9677902e-19  0              0.10088665     0.0030758742   0              148522.96     -1.5            0              2.9993411    
   1100000   60             100            100            0.033064731   -3.9002722e-19  0              0.099194193    0.00019852308  0              9585.969      -1.5            0              2.9993485    
   1200000   60             100            100            0.033214251   -3.9184098e-19  0              0.099642752    1.3630296e-05  0              658.1582      -1.5            0              2.9993466    
   1300000   60             100            100            0.033331301   -3.9322038e-19  0              0.099993902    8.4226659e-06  0              406.70039     -1.5            0              2.999345     
   1400000   60             100            100            0.033342599   -3.9334556e-19  0              0.1000278      7.9240164e-08  0              3.8262239     -1.5            0              2.9993449    
   1500000   60             100            100            0.033329798   -3.9319335e-19  0              0.099989395    1.0038063e-07  0              4.8470215     -1.5            0              2.9993451    
   1600000   60             100            100            0.033324826   -3.9313331e-19  0              0.099974478    1.5213421e-08  0              0.73460166    -1.5            0              2.9993451    
   1700000   60             100            100            0.033325219   -3.9313514e-19  0              0.099975658    9.3370086e-11  0              0.0045085073  -1.5            0              2.9993451    
   1800000   60             100            100            0.033325998   -3.9314779e-19  0              0.099977994    3.71931e-10    0              0.017959217   -1.5            0              2.9993451    
   1900000   60             100            100            0.033326154   -3.9315083e-19  0              0.099978462    1.5077179e-11  0              0.00072802302 -1.5            0              2.9993451    
   2000000   60             100            100            0.033326091   -3.9315035e-19  0              0.099978273    2.4453154e-12  0              0.00011807553 -1.5            0              2.9993451    
   2100000   60             100            100            0.033326053   -3.931503e-19   0              0.099978158    8.9541161e-13  0              4.3236222e-05 -1.5            0              2.9993451    
   2200000   60             100            100            0.033326051   -3.9315034e-19  0              0.099978153    1.8564938e-15  0              8.9643442e-08 -1.5            0              2.9993451    
   2300000   60             100            100            0.033326056   -3.9314955e-19  0              0.099978167    1.3561553e-14  0              6.5483886e-07 -1.5            0              2.9993451    
   2400000   60             100            100            0.033326057   -3.9314956e-19  0              0.099978172    1.3883987e-15  0              6.7040807e-08 -1.5            0              2.9993451    
   2500000   60             100            100            0.033326057   -3.9314977e-19  0              0.099978171    3.3347096e-17  0              1.6102119e-09 -1.5            0              2.9993451    
[...]
   2900000   60             100            100            0.033326843   -1.0179146e-19  0              0.099980529    2.9269073e-20  0              1.4132988e-12 -1.5            0              2.9994159    
   3000000   60             100            100            0.033326843   -1.0179098e-19  0              0.099980529    6.8576526e-20  0              3.311315e-12  -1.5            0              2.9994159    
Loop time of 32.4484 on 2 procs for 3000000 steps with 40 atoms

Performance: 79880679.334 ns/day, 0.000 hours/ns, 92454.490 timesteps/s
99.8% CPU use with 2 MPI tasks x 1 OpenMP threads

MPI task timing breakdown:
Section |  min time  |  avg time  |  max time  |%varavg| %total
---------------------------------------------------------------
Pair    | 0.32992    | 4.0182     | 7.7064     | 184.0 | 12.38
Neigh   | 0.022349   | 0.023198   | 0.024048   |   0.6 |  0.07
Comm    | 9.0229     | 9.7247     | 10.426     |  22.5 | 29.97
Output  | 0.11015    | 0.11021    | 0.11027    |   0.0 |  0.34
Modify  | 12.24      | 13.82      | 15.4       |  42.5 | 42.59
Other   |            | 4.752      |            |       | 14.64

Nlocal:             20 ave          40 max           0 min
Histogram: 1 0 0 0 0 0 0 0 0 1
Nghost:             26 ave          46 max           6 min
Histogram: 1 0 0 0 0 0 0 0 0 1
Neighs:             30 ave          60 max           0 min
Histogram: 1 0 0 0 0 0 0 0 0 1

Total # of neighbors = 60
Ave neighs/atom = 1.5
Neighbor list builds = 174
Dangerous builds = 0
  using 1 OpenMP thread(s) per MPI task
Lattice spacing in x,y,z = 3 3 3
Created orthogonal box = (-30 -50 -50) to (30 50 50)
  1 by 1 by 2 MPI processor grid
Created 20 atoms
  using lattice units in orthogonal box = (-30 -50 -50) to (30 50 50)
  create_atoms CPU = 0.000 seconds
Lattice spacing in x,y,z = 3 3 3
Created 20 atoms
  using lattice units in orthogonal box = (-30 -50 -50) to (30 50 50)
  create_atoms CPU = 0.003 seconds
Setting atom values ...
  20 settings made for diameter
Setting atom values ...
  20 settings made for mass
Setting atom values ...
  20 settings made for diameter
Setting atom values ...
  20 settings made for mass
20 atoms in group substrate
20 atoms in group slider1
  1 rigid bodies with 20 atoms
Generated 0 of 1 mixed pair_coeff terms from geometric mixing rule
Neighbor list info ...
  update every 1 steps, delay 0 steps, check yes
  max neighbors/atom: 2000, page size: 100000
  master list distance cutoff = 3.1
  ghost atom cutoff = 3.1
  binsize = 1.55, bins = 39 65 65
  1 neighbor lists, perpetual/occasional/extra = 1 0 0
  (1) pair granular, perpetual
      attributes: half, newton on, size, history
      pair build: half/size/bin/newton
      stencil: half/bin/3d
      bin: standard
Setting up Verlet run ...
  Unit style    : micro
  Current step  : 0
  Time step     : 1e-05
Per MPI rank memory allocation (min/avg/max) = 13.1 | 15.41 | 17.72 Mbytes
   Step           Lx             Ly             Lz           Press           Pxx            Pyy            Pzz           KinEng         PotEng          Temp          c_1[1]         c_1[2]         c_1[3]    
         0   60             100            100            0              0              0              0              0              0              0             -1.5            0              6            
    100000   60             100            100            0.027709466   -2.7233337e-21  0              0.083128398    12090.106      0              5.8378795e+11 -1.5            0              3.3130008    
    200000   60             100            100            0.011015047   -9.7209331e-21  0              0.03304514     3528.0676      0              1.7035776e+11 -1.5            0              3.0481236    
    300000   60             100            100            0.0031789385  -1.1756577e-20  0              0.0095368155   491.23092      0              2.3719783e+10 -1.5            0              3.0321478    
    400000   60             100            100            0.13798738    -3.8676718e-19  0              0.41396213     242.59877      0              1.1714226e+10 -1.5            0              2.9985195    
    500000   60             100            100           -0.0002919374  -9.8715804e-21  0             -0.00087581221  6.4324257      0              3.1059881e+08 -1.5            0              3.0022586    
    600000   60             100            100            0.000159121   -8.1413841e-21  0              0.00047736301  1.8009216      0              86960060      -1.5            0              3.0000892    
    700000   60             100            100            0.051878738   -1.3621147e-19  0              0.15563621     0.38678275     0              18676355      -1.5            0              2.9992202    
    800000   60             100            100            0.036967509   -9.7742776e-20  0              0.11090253     0.15521981     0              7495009.3     -1.5            0              2.999379     
    900000   60             100            100            0.032589409   -8.6485207e-20  0              0.097768227    0.025079505    0              1210999.5     -1.5            0              2.9994288    
   1000000   60             100            100            0.032504652   -8.6381628e-20  0              0.097513957    0.0012775082   0              61686.301     -1.5            0              2.9994297    
   1100000   60             100            100            0.032950527   -8.7363414e-20  0              0.09885158     3.0792158e-07  0              14.868431     -1.5            0              2.9994244    
   1200000   60             100            100            0.033219018   -8.8008607e-20  0              0.099657055    2.6601027e-05  0              1284.4684     -1.5            0              2.9994213    
   1300000   60             100            100            0.03331503    -8.8254986e-20  0              0.09994509     8.5769797e-06  0              414.15166     -1.5            0              2.9994202    
   1400000   60             100            100            0.03333458    -8.8301236e-20  0              0.10000374     1.0154692e-06  0              49.033374     -1.5            0              2.9994199    
   1500000   60             100            100            0.033332972   -8.8298138e-20  0              0.099998916    3.6355103e-08  0              1.7554578     -1.5            0              2.99942      
   1600000   60             100            100            0.033329391   -8.8288524e-20  0              0.099988174    6.3876479e-10  0              0.030843666   -1.5            0              2.99942      
   1700000   60             100            100            0.033327523   -8.8282612e-20  0              0.09998257     1.6411859e-09  0              0.079246993   -1.5            0              2.99942      
   1800000   60             100            100            0.03332692    -8.8281893e-20  0              0.09998076     4.0700272e-10  0              0.019652705   -1.5            0              2.99942      
   1900000   60             100            100            0.033326821   -8.8281632e-20  0              0.099980464    3.930094e-11   0              0.0018977017  -1.5            0              2.99942      
   2000000   60             100            100            0.033326846   -8.8281629e-20  0              0.099980537    8.4996443e-13  0              4.1041741e-05 -1.5            0              2.99942      
   2100000   60             100            100            0.033326873   -8.827684e-20   0              0.099980619    9.6868364e-14  0              4.6774266e-06 -1.5            0              2.99942      
   2200000   60             100            100            0.033326886   -8.82806e-20    0              0.099980657    9.3607476e-14  0              4.51997e-06   -1.5            0              2.99942      
   2300000   60             100            100            0.033326889   -8.8279897e-20  0              0.099980668    1.8518007e-14  0              8.941683e-07  -1.5            0              2.99942      
   2400000   60             100            100            0.03332689    -8.8281276e-20  0              0.099980669    1.4237989e-15  0              6.8750152e-08 -1.5            0              2.99942      
   2500000   60             100            100            0.033326889   -8.8281588e-20  0              0.099980668    1.3057448e-17  0              6.3049743e-10 -1.5            0              2.99942      
   2600000   60             100            100            0.033326889   -8.8280184e-20  0              0.099980668    8.2764895e-18  0              3.9964206e-10 -1.5            0              2.99942      
   2700000   60             100            100            0.033326889   -8.8281447e-20  0              0.099980668    5.9704579e-18  0              2.8829204e-10 -1.5            0              2.99942      
   2800000   60             100            100            0.033326889   -8.8281135e-20  0              0.099980668    8.1479119e-19  0              3.934335e-11  -1.5            0              2.99942      
   2900000   60             100            100            0.033326889   -8.8277399e-20  0              0.099980668    3.551371e-20   0              1.7148299e-12 -1.5            0              2.99942      
   3000000   60             100            100            0.033326889   -8.8278353e-20  0              0.099980668    1.7083197e-22  0              8.2488646e-15 -1.5            0              2.99942      
Loop time of 32.6358 on 2 procs for 3000000 steps with 40 atoms

Performance: 79422079.747 ns/day, 0.000 hours/ns, 91923.703 timesteps/s
99.8% CPU use with 2 MPI tasks x 1 OpenMP threads

MPI task timing breakdown:
Section |  min time  |  avg time  |  max time  |%varavg| %total
---------------------------------------------------------------
Pair    | 0.3097     | 4.1192     | 7.9286     | 187.7 | 12.62
Neigh   | 0.021924   | 0.022776   | 0.023628   |   0.6 |  0.07
Comm    | 9.0336     | 9.7442     | 10.455     |  22.8 | 29.86
Output  | 0.11109    | 0.11113    | 0.11118    |   0.0 |  0.34
Modify  | 12.163     | 13.835     | 15.506     |  44.9 | 42.39
Other   |            | 4.804      |            |       | 14.72

Nlocal:             20 ave          40 max           0 min
Histogram: 1 0 0 0 0 0 0 0 0 1
Nghost:             26 ave          46 max           6 min
Histogram: 1 0 0 0 0 0 0 0 0 1
Neighs:             30 ave          60 max           0 min
Histogram: 1 0 0 0 0 0 0 0 0 1

Total # of neighbors = 60
Ave neighs/atom = 1.5
Neighbor list builds = 174
Dangerous builds = 0
  using 1 OpenMP thread(s) per MPI task
Lattice spacing in x,y,z = 3 3 3
Created orthogonal box = (-30 -50 -50) to (30 50 50)
  1 by 1 by 2 MPI processor grid
Created 20 atoms
  using lattice units in orthogonal box = (-30 -50 -50) to (30 50 50)
  create_atoms CPU = 0.000 seconds
Lattice spacing in x,y,z = 3 3 3
Created 20 atoms
  using lattice units in orthogonal box = (-30 -50 -50) to (30 50 50)
  create_atoms CPU = 0.001 seconds
Setting atom values ...
  20 settings made for diameter
Setting atom values ...
  20 settings made for mass
Setting atom values ...
  20 settings made for diameter
Setting atom values ...
  20 settings made for mass
20 atoms in group substrate
20 atoms in group slider1
  1 rigid bodies with 20 atoms
Generated 0 of 1 mixed pair_coeff terms from geometric mixing rule
Neighbor list info ...
  update every 1 steps, delay 0 steps, check yes
  max neighbors/atom: 2000, page size: 100000
  master list distance cutoff = 3.1
  ghost atom cutoff = 3.1
  binsize = 1.55, bins = 39 65 65
  1 neighbor lists, perpetual/occasional/extra = 1 0 0
  (1) pair granular, perpetual
      attributes: half, newton on, size, history
      pair build: half/size/bin/newton
      stencil: half/bin/3d
      bin: standard
Setting up Verlet run ...
  Unit style    : micro
  Current step  : 0
  Time step     : 1e-05
Per MPI rank memory allocation (min/avg/max) = 13.1 | 15.41 | 17.72 Mbytes
   Step           Lx             Ly             Lz           Press           Pxx            Pyy            Pzz           KinEng         PotEng          Temp          c_1[1]         c_1[2]         c_1[3]    
         0   60             100            100            0              0              0              0              0              0              0             -1.5            0              6            
    100000   60             100            100            0.027711781   -1.8406211e-21  0              0.083135343    12091.64       0              5.8386201e+11 -1.5            0              3.3129324    
    200000   60             100            100            0.011020532   -1.0358117e-20  0              0.033061595    3530.8004      0              1.7048972e+11 -1.5            0              3.0479951    
    300000   60             100            100            0.0031882455  -1.0622021e-20  0              0.0095647364   493.71235      0              2.3839602e+10 -1.5            0              3.0320398    
    400000   60             100            100            0.16549924    -3.6381969e-19  0              0.49649773     229.3912       0              1.107648e+10  -1.5            0              2.9983377    
    500000   60             100            100           -0.00025781043 -1.2475598e-20  0             -0.00077343128  4.9837897      0              2.4064937e+08 -1.5            0              3.0023396    
    600000   60             100            100            0.0009736526  -1.0012518e-20  0              0.0029209578   4.5619081      0              2.2027821e+08 -1.5            0              2.9999554    
    700000   60             100            100            0.027861695   -6.3448725e-20  0              0.083585084    1.3723312      0              66264961      -1.5            0              2.9994874    
    800000   60             100            100            0.03545506    -7.9105694e-20  0              0.10636518     0.18465927     0              8916535.2     -1.5            0              2.9993995    
    900000   60             100            100            0.033343227   -7.4879949e-20  0              0.10002968     0.02712715     0              1309873       -1.5            0              2.9994239    
   1000000   60             100            100            0.03294207    -7.4138999e-20  0              0.098826209    0.0031657586   0              152863.15     -1.5            0              2.9994287    
   1100000   60             100            100            0.033057853   -7.4258742e-20  0              0.099173559    0.00024751719  0              11951.719     -1.5            0              2.9994274    
   1200000   60             100            100            0.03319702    -7.4518489e-20  0              0.09959106     8.9355205e-06  0              431.46431     -1.5            0              2.9994258    
   1300000   60             100            100            0.033275718   -7.4687487e-20  0              0.099827153    1.3123012e-08  0              0.63366327    -1.5            0              2.9994249    
   1400000   60             100            100            0.033309982   -7.4759419e-20  0              0.099929947    2.3213252e-07  0              11.208849     -1.5            0              2.9994245    
   1500000   60             100            100            0.033322436   -7.478592e-20   0              0.099967308    9.568558e-08   0              4.6203142     -1.5            0              2.9994244    
   1600000   60             100            100            0.033326196   -7.4788961e-20  0              0.099978588    2.0552992e-08  0              0.99243041    -1.5            0              2.9994243    
   1700000   60             100            100            0.033327046   -7.4793564e-20  0              0.099981139    3.0035758e-09  0              0.14503193    -1.5            0              2.9994243    
   1800000   60             100            100            0.033327111   -7.4796196e-20  0              0.099981332    3.0814166e-10  0              0.014879058   -1.5            0              2.9994243    
   1900000   60             100            100            0.033327039   -7.4795573e-20  0              0.099981118    1.9539233e-11  0              0.00094347964 -1.5            0              2.9994243    
   2000000   60             100            100            0.033326982   -7.4796048e-20  0              0.099980947    3.6665025e-13  0              1.7704229e-05 -1.5            0              2.9994243    
   2100000   60             100            100            0.033326954   -7.4794171e-20  0              0.099980861    3.5934797e-14  0              1.7351627e-06 -1.5            0              2.9994243    
   2200000   60             100            100            0.033326942   -7.4795438e-20  0              0.099980826    4.4001432e-14  0              2.1246717e-06 -1.5            0              2.9994243    
   2300000   60             100            100            0.033326938   -7.4794798e-20  0              0.099980814    1.3399204e-14  0              6.4699959e-07 -1.5            0              2.9994243    
   2400000   60             100            100            0.033326937   -7.4795562e-20  0              0.09998081     2.4695994e-15  0              1.1924812e-07 -1.5            0              2.9994243    
   2500000   60             100            100            0.033326937   -7.4795698e-20  0              0.09998081     3.1576252e-16  0              1.5247042e-08 -1.5            0              2.9994243    
   2600000   60             100            100            0.033326937   -7.4793375e-20  0              0.09998081     2.6663182e-17  0              1.2874696e-09 -1.5            0              2.9994243    
   2700000   60             100            100            0.033326937   -7.479516e-20   0              0.09998081     2.6653795e-18  0              1.2870164e-10 -1.5            0              2.9994243    
   2800000   60             100            100            0.033326937   -7.4795638e-20  0              0.09998081     1.4529595e-20  0              7.0158213e-13 -1.5            0              2.9994243    
   2900000   60             100            100            0.033326937   -7.4795672e-20  0              0.09998081     1.2837899e-19  0              6.198962e-12  -1.5            0              2.9994243    
   3000000   60             100            100            0.033326937   -7.4795677e-20  0              0.09998081     9.6324693e-21  0              4.6511747e-13 -1.5            0              2.9994243    
Loop time of 32.3939 on 2 procs for 3000000 steps with 40 atoms

Performance: 80015050.572 ns/day, 0.000 hours/ns, 92610.012 timesteps/s
99.8% CPU use with 2 MPI tasks x 1 OpenMP threads

MPI task timing breakdown:
Section |  min time  |  avg time  |  max time  |%varavg| %total
---------------------------------------------------------------
Pair    | 0.33203    | 3.9725     | 7.6129     | 182.7 | 12.26
Neigh   | 0.021458   | 0.022394   | 0.02333    |   0.6 |  0.07
Comm    | 9.0178     | 9.76       | 10.502     |  23.8 | 30.13
Output  | 0.1102     | 0.11027    | 0.11034    |   0.0 |  0.34
Modify  | 12.267     | 13.651     | 15.036     |  37.5 | 42.14
Other   |            | 4.878      |            |       | 15.06

Nlocal:             20 ave          40 max           0 min
Histogram: 1 0 0 0 0 0 0 0 0 1
Nghost:             26 ave          46 max           6 min
Histogram: 1 0 0 0 0 0 0 0 0 1
Neighs:             30 ave          60 max           0 min
Histogram: 1 0 0 0 0 0 0 0 0 1

Total # of neighbors = 60
Ave neighs/atom = 1.5
Neighbor list builds = 174
Dangerous builds = 0
  using 1 OpenMP thread(s) per MPI task
Total wall time: 0:19:33
