LAMMPS (23 Jun 2022 - Update 1)
  using 1 OpenMP thread(s) per MPI task
Lattice spacing in x,y,z = 4 4 4
Created orthogonal box = (-6000 -100 -100) to (6000 100 100)
  2 by 1 by 1 MPI processor grid
Created 3000 atoms
  using lattice units in orthogonal box = (-6000 -100 -100) to (6000 100 100)
  create_atoms CPU = 0.002 seconds
Lattice spacing in x,y,z = 3 3 3
Created 2001 atoms
  using lattice units in orthogonal box = (-6000 -100 -100) to (6000 100 100)
  create_atoms CPU = 0.001 seconds
Setting atom values ...
  3000 settings made for diameter
Setting atom values ...
  3000 settings made for mass
Setting atom values ...
  2001 settings made for diameter
Setting atom values ...
  2001 settings made for mass
3000 atoms in group substrate
2001 atoms in group slider1
  1 rigid bodies with 2001 atoms
Generated 0 of 1 mixed pair_coeff terms from geometric mixing rule
Neighbor list info ...
  update every 1 steps, delay 0 steps, check yes
  max neighbors/atom: 2000, page size: 100000
  master list distance cutoff = 3.1
  ghost atom cutoff = 3.1
  binsize = 1.55, bins = 7742 130 130
  1 neighbor lists, perpetual/occasional/extra = 1 0 0
  (1) pair granular, perpetual
      attributes: half, newton on, size, history
      pair build: half/size/bin/newton
      stencil: half/bin/3d
      bin: standard
Setting up Verlet run ...
  Unit style    : micro
  Current step  : 0
  Time step     : 1e-05
Per MPI rank memory allocation (min/avg/max) = 282.5 | 282.5 | 282.5 Mbytes
   Step           Lx             Ly             Lz           Press           Pxx            Pyy            Pzz           KinEng         PotEng          Temp          c_1[1]         c_1[2]         c_1[3]    
         0   12000          200            200            0              0              0              0              0              0              0              1.1971759e-13  0              6            
    100000   12000          200            200            0.0034115593   8.8857294e-34  0              0.010234678    1181399        0              5.7045532e+10  1.1971759e-13  0              3.3247941    
    200000   12000          200            200            0.0012564196  -2.6926384e-35  0              0.0037692588   305856.16      0              1.4768699e+10  1.1971759e-13  0              3.0690294    
    300000   12000          200            200            0.00020287358  9.5371019e-41  0              0.00060862073  14915.103      0              7.2019696e+08  1.1971759e-13  0              3.0452957    
    400000   12000          200            200           -7.5698054e-05  2.6926548e-35  0             -0.00022709416  2919.0804      0              1.4095195e+08  1.1971759e-13  0              3.0092457    
    500000   12000          200            200            0.010218967    5.3852979e-35  0              0.030656901    2686.3355      0              1.2971353e+08  1.1971759e-13  0              2.9971364    
    600000   12000          200            200            0.0075328744   2.6926496e-35  0              0.022598623    35.852811      0              1731203.9      1.1971759e-13  0              2.9976492    
    700000   12000          200            200            0.0036424891   3.8042272e-41  0              0.010927467    67.551951      0              3261841.9      1.1971759e-13  0              2.9985564    
    800000   12000          200            200            0.0037629308  -1.3463193e-35  0              0.011288792    1.2433931      0              60039.003      1.1971759e-13  0              2.998521     
    900000   12000          200            200            0.0041872525  -4.0389649e-35  0              0.012561758    1.479772       0              71452.896      1.1971759e-13  0              2.9984118    
   1000000   12000          200            200            0.0042238895   1.3463248e-35  0              0.012671669    0.0010160992   0              49.063794      1.1971759e-13  0              2.998403     
   1100000   12000          200            200            0.0041725597   6.7316226e-36  0              0.012517679    0.024572949    0              1186.5398      1.1971759e-13  0              2.998416     
   1200000   12000          200            200            0.004159872    6.7316154e-36  0              0.012479616    0.00081708608  0              39.454162      1.1971759e-13  0              2.9984192    
   1300000   12000          200            200            0.0041647118   1.3463228e-35  0              0.012494135    0.00026901896  0              12.989963      1.1971759e-13  0              2.998418     
   1400000   12000          200            200            0.0041671535   3.3658098e-36  0              0.012501461    4.0368295e-05  0              1.9492405      1.1971759e-13  0              2.9984174    
   1500000   12000          200            200            0.0041668893  -1.6829028e-35  0              0.012500668    1.4252852e-06  0              0.06882192     1.1971759e-13  0              2.9984174    
   1600000   12000          200            200            0.0041665235  -6.7316088e-36  0              0.01249957     1.0624777e-06  0              0.051303246    1.1971759e-13  0              2.9984175    
   1700000   12000          200            200            0.0041665017  -1.3463222e-35  0              0.012499505    2.2068768e-12  0              1.0656218e-07  1.1971759e-13  0              2.9984175    
   1800000   12000          200            200            0.004166547    4.0136284e-42  0              0.012499641    1.8735439e-08  0              0.00090466732  1.1971759e-13  0              2.9984175    
   1900000   12000          200            200            0.0041665569   3.3658106e-36  0              0.012499671    4.6148867e-10  0              2.2283636e-05  1.1971759e-13  0              2.9984175    
   2000000   12000          200            200            0.0041665525  -1.0097416e-35  0              0.012499657    2.209892e-10   0              1.0670777e-05  1.1971759e-13  0              2.9984175    
   2100000   12000          200            200            0.0041665504  -3.3658025e-36  0              0.012499651    2.6723469e-11  0              1.2903807e-06  1.1971759e-13  0              2.9984175    
   2200000   12000          200            200            0.0041665507   1.0097424e-35  0              0.012499652    1.3761112e-12  0              6.6447486e-08  1.1971759e-13  0              2.9984175    
   2300000   12000          200            200            0.004166551   -1.6829029e-35  0              0.012499653    7.5742632e-13  0              3.6573406e-08  1.1971759e-13  0              2.9984175    
   2400000   12000          200            200            0.004166551    6.7316171e-36  0              0.012499653    3.8658358e-16  0              1.8666738e-11  1.1971759e-13  0              2.9984175    
   2500000   12000          200            200            0.004166551   -1.6829029e-35  0              0.012499653    1.4187965e-14  0              6.8508606e-10  1.1971759e-13  0              2.9984175    
   2600000   12000          200            200            0.004166551    6.7316171e-36  0              0.012499653    3.0860031e-16  0              1.4901204e-11  1.1971759e-13  0              2.9984175    
   2700000   12000          200            200            0.004166551    6.7316171e-36  0              0.012499653    2.3849446e-16  0              1.1516044e-11  1.1971759e-13  0              2.9984175    
   2800000   12000          200            200            0.004166551   -1.3463222e-35  0              0.012499653    3.2046799e-17  0              1.5474252e-12  1.1971759e-13  0              2.9984175    
   2900000   12000          200            200            0.004166551   -1.3463222e-35  0              0.012499653    3.2699223e-18  0              1.5789285e-13  1.1971759e-13  0              2.9984175    
   3000000   12000          200            200            0.004166551   -1.0097415e-35  0              0.012499653    7.9151863e-18  0              3.8219602e-13  1.1971759e-13  0              2.9984175    
Loop time of 802.687 on 2 procs for 3000000 steps with 5001 atoms

Performance: 3229154.064 ns/day, 0.000 hours/ns, 3737.447 timesteps/s
99.9% CPU use with 2 MPI tasks x 1 OpenMP threads

MPI task timing breakdown:
Section |  min time  |  avg time  |  max time  |%varavg| %total
---------------------------------------------------------------
Pair    | 246.33     | 247.13     | 247.92     |   5.1 | 30.79
Neigh   | 15.357     | 15.358     | 15.358     |   0.0 |  1.91
Comm    | 42.514     | 43.5       | 44.485     |  14.9 |  5.42
Output  | 0.60071    | 0.60078    | 0.60085    |   0.0 |  0.07
Modify  | 436.01     | 436.15     | 436.29     |   0.7 | 54.34
Other   |            | 59.95      |            |       |  7.47

Nlocal:         2500.5 ave        2501 max        2500 min
Histogram: 1 0 0 0 0 0 0 0 0 1
Nghost:            2.5 ave           3 max           2 min
Histogram: 1 0 0 0 0 0 0 0 0 1
Neighs:         1250.5 ave        1251 max        1250 min
Histogram: 1 0 0 0 0 0 0 0 0 1

Total # of neighbors = 2501
Ave neighs/atom = 0.50009998
Neighbor list builds = 168
Dangerous builds = 0
  using 1 OpenMP thread(s) per MPI task
Lattice spacing in x,y,z = 4.01 4.01 4.01
Created orthogonal box = (-6015 -100 -100) to (6015 100 100)
  2 by 1 by 1 MPI processor grid
Created 3000 atoms
  using lattice units in orthogonal box = (-6015 -100 -100) to (6015 100 100)
  create_atoms CPU = 0.002 seconds
Lattice spacing in x,y,z = 3 3 3
Created 2001 atoms
  using lattice units in orthogonal box = (-6015 -100 -100) to (6015 100 100)
  create_atoms CPU = 0.001 seconds
Setting atom values ...
  3000 settings made for diameter
Setting atom values ...
  3000 settings made for mass
Setting atom values ...
  2001 settings made for diameter
Setting atom values ...
  2001 settings made for mass
3000 atoms in group substrate
2001 atoms in group slider1
  1 rigid bodies with 2001 atoms
Generated 0 of 1 mixed pair_coeff terms from geometric mixing rule
Neighbor list info ...
  update every 1 steps, delay 0 steps, check yes
  max neighbors/atom: 2000, page size: 100000
  master list distance cutoff = 3.1
  ghost atom cutoff = 3.1
  binsize = 1.55, bins = 7762 130 130
  1 neighbor lists, perpetual/occasional/extra = 1 0 0
  (1) pair granular, perpetual
      attributes: half, newton on, size, history
      pair build: half/size/bin/newton
      stencil: half/bin/3d
      bin: standard
Setting up Verlet run ...
  Unit style    : micro
  Current step  : 0
  Time step     : 1e-05
Per MPI rank memory allocation (min/avg/max) = 283.2 | 283.2 | 283.2 Mbytes
   Step           Lx             Ly             Lz           Press           Pxx            Pyy            Pzz           KinEng         PotEng          Temp          c_1[1]         c_1[2]         c_1[3]    
         0   12030          200            200            0              0              0              0              0              0              0              1.1971759e-13  0              6            
    100000   12030          200            200            0.0033767265   2.6859443e-35  0              0.010130179    1168630.6      0              5.6428987e+10  1.1971759e-13  0              3.3265659    
    200000   12030          200            200            0.0011940714   2.2887551e-41  0              0.0035822141   283969.94      0              1.3711892e+10  1.1971759e-13  0              3.0741775    
    300000   12030          200            200            8.2075143e-05  1.1079658e-42  0              0.00024622543  2768.813       0              1.3369607e+08  1.1971759e-13  0              3.0452478    
    400000   12030          200            200            0.00089852557  9.1182582e-05  0              0.0026043941   17650.632      0              8.5228584e+08  1.1971759e-13  0              2.9981528    
    500000   12030          200            200            0.0065683897   0.0028959624   0              0.016809207    2902.3168      0              1.4014249e+08  1.1971759e-13  0              2.9946063    
    600000   12030          200            200            0.0058241419   0.0032027443   0              0.014269681    373.95086      0              18056749       1.1971759e-13  0              2.9949787    
    700000   12030          200            200            0.0052505895   0.0026354586   0              0.01311631     50.238281      0              2425826.8      1.1971759e-13  0              2.995206     
    800000   12030          200            200            0.0047212323   0.0023855467   0              0.01177815     0.52504533     0              25352.56       1.1971759e-13  0              2.9954515    
    900000   12030          200            200            0.0050524426   0.0025007592   0              0.012656569    0.3962697      0              19134.446      1.1971759e-13  0              2.9952849    
   1000000   12030          200            200            0.0049833588   0.00248868     0              0.012461396    0.13558437     0              6546.8839      1.1971759e-13  0              2.9953223    
   1100000   12030          200            200            0.0049708915   0.0024865401   0              0.012426134    0.0052489388   0              253.45247      1.1971759e-13  0              2.9953286    
   1200000   12030          200            200            0.004985515    0.00248917     0              0.012467375    0.00034598012  0              16.706142      1.1971759e-13  0              2.9953209    
   1300000   12030          200            200            0.0049809709   0.0024883442   0              0.012454569    0.00031143144  0              15.03791       1.1971759e-13  0              2.9953233    
   1400000   12030          200            200            0.0049809416   0.002488345    0              0.01245448     2.5130554e-05  0              1.2134645      1.1971759e-13  0              2.9953233    
   1500000   12030          200            200            0.0049815644   0.0024884559   0              0.012456237    5.5846148e-08  0              0.0026966106   1.1971759e-13  0              2.995323     
   1600000   12030          200            200            0.0049813033   0.0024884086   0              0.012455501    5.9869585e-07  0              0.02890888     1.1971759e-13  0              2.9953231    
   1700000   12030          200            200            0.0049813308   0.0024884139   0              0.012455578    8.8544827e-08  0              0.0042755128   1.1971759e-13  0              2.9953231    
   1800000   12030          200            200            0.0049813541   0.002488418    0              0.012455644    5.1687784e-10  0              2.4958181e-05  1.1971759e-13  0              2.9953231    
   1900000   12030          200            200            0.0049813405   0.0024884155   0              0.012455606    9.1701287e-10  0              4.427927e-05   1.1971759e-13  0              2.9953231    
   2000000   12030          200            200            0.0049813432   0.002488416    0              0.012455613    2.5409338e-10  0              1.226926e-05   1.1971759e-13  0              2.9953231    
   2100000   12030          200            200            0.0049813438   0.0024884161   0              0.012455615    7.3836718e-12  0              3.5653108e-07  1.1971759e-13  0              2.9953231    
   2200000   12030          200            200            0.0049813432   0.002488416    0              0.012455614    9.6764793e-13  0              4.6724255e-08  1.1971759e-13  0              2.9953231    
   2300000   12030          200            200            0.0049813434   0.0024884161   0              0.012455614    6.139354e-13   0              2.9644743e-08  1.1971759e-13  0              2.9953231    
   2400000   12030          200            200            0.0049813434   0.0024884161   0              0.012455614    4.1076052e-14  0              1.9834155e-09  1.1971759e-13  0              2.9953231    
   2500000   12030          200            200            0.0049813434   0.002488416    0              0.012455614    4.0657636e-16  0              1.9632117e-11  1.1971759e-13  0              2.9953231    
   2600000   12030          200            200            0.0049813434   0.002488416    0              0.012455614    1.2254628e-15  0              5.9173215e-11  1.1971759e-13  0              2.9953231    
   2700000   12030          200            200            0.0049813434   0.002488416    0              0.012455614    1.311236e-16   0              6.3314893e-12  1.1971759e-13  0              2.9953231    
   2800000   12030          200            200            0.0049813434   0.002488416    0              0.012455614    4.5663026e-18  0              2.2049041e-13  1.1971759e-13  0              2.9953231    
   2900000   12030          200            200            0.0049813434   0.002488416    0              0.012455614    1.2894959e-19  0              6.226514e-15   1.1971759e-13  0              2.9953231    
   3000000   12030          200            200            0.0049813434   0.0024884161   0              0.012455614    3.8878713e-18  0              1.8773139e-13  1.1971759e-13  0              2.9953231    
Loop time of 739.786 on 2 procs for 3000000 steps with 5001 atoms

Performance: 3503714.168 ns/day, 0.000 hours/ns, 4055.225 timesteps/s
99.9% CPU use with 2 MPI tasks x 1 OpenMP threads

MPI task timing breakdown:
Section |  min time  |  avg time  |  max time  |%varavg| %total
---------------------------------------------------------------
Pair    | 185.52     | 187.38     | 189.24     |  13.6 | 25.33
Neigh   | 15.027     | 15.028     | 15.03      |   0.0 |  2.03
Comm    | 39.599     | 41.678     | 43.757     |  32.2 |  5.63
Output  | 0.65372    | 0.65381    | 0.6539     |   0.0 |  0.09
Modify  | 435.52     | 435.59     | 435.66     |   0.3 | 58.88
Other   |            | 59.45      |            |       |  8.04

Nlocal:         2500.5 ave        2501 max        2500 min
Histogram: 1 0 0 0 0 0 0 0 0 1
Nghost:            2.5 ave           3 max           2 min
Histogram: 1 0 0 0 0 0 0 0 0 1
Neighs:         1391.5 ave        1392 max        1391 min
Histogram: 1 0 0 0 0 0 0 0 0 1

Total # of neighbors = 2783
Ave neighs/atom = 0.5564887
Neighbor list builds = 164
Dangerous builds = 0
  using 1 OpenMP thread(s) per MPI task
Lattice spacing in x,y,z = 4.02 4.02 4.02
Created orthogonal box = (-6030 -100 -100) to (6030 100 100)
  2 by 1 by 1 MPI processor grid
Created 3000 atoms
  using lattice units in orthogonal box = (-6030 -100 -100) to (6030 100 100)
  create_atoms CPU = 0.002 seconds
Lattice spacing in x,y,z = 3 3 3
Created 2001 atoms
  using lattice units in orthogonal box = (-6030 -100 -100) to (6030 100 100)
  create_atoms CPU = 0.001 seconds
Setting atom values ...
  3000 settings made for diameter
Setting atom values ...
  3000 settings made for mass
Setting atom values ...
  2001 settings made for diameter
Setting atom values ...
  2001 settings made for mass
3000 atoms in group substrate
2001 atoms in group slider1
  1 rigid bodies with 2001 atoms
Generated 0 of 1 mixed pair_coeff terms from geometric mixing rule
Neighbor list info ...
  update every 1 steps, delay 0 steps, check yes
  max neighbors/atom: 2000, page size: 100000
  master list distance cutoff = 3.1
  ghost atom cutoff = 3.1
  binsize = 1.55, bins = 7781 130 130
  1 neighbor lists, perpetual/occasional/extra = 1 0 0
  (1) pair granular, perpetual
      attributes: half, newton on, size, history
      pair build: half/size/bin/newton
      stencil: half/bin/3d
      bin: standard
Setting up Verlet run ...
  Unit style    : micro
  Current step  : 0
  Time step     : 1e-05
Per MPI rank memory allocation (min/avg/max) = 283.9 | 283.9 | 283.9 Mbytes
   Step           Lx             Ly             Lz           Press           Pxx            Pyy            Pzz           KinEng         PotEng          Temp          c_1[1]         c_1[2]         c_1[3]    
         0   12060          200            200            0              0              0              0              0              0              0              1.1971759e-13  0              6            
    100000   12060          200            200            0.0033678877  -5.3584699e-35  0              0.010103663    1168415.8      0              5.6418619e+10  1.1971759e-13  0              3.3266016    
    200000   12060          200            200            0.0011901992   7.1334401e-42  0              0.0035705977   283640.25      0              1.3695973e+10  1.1971759e-13  0              3.0742454    
    300000   12060          200            200            8.0220402e-05  1.3396252e-35  0              0.00024066121  2663.2776      0              1.2860014e+08  1.1971759e-13  0              3.0451964    
    400000   12060          200            200            0.00065177332  2.4892747e-05  0              0.0019304272   16931.84       0              8.1757797e+08  1.1971759e-13  0              2.9984957    
    500000   12060          200            200            0.0036743312  -0.0018238428   0              0.012846837    3118.7166      0              1.5059166e+08  1.1971759e-13  0              2.9952392    
    600000   12060          200            200            0.0048932887  -0.0031682998   0              0.017848166    5.0348003      0              243112.49      1.1971759e-13  0              2.9942972    
    700000   12060          200            200            0.0034929914  -0.0021883762   0              0.01266735     54.223387      0              2618253.3      1.1971759e-13  0              2.9952171    
    800000   12060          200            200            0.0032027579  -0.0021380545   0              0.011746328    0.053526592    0              2584.6075      1.1971759e-13  0              2.9954055    
    900000   12060          200            200            0.003417717   -0.0021747369   0              0.012427888    0.9978174      0              48181.031      1.1971759e-13  0              2.9952712    
   1000000   12060          200            200            0.0034454977  -0.0021793901   0              0.012515883    0.0014395455   0              69.510502      1.1971759e-13  0              2.995253     
   1100000   12060          200            200            0.003414315   -0.0021744606   0              0.012417406    0.01728913     0              834.8302       1.1971759e-13  0              2.9952723    
   1200000   12060          200            200            0.0034128164  -0.0021741853   0              0.012412634    0.00020717397  0              10.00369       1.1971759e-13  0              2.9952734    
   1300000   12060          200            200            0.003417105   -0.0021748726   0              0.012426188    0.00027706528  0              13.378491      1.1971759e-13  0              2.9952707    
   1400000   12060          200            200            0.0034170033  -0.002174861    0              0.012425871    9.6819438e-06  0              0.46750642     1.1971759e-13  0              2.9952707    
   1500000   12060          200            200            0.0034164344  -0.0021747696   0              0.012424073    4.0629692e-06  0              0.19618624     1.1971759e-13  0              2.9952711    
   1600000   12060          200            200            0.0034164883  -0.0021747776   0              0.012424242    3.1427782e-07  0              0.015175351    1.1971759e-13  0              2.9952711    
   1700000   12060          200            200            0.0034165609  -0.0021747893   0              0.012424472    5.3403409e-08  0              0.0025786595   1.1971759e-13  0              2.995271     
   1800000   12060          200            200            0.0034165485  -0.0021747874   0              0.012424433    8.4011499e-09  0              0.00040566146  1.1971759e-13  0              2.995271     
   1900000   12060          200            200            0.0034165396  -0.002174786    0              0.012424405    6.0299401e-10  0              2.9116423e-05  1.1971759e-13  0              2.995271     
   2000000   12060          200            200            0.0034165419  -0.0021747863   0              0.012424412    1.9740551e-10  0              9.5320058e-06  1.1971759e-13  0              2.995271     
   2100000   12060          200            200            0.003416543   -0.0021747865   0              0.012424415    5.3091122e-12  0              2.5635803e-07  1.1971759e-13  0              2.995271     
   2200000   12060          200            200            0.0034165426  -0.0021747864   0              0.012424414    4.2026024e-12  0              2.0292863e-07  1.1971759e-13  0              2.995271     
   2300000   12060          200            200            0.0034165425  -0.0021747864   0              0.012424414    2.6960124e-14  0              1.3018079e-09  1.1971759e-13  0              2.995271     
   2400000   12060          200            200            0.0034165425  -0.0021747864   0              0.012424414    8.2417159e-14  0              3.9796296e-09  1.1971759e-13  0              2.995271     
   2500000   12060          200            200            0.0034165425  -0.0021747864   0              0.012424414    1.2453793e-18  0              6.0134909e-14  1.1971759e-13  0              2.995271     
   2600000   12060          200            200            0.0034165425  -0.0021747864   0              0.012424414    1.4858859e-15  0              7.1748114e-11  1.1971759e-13  0              2.995271     
   2700000   12060          200            200            0.0034165425  -0.0021747864   0              0.012424414    2.3515005e-17  0              1.1354555e-12  1.1971759e-13  0              2.995271     
   2800000   12060          200            200            0.0034165425  -0.0021747864   0              0.012424414    6.3866921e-18  0              3.0839051e-13  1.1971759e-13  0              2.995271     
   2900000   12060          200            200            0.0034165425  -0.0021747864   0              0.012424414    1.0454764e-18  0              5.0482314e-14  1.1971759e-13  0              2.995271     
   3000000   12060          200            200            0.0034165425  -0.0021747864   0              0.012424414    7.6767169e-18  0              3.7068119e-13  1.1971759e-13  0              2.995271     
Loop time of 749.681 on 2 procs for 3000000 steps with 5001 atoms

Performance: 3457470.857 ns/day, 0.000 hours/ns, 4001.702 timesteps/s
99.9% CPU use with 2 MPI tasks x 1 OpenMP threads

MPI task timing breakdown:
Section |  min time  |  avg time  |  max time  |%varavg| %total
---------------------------------------------------------------
Pair    | 189.07     | 194.26     | 199.44     |  37.2 | 25.91
Neigh   | 15.098     | 15.099     | 15.1       |   0.0 |  2.01
Comm    | 39.209     | 44.612     | 50.014     |  80.9 |  5.95
Output  | 0.65764    | 0.65772    | 0.65779    |   0.0 |  0.09
Modify  | 436.41     | 436.5      | 436.58     |   0.4 | 58.22
Other   |            | 58.56      |            |       |  7.81

Nlocal:         2500.5 ave        2501 max        2500 min
Histogram: 1 0 0 0 0 0 0 0 0 1
Nghost:            2.5 ave           3 max           2 min
Histogram: 1 0 0 0 0 0 0 0 0 1
Neighs:         1403.5 ave        1404 max        1403 min
Histogram: 1 0 0 0 0 0 0 0 0 1

Total # of neighbors = 2807
Ave neighs/atom = 0.56128774
Neighbor list builds = 164
Dangerous builds = 0
  using 1 OpenMP thread(s) per MPI task
Lattice spacing in x,y,z = 4.03 4.03 4.03
Created orthogonal box = (-6045 -100 -100) to (6045 100 100)
  2 by 1 by 1 MPI processor grid
Created 3000 atoms
  using lattice units in orthogonal box = (-6045 -100 -100) to (6045 100 100)
  create_atoms CPU = 0.002 seconds
Lattice spacing in x,y,z = 3 3 3
Created 2001 atoms
  using lattice units in orthogonal box = (-6045 -100 -100) to (6045 100 100)
  create_atoms CPU = 0.001 seconds
Setting atom values ...
  3000 settings made for diameter
Setting atom values ...
  3000 settings made for mass
Setting atom values ...
  2001 settings made for diameter
Setting atom values ...
  2001 settings made for mass
3000 atoms in group substrate
2001 atoms in group slider1
  1 rigid bodies with 2001 atoms
Generated 0 of 1 mixed pair_coeff terms from geometric mixing rule
Neighbor list info ...
  update every 1 steps, delay 0 steps, check yes
  max neighbors/atom: 2000, page size: 100000
  master list distance cutoff = 3.1
  ghost atom cutoff = 3.1
  binsize = 1.55, bins = 7800 130 130
  1 neighbor lists, perpetual/occasional/extra = 1 0 0
  (1) pair granular, perpetual
      attributes: half, newton on, size, history
      pair build: half/size/bin/newton
      stencil: half/bin/3d
      bin: standard
Setting up Verlet run ...
  Unit style    : micro
  Current step  : 0
  Time step     : 1e-05
Per MPI rank memory allocation (min/avg/max) = 284.6 | 284.6 | 284.6 Mbytes
   Step           Lx             Ly             Lz           Press           Pxx            Pyy            Pzz           KinEng         PotEng          Temp          c_1[1]         c_1[2]         c_1[3]    
         0   12090          200            200            0              0              0              0              0              0              0              1.1971759e-13  0              6            
    100000   12090          200            200            0.0033598521  -5.3451973e-35  0              0.010079556    1168564.6      0              5.6425801e+10  1.1971759e-13  0              3.3266113    
    200000   12090          200            200            0.0011879582   5.3452106e-35  0              0.0035638746   283898.68      0              1.3708451e+10  1.1971759e-13  0              3.0742198    
    300000   12090          200            200            8.1557068e-05 -2.6725846e-35  0              0.0002446712   2761.644       0              1.3334991e+08  1.1971759e-13  0              3.0452512    
    400000   12090          200            200            0.00077855214 -0.00023775815  0              0.0025734146   17637.058      0              8.5163039e+08  1.1971759e-13  0              2.9981613    
    500000   12090          200            200            0.0056908084   0.00036680782  0              0.016705617    2904.6359      0              1.4025447e+08  1.1971759e-13  0              2.9946096    
    600000   12090          200            200            0.0050348123   0.00089873278  0              0.014205704    373.60147      0              18039878       1.1971759e-13  0              2.9949775    
    700000   12090          200            200            0.004482608    0.00039895865  0              0.013048865    50.284585      0              2428062.7      1.1971759e-13  0              2.9952064    
    800000   12090          200            200            0.0040955298   0.00056667421  0              0.011719915    0.52992762     0              25588.308      1.1971759e-13  0              2.9954514    
    900000   12090          200            200            0.004369131    0.00051342503  0              0.012593968    0.39501357     0              19073.791      1.1971759e-13  0              2.9952849    
   1000000   12090          200            200            0.0043037302   0.00051175762  0              0.012399433    0.13560502     0              6547.8813      1.1971759e-13  0              2.9953223    
   1100000   12090          200            200            0.0042920037   0.00051152189  0              0.012364489    0.0052701429   0              254.47634      1.1971759e-13  0              2.9953286    
   1200000   12090          200            200            0.0043057743   0.00051181439  0              0.012405509    0.00034381077  0              16.601392      1.1971759e-13  0              2.9953209    
   1300000   12090          200            200            0.0043014911   0.00051171973  0              0.012392753    0.00031124726  0              15.029016      1.1971759e-13  0              2.9953233    
   1400000   12090          200            200            0.0043014641   0.00051171983  0              0.012392673    2.5186937e-05  0              1.2161871      1.1971759e-13  0              2.9953233    
   1500000   12090          200            200            0.0043020507   0.00051173239  0              0.01239442     5.4393758e-08  0              0.0026264799   1.1971759e-13  0              2.995323     
   1600000   12090          200            200            0.0043018047   0.00051172703  0              0.012393687    5.9782728e-07  0              0.02886694     1.1971759e-13  0              2.9953231    
   1700000   12090          200            200            0.0043018306   0.00051172762  0              0.012393764    8.8648905e-08  0              0.0042805384   1.1971759e-13  0              2.9953231    
   1800000   12090          200            200            0.0043018526   0.00051172809  0              0.01239383     5.2373974e-10  0              2.5289518e-05  1.1971759e-13  0              2.9953231    
   1900000   12090          200            200            0.0043018398   0.00051172781  0              0.012393792    9.1460567e-10  0              4.4163035e-05  1.1971759e-13  0              2.9953231    
   2000000   12090          200            200            0.0043018423   0.00051172786  0              0.012393799    2.5421963e-10  0              1.2275356e-05  1.1971759e-13  0              2.9953231    
   2100000   12090          200            200            0.0043018429   0.00051172788  0              0.012393801    7.4207822e-12  0              3.5832301e-07  1.1971759e-13  0              2.9953231    
   2200000   12090          200            200            0.0043018423   0.00051172786  0              0.012393799    9.6326924e-13  0              4.6512824e-08  1.1971759e-13  0              2.9953231    
   2300000   12090          200            200            0.0043018425   0.00051172787  0              0.0123938      6.1399193e-13  0              2.9647473e-08  1.1971759e-13  0              2.9953231    
   2400000   12090          200            200            0.0043018425   0.00051172787  0              0.0123938      4.1257998e-14  0              1.9922011e-09  1.1971759e-13  0              2.9953231    
   2500000   12090          200            200            0.0043018425   0.00051172787  0              0.0123938      4.038627e-16   0              1.9501084e-11  1.1971759e-13  0              2.9953231    
   2600000   12090          200            200            0.0043018425   0.00051172787  0              0.0123938      1.2160112e-15  0              5.8716827e-11  1.1971759e-13  0              2.9953231    
   2700000   12090          200            200            0.0043018425   0.00051172787  0              0.0123938      1.2993162e-16  0              6.2739331e-12  1.1971759e-13  0              2.9953231    
   2800000   12090          200            200            0.0043018425   0.00051172787  0              0.0123938      6.0488474e-18  0              2.9207719e-13  1.1971759e-13  0              2.9953231    
   2900000   12090          200            200            0.0043018425   0.00051172787  0              0.0123938      1.3040479e-18  0              6.2967806e-14  1.1971759e-13  0              2.9953231    
   3000000   12090          200            200            0.0043018425   0.00051172787  0              0.0123938      2.9367902e-18  0              1.4180709e-13  1.1971759e-13  0              2.9953231    
Loop time of 738.349 on 2 procs for 3000000 steps with 5001 atoms

Performance: 3510537.260 ns/day, 0.000 hours/ns, 4063.122 timesteps/s
99.9% CPU use with 2 MPI tasks x 1 OpenMP threads

MPI task timing breakdown:
Section |  min time  |  avg time  |  max time  |%varavg| %total
---------------------------------------------------------------
Pair    | 188.92     | 191.19     | 193.45     |  16.4 | 25.89
Neigh   | 14.894     | 14.894     | 14.894     |   0.0 |  2.02
Comm    | 39.59      | 42.083     | 44.575     |  38.4 |  5.70
Output  | 0.64953    | 0.64959    | 0.64965    |   0.0 |  0.09
Modify  | 430.43     | 430.6      | 430.78     |   0.8 | 58.32
Other   |            | 58.93      |            |       |  7.98

Nlocal:         2500.5 ave        2501 max        2500 min
Histogram: 1 0 0 0 0 0 0 0 0 1
Nghost:            2.5 ave           3 max           2 min
Histogram: 1 0 0 0 0 0 0 0 0 1
Neighs:         1388.5 ave        1389 max        1388 min
Histogram: 1 0 0 0 0 0 0 0 0 1

Total # of neighbors = 2777
Ave neighs/atom = 0.55528894
Neighbor list builds = 164
Dangerous builds = 0
  using 1 OpenMP thread(s) per MPI task
Lattice spacing in x,y,z = 4.04 4.04 4.04
Created orthogonal box = (-6060 -100 -100) to (6060 100 100)
  2 by 1 by 1 MPI processor grid
Created 3000 atoms
  using lattice units in orthogonal box = (-6060 -100 -100) to (6060 100 100)
  create_atoms CPU = 0.002 seconds
Lattice spacing in x,y,z = 3 3 3
Created 2001 atoms
  using lattice units in orthogonal box = (-6060 -100 -100) to (6060 100 100)
  create_atoms CPU = 0.001 seconds
Setting atom values ...
  3000 settings made for diameter
Setting atom values ...
  3000 settings made for mass
Setting atom values ...
  2001 settings made for diameter
Setting atom values ...
  2001 settings made for mass
3000 atoms in group substrate
2001 atoms in group slider1
  1 rigid bodies with 2001 atoms
Generated 0 of 1 mixed pair_coeff terms from geometric mixing rule
Neighbor list info ...
  update every 1 steps, delay 0 steps, check yes
  max neighbors/atom: 2000, page size: 100000
  master list distance cutoff = 3.1
  ghost atom cutoff = 3.1
  binsize = 1.55, bins = 7820 130 130
  1 neighbor lists, perpetual/occasional/extra = 1 0 0
  (1) pair granular, perpetual
      attributes: half, newton on, size, history
      pair build: half/size/bin/newton
      stencil: half/bin/3d
      bin: standard
Setting up Verlet run ...
  Unit style    : micro
  Current step  : 0
  Time step     : 1e-05
Per MPI rank memory allocation (min/avg/max) = 285.2 | 285.2 | 285.2 Mbytes
   Step           Lx             Ly             Lz           Press           Pxx            Pyy            Pzz           KinEng         PotEng          Temp          c_1[1]         c_1[2]         c_1[3]    
         0   12120          200            200            0              0              0              0              0              0              0              1.1971759e-13  0              6            
    100000   12120          200            200            0.0033509828   4.998723e-36   0              0.010052948    1168287.6      0              5.6412426e+10  1.1971759e-13  0              3.3266778    
    200000   12120          200            200            0.0011835346   2.6659945e-35  0              0.0035506038   283346.01      0              1.3681765e+10  1.1971759e-13  0              3.0744164    
    300000   12120          200            200            7.8529818e-05 -2.6659768e-35  0              0.00023558945  2581.3389      0              1.2464362e+08  1.1971759e-13  0              3.0452477    
    400000   12120          200            200            0.00052964685 -7.1046077e-06  0              0.0015960452   16655.716      0              8.0424494e+08  1.1971759e-13  0              2.9986759    
    500000   12120          200            200            0.0042020511   0.00085355778  0              0.011752596    3126.5937      0              1.5097202e+08  1.1971759e-13  0              2.9954427    
    600000   12120          200            200            0.0062150611   0.001089836    0              0.017555347    55.966275      0              2702411.1      1.1971759e-13  0              2.9943786    
    700000   12120          200            200            0.0042473781   0.0012869098   0              0.011455225    43.449487      0              2098020.2      1.1971759e-13  0              2.9954559    
    800000   12120          200            200            0.0043451013   0.0012590998   0              0.011776204    2.3147036      0              111768.75      1.1971759e-13  0              2.9953865    
    900000   12120          200            200            0.0045890118   0.0012578771   0              0.012509158    0.68210977     0              32936.64       1.1971759e-13  0              2.9952483    
   1000000   12120          200            200            0.0045657889   0.0012568415   0              0.012440525    0.045941844    0              2218.3672      1.1971759e-13  0              2.9952619    
   1100000   12120          200            200            0.0045327901   0.0012555038   0              0.012342866    0.012009885    0              579.91435      1.1971759e-13  0              2.9952801    
   1200000   12120          200            200            0.0045360819   0.0012556443   0              0.012352602    0.00085335874  0              41.20564       1.1971759e-13  0              2.9952782    
   1300000   12120          200            200            0.0045404955   0.0012558213   0              0.012365665    0.000213073    0              10.288533      1.1971759e-13  0              2.9952757    
   1400000   12120          200            200            0.0045400352   0.0012558016   0              0.012364304    1.5874806e-05  0              0.76653756     1.1971759e-13  0              2.995276     
   1500000   12120          200            200            0.0045394445   0.0012557779   0              0.012362555    3.7760707e-06  0              0.18233294     1.1971759e-13  0              2.9952763    
   1600000   12120          200            200            0.0045395087   0.0012557806   0              0.012362746    2.9498055e-07  0              0.014243555    1.1971759e-13  0              2.9952763    
   1700000   12120          200            200            0.0045395878   0.0012557838   0              0.01236298     6.6898098e-08  0              0.0032302697   1.1971759e-13  0              2.9952763    
   1800000   12120          200            200            0.0045395788   0.0012557834   0              0.012362953    5.4776824e-09  0              0.00026449768  1.1971759e-13  0              2.9952763    
   1900000   12120          200            200            0.0045395683   0.001255783    0              0.012362922    1.1847029e-09  0              5.7205065e-05  1.1971759e-13  0              2.9952763    
   2000000   12120          200            200            0.0045395695   0.0012557831   0              0.012362925    1.0165735e-10  0              4.9086696e-06  1.1971759e-13  0              2.9952763    
   2100000   12120          200            200            0.0045395709   0.0012557831   0              0.01236293     2.0968369e-11  0              1.0124875e-06  1.1971759e-13  0              2.9952763    
   2200000   12120          200            200            0.0045395707   0.0012557831   0              0.012362929    1.8866641e-12  0              9.1100255e-08  1.1971759e-13  0              2.9952763    
   2300000   12120          200            200            0.0045395706   0.0012557831   0              0.012362929    3.7064056e-13  0              1.7896906e-08  1.1971759e-13  0              2.9952763    
   2400000   12120          200            200            0.0045395706   0.0012557831   0              0.012362929    3.5415517e-14  0              1.7100886e-09  1.1971759e-13  0              2.9952763    
   2500000   12120          200            200            0.0045395706   0.0012557831   0              0.012362929    6.6195117e-15  0              3.1963253e-10  1.1971759e-13  0              2.9952763    
   2600000   12120          200            200            0.0045395706   0.0012557831   0              0.012362929    6.686073e-16   0              3.2284654e-11  1.1971759e-13  0              2.9952763    
   2700000   12120          200            200            0.0045395706   0.0012557831   0              0.012362929    1.4046584e-16  0              6.7825928e-12  1.1971759e-13  0              2.9952763    
   2800000   12120          200            200            0.0045395706   0.0012557831   0              0.012362929    1.925431e-20   0              9.297217e-16   1.1971759e-13  0              2.9952763    
   2900000   12120          200            200            0.0045395706   0.0012557831   0              0.012362929    2.9018737e-21  0              1.401211e-16   1.1971759e-13  0              2.9952763    
   3000000   12120          200            200            0.0045395706   0.0012557831   0              0.012362929    8.450329e-18   0              4.0803615e-13  1.1971759e-13  0              2.9952763    
Loop time of 756.781 on 2 procs for 3000000 steps with 5001 atoms

Performance: 3425031.458 ns/day, 0.000 hours/ns, 3964.157 timesteps/s
99.9% CPU use with 2 MPI tasks x 1 OpenMP threads

MPI task timing breakdown:
Section |  min time  |  avg time  |  max time  |%varavg| %total
---------------------------------------------------------------
Pair    | 197.73     | 200.52     | 203.31     |  19.7 | 26.50
Neigh   | 15.106     | 15.107     | 15.108     |   0.0 |  2.00
Comm    | 40.549     | 43.263     | 45.976     |  41.3 |  5.72
Output  | 0.64571    | 0.64579    | 0.64586    |   0.0 |  0.09
Modify  | 436.57     | 436.91     | 437.25     |   1.6 | 57.73
Other   |            | 60.33      |            |       |  7.97

Nlocal:         2500.5 ave        2501 max        2500 min
Histogram: 1 0 0 0 0 0 0 0 0 1
Nghost:            2.5 ave           3 max           2 min
Histogram: 1 0 0 0 0 0 0 0 0 1
Neighs:         1387.5 ave        1388 max        1387 min
Histogram: 1 0 0 0 0 0 0 0 0 1

Total # of neighbors = 2775
Ave neighs/atom = 0.55488902
Neighbor list builds = 164
Dangerous builds = 0
  using 1 OpenMP thread(s) per MPI task
Lattice spacing in x,y,z = 4.05 4.05 4.05
Created orthogonal box = (-6075 -100 -100) to (6075 100 100)
  2 by 1 by 1 MPI processor grid
Created 3000 atoms
  using lattice units in orthogonal box = (-6075 -100 -100) to (6075 100 100)
  create_atoms CPU = 0.002 seconds
Lattice spacing in x,y,z = 3 3 3
Created 2001 atoms
  using lattice units in orthogonal box = (-6075 -100 -100) to (6075 100 100)
  create_atoms CPU = 0.001 seconds
Setting atom values ...
  3000 settings made for diameter
Setting atom values ...
  3000 settings made for mass
Setting atom values ...
  2001 settings made for diameter
Setting atom values ...
  2001 settings made for mass
3000 atoms in group substrate
2001 atoms in group slider1
  1 rigid bodies with 2001 atoms
Generated 0 of 1 mixed pair_coeff terms from geometric mixing rule
Neighbor list info ...
  update every 1 steps, delay 0 steps, check yes
  max neighbors/atom: 2000, page size: 100000
  master list distance cutoff = 3.1
  ghost atom cutoff = 3.1
  binsize = 1.55, bins = 7839 130 130
  1 neighbor lists, perpetual/occasional/extra = 1 0 0
  (1) pair granular, perpetual
      attributes: half, newton on, size, history
      pair build: half/size/bin/newton
      stencil: half/bin/3d
      bin: standard
Setting up Verlet run ...
  Unit style    : micro
  Current step  : 0
  Time step     : 1e-05
Per MPI rank memory allocation (min/avg/max) = 285.9 | 285.9 | 285.9 Mbytes
   Step           Lx             Ly             Lz           Press           Pxx            Pyy            Pzz           KinEng         PotEng          Temp          c_1[1]         c_1[2]         c_1[3]    
         0   12150          200            200            0              0              0              0              0              0              0              1.1971759e-13  0              6            
    100000   12150          200            200            0.0033429826   3.9891057e-35  0              0.010028948    1168429.7      0              5.6419289e+10  1.1971759e-13  0              3.3266262    
    200000   12150          200            200            0.0011816116  -2.6593968e-35  0              0.0035448348   283721.46      0              1.3699894e+10  1.1971759e-13  0              3.0742602    
    300000   12150          200            200            7.638457e-05   1.4202852e-42  0              0.00022915371  2459.5886      0              1.1876473e+08  1.1971759e-13  0              3.045366     
    400000   12150          200            200            0.0012675729  -3.9891037e-35  0              0.0038027186   18152.846      0              8.7653596e+08  1.1971759e-13  0              2.997746     
    500000   12150          200            200            0.0072226495  -0.003418845    0              0.025086794    1506.7247      0              72754345       1.1971759e-13  0              2.9933476    
    600000   12150          200            200            0.0041203346  -0.0010387622   0              0.013399766    436.05833      0              21055696       1.1971759e-13  0              2.9949363    
    700000   12150          200            200            0.0033489207  -0.00076239174  0              0.010809154    25.408378      0              1226879.7      1.1971759e-13  0              2.9953614    
    800000   12150          200            200            0.003538833   -0.0010014935   0              0.011617992    0.69697019     0              33654.196      1.1971759e-13  0              2.9952161    
    900000   12150          200            200            0.0036779928  -0.0010212204   0              0.012055199    0.0015606175   0              75.356636      1.1971759e-13  0              2.9951411    
   1000000   12150          200            200            0.003736086   -0.0010285907   0              0.012236849    0.018728443    0              904.3295       1.1971759e-13  0              2.9951106    
   1100000   12150          200            200            0.0037573583  -0.0010311651   0              0.01230324     0.0079644491   0              384.57474      1.1971759e-13  0              2.9950996    
   1200000   12150          200            200            0.0037642487  -0.0010319815   0              0.012324728    0.0018802522   0              90.790651      1.1971759e-13  0              2.9950961    
   1300000   12150          200            200            0.0037661573  -0.0010322044   0              0.012330676    0.00032476771  0              15.681871      1.1971759e-13  0              2.9950951    
   1400000   12150          200            200            0.0037665528  -0.0010322495   0              0.012331908    4.4210824e-05  0              2.1347824      1.1971759e-13  0              2.9950949    
   1500000   12150          200            200            0.0037665703  -0.0010322508   0              0.012331962    4.7613958e-06  0              0.22991076     1.1971759e-13  0              2.9950949    
   1600000   12150          200            200            0.0037665294  -0.0010322456   0              0.012331834    3.8132412e-07  0              0.018412777    1.1971759e-13  0              2.9950949    
   1700000   12150          200            200            0.0037664988  -0.0010322419   0              0.012331738    1.8080126e-08  0              0.00087302457  1.1971759e-13  0              2.995095     
   1800000   12150          200            200            0.0037664831  -0.00103224     0              0.012331689    1.0365407e-10  0              5.0050842e-06  1.1971759e-13  0              2.995095     
   1900000   12150          200            200            0.0037664763  -0.0010322392   0              0.012331668    1.2084138e-10  0              5.8349979e-06  1.1971759e-13  0              2.995095     
   2000000   12150          200            200            0.0037664737  -0.0010322389   0              0.01233166     8.0454582e-11  0              3.8848638e-06  1.1971759e-13  0              2.995095     
   2100000   12150          200            200            0.0037664729  -0.0010322388   0              0.012331657    2.2376263e-11  0              1.0804696e-06  1.1971759e-13  0              2.995095     
   2200000   12150          200            200            0.0037664726  -0.0010322388   0              0.012331657    4.2823647e-12  0              2.0678007e-07  1.1971759e-13  0              2.995095     
   2300000   12150          200            200            0.0037664726  -0.0010322388   0              0.012331656    6.3455092e-13  0              3.0640193e-08  1.1971759e-13  0              2.995095     
   2400000   12150          200            200            0.0037664725  -0.0010322388   0              0.012331656    7.4694839e-14  0              3.6067465e-09  1.1971759e-13  0              2.995095     
   2500000   12150          200            200            0.0037664725  -0.0010322388   0              0.012331656    6.7474778e-15  0              3.2581155e-10  1.1971759e-13  0              2.995095     
   2600000   12150          200            200            0.0037664725  -0.0010322388   0              0.012331656    3.9227337e-16  0              1.8941477e-11  1.1971759e-13  0              2.995095     
   2700000   12150          200            200            0.0037664726  -0.0010322388   0              0.012331656    2.0801766e-17  0              1.0044428e-12  1.1971759e-13  0              2.995095     
   2800000   12150          200            200            0.0037664726  -0.0010322388   0              0.012331656    9.0880423e-18  0              4.3882904e-13  1.1971759e-13  0              2.995095     
   2900000   12150          200            200            0.0037664726  -0.0010322388   0              0.012331656    2.9645965e-19  0              1.4314976e-14  1.1971759e-13  0              2.995095     
   3000000   12150          200            200            0.0037664726  -0.0010322388   0              0.012331656    3.5276974e-18  0              1.7033988e-13  1.1971759e-13  0              2.995095     
Loop time of 753.614 on 2 procs for 3000000 steps with 5001 atoms

Performance: 3439424.603 ns/day, 0.000 hours/ns, 3980.816 timesteps/s
100.0% CPU use with 2 MPI tasks x 1 OpenMP threads

MPI task timing breakdown:
Section |  min time  |  avg time  |  max time  |%varavg| %total
---------------------------------------------------------------
Pair    | 203.72     | 204.18     | 204.64     |   3.2 | 27.09
Neigh   | 15.237     | 15.238     | 15.238     |   0.0 |  2.02
Comm    | 41.14      | 41.515     | 41.89      |   5.8 |  5.51
Output  | 0.64539    | 0.64543    | 0.64548    |   0.0 |  0.09
Modify  | 430.64     | 431.3      | 431.96     |   3.2 | 57.23
Other   |            | 60.74      |            |       |  8.06

Nlocal:         2500.5 ave        2501 max        2500 min
Histogram: 1 0 0 0 0 0 0 0 0 1
Nghost:            2.5 ave           3 max           2 min
Histogram: 1 0 0 0 0 0 0 0 0 1
Neighs:         1407.5 ave        1408 max        1407 min
Histogram: 1 0 0 0 0 0 0 0 0 1

Total # of neighbors = 2815
Ave neighs/atom = 0.56288742
Neighbor list builds = 164
Dangerous builds = 0
  using 1 OpenMP thread(s) per MPI task
Lattice spacing in x,y,z = 4.06 4.06 4.06
Created orthogonal box = (-6090 -100 -100) to (6090 100 100)
  2 by 1 by 1 MPI processor grid
Created 3000 atoms
  using lattice units in orthogonal box = (-6090 -100 -100) to (6090 100 100)
  create_atoms CPU = 0.002 seconds
Lattice spacing in x,y,z = 3 3 3
Created 2001 atoms
  using lattice units in orthogonal box = (-6090 -100 -100) to (6090 100 100)
  create_atoms CPU = 0.001 seconds
Setting atom values ...
  3000 settings made for diameter
Setting atom values ...
  3000 settings made for mass
Setting atom values ...
  2001 settings made for diameter
Setting atom values ...
  2001 settings made for mass
3000 atoms in group substrate
2001 atoms in group slider1
  1 rigid bodies with 2001 atoms
Generated 0 of 1 mixed pair_coeff terms from geometric mixing rule
Neighbor list info ...
  update every 1 steps, delay 0 steps, check yes
  max neighbors/atom: 2000, page size: 100000
  master list distance cutoff = 3.1
  ghost atom cutoff = 3.1
  binsize = 1.55, bins = 7859 130 130
  1 neighbor lists, perpetual/occasional/extra = 1 0 0
  (1) pair granular, perpetual
      attributes: half, newton on, size, history
      pair build: half/size/bin/newton
      stencil: half/bin/3d
      bin: standard
Setting up Verlet run ...
  Unit style    : micro
  Current step  : 0
  Time step     : 1e-05
Per MPI rank memory allocation (min/avg/max) = 286.6 | 286.6 | 286.6 Mbytes
   Step           Lx             Ly             Lz           Press           Pxx            Pyy            Pzz           KinEng         PotEng          Temp          c_1[1]         c_1[2]         c_1[3]    
         0   12180          200            200            0              0              0              0              0              0              0              1.1971759e-13  0              6            
    100000   12180          200            200            0.0033346073  -1.591707e-34   0              0.010003822    1168350.8      0              5.641548e+10   1.1971759e-13  0              3.3266746    
    200000   12180          200            200            0.0011780893  -2.6528503e-34  0              0.0035342679   283489.18      0              1.3688678e+10  1.1971759e-13  0              3.0743754    
    300000   12180          200            200            7.9005108e-05 -6.6321209e-36  0              0.00023701532  2636.0349      0              1.2728469e+08  1.1971759e-13  0              3.0452514    
    400000   12180          200            200            0.00057750979 -8.2456836e-05  0              0.0018149862   16930.642      0              8.1752013e+08  1.1971759e-13  0              2.9985412    
    500000   12180          200            200            0.0051842688   0.001842154    0              0.013710652    3118.3019      0              1.5057164e+08  1.1971759e-13  0              2.9950856    
    600000   12180          200            200            0.0064836552   0.0035466396   0              0.015904326    234.67629      0              11331678       1.1971759e-13  0              2.9946441    
    700000   12180          200            200            0.0043506556   0.00093328314  0              0.012118684    55.913333      0              2699854.7      1.1971759e-13  0              2.9953405    
    800000   12180          200            200            0.0042454539   0.0010544064   0              0.011681955    1.58554        0              76560.051      1.1971759e-13  0              2.9954172    
    900000   12180          200            200            0.0045606695   0.00119449     0              0.012487518    0.47716802     0              23040.736      1.1971759e-13  0              2.9952638    
   1000000   12180          200            200            0.004506865    0.0011789949   0              0.0123416      0.11294993     0              5453.948       1.1971759e-13  0              2.9952921    
   1100000   12180          200            200            0.0044797091   0.0011712119   0              0.012267915    0.00017870993  0              8.629263       1.1971759e-13  0              2.9953058    
   1200000   12180          200            200            0.0044933712   0.0011752505   0              0.012304863    0.002328747    0              112.44686      1.1971759e-13  0              2.9952988    
   1300000   12180          200            200            0.0044938084   0.001175353    0              0.012306072    9.1369851e-05  0              4.4119231      1.1971759e-13  0              2.9952986    
   1400000   12180          200            200            0.0044918716   0.0011747901   0              0.012300825    1.7899351e-05  0              0.86429559     1.1971759e-13  0              2.9952996    
   1500000   12180          200            200            0.0044922687   0.0011749089   0              0.012301897    5.1933969e-06  0              0.25077055     1.1971759e-13  0              2.9952994    
   1600000   12180          200            200            0.0044924353   0.0011749566   0              0.012302349    1.0196235e-09  0              4.9233968e-05  1.1971759e-13  0              2.9952993    
   1700000   12180          200            200            0.0044923428   0.0011749294   0              0.012302099    9.8296952e-08  0              0.004746408    1.1971759e-13  0              2.9952993    
   1800000   12180          200            200            0.0044923422   0.0011749294   0              0.012302097    4.8271784e-09  0              0.00023308717  1.1971759e-13  0              2.9952993    
   1900000   12180          200            200            0.0044923548   0.001174933    0              0.012302131    6.6319023e-10  0              3.2023083e-05  1.1971759e-13  0              2.9952993    
   2000000   12180          200            200            0.0044923519   0.0011749322   0              0.012302123    2.368162e-10   0              1.1435007e-05  1.1971759e-13  0              2.9952993    
   2100000   12180          200            200            0.0044923509   0.0011749319   0              0.012302121    2.6646665e-14  0              1.2866721e-09  1.1971759e-13  0              2.9952993    
   2200000   12180          200            200            0.0044923515   0.0011749321   0              0.012302122    4.1134379e-12  0              1.986232e-07   1.1971759e-13  0              2.9952993    
   2300000   12180          200            200            0.0044923515   0.0011749321   0              0.012302122    2.4963591e-13  0              1.2054025e-08  1.1971759e-13  0              2.9952993    
   2400000   12180          200            200            0.0044923514   0.0011749321   0              0.012302122    2.4312163e-14  0              1.1739474e-09  1.1971759e-13  0              2.9952993    
   2500000   12180          200            200            0.0044923514   0.0011749321   0              0.012302122    1.0689614e-14  0              5.161632e-10   1.1971759e-13  0              2.9952993    
   2600000   12180          200            200            0.0044923514   0.0011749321   0              0.012302122    1.3349237e-17  0              6.4458686e-13  1.1971759e-13  0              2.9952993    
   2700000   12180          200            200            0.0044923514   0.0011749321   0              0.012302122    1.861242e-16   0              8.9872715e-12  1.1971759e-13  0              2.9952993    
   2800000   12180          200            200            0.0044923514   0.0011749321   0              0.012302122    6.4518786e-21  0              3.1153813e-16  1.1971759e-13  0              2.9952993    
   2900000   12180          200            200            0.0044923514   0.0011749321   0              0.012302122    6.7239947e-19  0              3.2467764e-14  1.1971759e-13  0              2.9952993    
   3000000   12180          200            200            0.0044923514   0.0011749321   0              0.012302122    1.332485e-17   0              6.434093e-13   1.1971759e-13  0              2.9952993    
Loop time of 742.139 on 2 procs for 3000000 steps with 5001 atoms

Performance: 3492605.803 ns/day, 0.000 hours/ns, 4042.368 timesteps/s
99.9% CPU use with 2 MPI tasks x 1 OpenMP threads

MPI task timing breakdown:
Section |  min time  |  avg time  |  max time  |%varavg| %total
---------------------------------------------------------------
Pair    | 188.04     | 189.37     | 190.71     |   9.7 | 25.52
Neigh   | 15.284     | 15.285     | 15.286     |   0.0 |  2.06
Comm    | 40.636     | 42.054     | 43.473     |  21.9 |  5.67
Output  | 0.65905    | 0.6591     | 0.65915    |   0.0 |  0.09
Modify  | 434.62     | 434.94     | 435.27     |   1.6 | 58.61
Other   |            | 59.82      |            |       |  8.06

Nlocal:         2500.5 ave        2501 max        2500 min
Histogram: 1 0 0 0 0 0 0 0 0 1
Nghost:            2.5 ave           3 max           2 min
Histogram: 1 0 0 0 0 0 0 0 0 1
Neighs:         1389.5 ave        1390 max        1389 min
Histogram: 1 0 0 0 0 0 0 0 0 1

Total # of neighbors = 2779
Ave neighs/atom = 0.55568886
Neighbor list builds = 164
Dangerous builds = 0
  using 1 OpenMP thread(s) per MPI task
Lattice spacing in x,y,z = 4.07 4.07 4.07
Created orthogonal box = (-6105 -100 -100) to (6105 100 100)
  2 by 1 by 1 MPI processor grid
Created 3000 atoms
  using lattice units in orthogonal box = (-6105 -100 -100) to (6105 100 100)
  create_atoms CPU = 0.002 seconds
Lattice spacing in x,y,z = 3 3 3
Created 2001 atoms
  using lattice units in orthogonal box = (-6105 -100 -100) to (6105 100 100)
  create_atoms CPU = 0.001 seconds
Setting atom values ...
  3000 settings made for diameter
Setting atom values ...
  3000 settings made for mass
Setting atom values ...
  2001 settings made for diameter
Setting atom values ...
  2001 settings made for mass
3000 atoms in group substrate
2001 atoms in group slider1
  1 rigid bodies with 2001 atoms
Generated 0 of 1 mixed pair_coeff terms from geometric mixing rule
Neighbor list info ...
  update every 1 steps, delay 0 steps, check yes
  max neighbors/atom: 2000, page size: 100000
  master list distance cutoff = 3.1
  ghost atom cutoff = 3.1
  binsize = 1.55, bins = 7878 130 130
  1 neighbor lists, perpetual/occasional/extra = 1 0 0
  (1) pair granular, perpetual
      attributes: half, newton on, size, history
      pair build: half/size/bin/newton
      stencil: half/bin/3d
      bin: standard
Setting up Verlet run ...
  Unit style    : micro
  Current step  : 0
  Time step     : 1e-05
Per MPI rank memory allocation (min/avg/max) = 287.2 | 287.2 | 287.2 Mbytes
   Step           Lx             Ly             Lz           Press           Pxx            Pyy            Pzz           KinEng         PotEng          Temp          c_1[1]         c_1[2]         c_1[3]    
         0   12210          200            200            0              0              0              0              0              0              0              1.1971759e-13  0              6            
    100000   12210          200            200            0.0033260939   2.6463362e-35  0              0.0099782818   1168185.6      0              5.64075e+10    1.1971759e-13  0              3.326728     
    200000   12210          200            200            0.0011743845  -6.6158336e-36  0              0.0035231536   283184.4       0              1.3673961e+10  1.1971759e-13  0              3.0744914    
    300000   12210          200            200            7.7255719e-05 -3.9694987e-35  0              0.00023176716  2537.4865      0              1.2252614e+08  1.1971759e-13  0              3.0452566    
    400000   12210          200            200            0.00052142856  0.0001017397   0              0.001462546    16503.509      0              7.9689537e+08  1.1971759e-13  0              2.998755     
    500000   12210          200            200            0.0047158466   0.001505816    0              0.012641724    3138.7118      0              1.5155716e+08  1.1971759e-13  0              2.9952538    
    600000   12210          200            200            0.0059439121   0.0012755447   0              0.016556192    160.17995      0              7734516.7      1.1971759e-13  0              2.994506     
    700000   12210          200            200            0.004688212    0.00265716     0              0.011407476    43.870263      0              2118338        1.1971759e-13  0              2.9954498    
    800000   12210          200            200            0.0048531901   0.0024081571   0              0.012151413    7.313392       0              353137.52      1.1971759e-13  0              2.9952962    
    900000   12210          200            200            0.004962446    0.0024446358   0              0.012442702    0.56145048     0              27110.434      1.1971759e-13  0              2.9952432    
   1000000   12210          200            200            0.0048781022   0.002452407    0              0.012181899    0.009103187    0              439.56032      1.1971759e-13  0              2.9952925    
   1100000   12210          200            200            0.0049175406   0.0024485184   0              0.012304103    0.0017528606   0              84.639363      1.1971759e-13  0              2.9952691    
   1200000   12210          200            200            0.0049046078   0.0024497654   0              0.012264058    0.0014837032   0              71.642719      1.1971759e-13  0              2.9952768    
   1300000   12210          200            200            0.0049072378   0.0024495026   0              0.012272211    0.00032491897  0              15.689174      1.1971759e-13  0              2.9952752    
   1400000   12210          200            200            0.0049073591   0.0024494944   0              0.012272583    3.4704908e-05  0              1.6757758      1.1971759e-13  0              2.9952752    
   1500000   12210          200            200            0.0049069315   0.0024495346   0              0.01227126     1.4288182e-06  0              0.06899252     1.1971759e-13  0              2.9952754    
   1600000   12210          200            200            0.0049071777   0.002449511    0              0.012272022    3.2946098e-09  0              0.00015908492  1.1971759e-13  0              2.9952753    
   1700000   12210          200            200            0.004907084    0.0024495201   0              0.012271732    3.8320151e-08  0              0.001850343    1.1971759e-13  0              2.9952753    
   1800000   12210          200            200            0.0049071084   0.0024495177   0              0.012271808    1.2644738e-08  0              0.00061056917  1.1971759e-13  0              2.9952753    
   1900000   12210          200            200            0.004907106    0.0024495179   0              0.0122718      1.8262965e-09  0              8.8185324e-05  1.1971759e-13  0              2.9952753    
   2000000   12210          200            200            0.0049071042   0.0024495181   0              0.012271795    1.2389212e-10  0              5.9823071e-06  1.1971759e-13  0              2.9952753    
   2100000   12210          200            200            0.0049071056   0.002449518    0              0.012271799    1.1942448e-12  0              5.7665806e-08  1.1971759e-13  0              2.9952753    
   2200000   12210          200            200            0.004907105    0.002449518    0              0.012271797    6.7939211e-13  0              3.2805413e-08  1.1971759e-13  0              2.9952753    
   2300000   12210          200            200            0.0049071052   0.002449518    0              0.012271798    4.265711e-13   0              2.0597592e-08  1.1971759e-13  0              2.9952753    
   2400000   12210          200            200            0.0049071052   0.002449518    0              0.012271797    8.4100484e-14  0              4.0609114e-09  1.1971759e-13  0              2.9952753    
   2500000   12210          200            200            0.0049071052   0.002449518    0              0.012271797    8.2035426e-15  0              3.9611971e-10  1.1971759e-13  0              2.9952753    
   2600000   12210          200            200            0.0049071052   0.002449518    0              0.012271798    2.6906822e-16  0              1.2992342e-11  1.1971759e-13  0              2.9952753    
   2700000   12210          200            200            0.0049071052   0.002449518    0              0.012271797    1.8450777e-17  0              8.9092199e-13  1.1971759e-13  0              2.9952753    
   2800000   12210          200            200            0.0049071052   0.002449518    0              0.012271797    2.6995727e-17  0              1.303527e-12   1.1971759e-13  0              2.9952753    
   2900000   12210          200            200            0.0049071052   0.002449518    0              0.012271797    3.9713711e-18  0              1.917633e-13   1.1971759e-13  0              2.9952753    
   3000000   12210          200            200            0.0049071052   0.002449518    0              0.012271797    5.0657881e-19  0              2.4460878e-14  1.1971759e-13  0              2.9952753    
Loop time of 741.843 on 2 procs for 3000000 steps with 5001 atoms

Performance: 3494002.286 ns/day, 0.000 hours/ns, 4043.984 timesteps/s
99.9% CPU use with 2 MPI tasks x 1 OpenMP threads

MPI task timing breakdown:
Section |  min time  |  avg time  |  max time  |%varavg| %total
---------------------------------------------------------------
Pair    | 192.07     | 192.07     | 192.07     |   0.0 | 25.89
Neigh   | 15.225     | 15.225     | 15.226     |   0.0 |  2.05
Comm    | 41.371     | 41.433     | 41.495     |   1.0 |  5.59
Output  | 0.63834    | 0.63839    | 0.63844    |   0.0 |  0.09
Modify  | 431.86     | 432.34     | 432.83     |   2.3 | 58.28
Other   |            | 60.13      |            |       |  8.11

Nlocal:         2500.5 ave        2501 max        2500 min
Histogram: 1 0 0 0 0 0 0 0 0 1
Nghost:            2.5 ave           3 max           2 min
Histogram: 1 0 0 0 0 0 0 0 0 1
Neighs:         1386.5 ave        1387 max        1386 min
Histogram: 1 0 0 0 0 0 0 0 0 1

Total # of neighbors = 2773
Ave neighs/atom = 0.5544891
Neighbor list builds = 164
Dangerous builds = 0
  using 1 OpenMP thread(s) per MPI task
Lattice spacing in x,y,z = 4.08 4.08 4.08
Created orthogonal box = (-6120 -100 -100) to (6120 100 100)
  2 by 1 by 1 MPI processor grid
Created 3000 atoms
  using lattice units in orthogonal box = (-6120 -100 -100) to (6120 100 100)
  create_atoms CPU = 0.002 seconds
Lattice spacing in x,y,z = 3 3 3
Created 2001 atoms
  using lattice units in orthogonal box = (-6120 -100 -100) to (6120 100 100)
  create_atoms CPU = 0.002 seconds
Setting atom values ...
  3000 settings made for diameter
Setting atom values ...
  3000 settings made for mass
Setting atom values ...
  2001 settings made for diameter
Setting atom values ...
  2001 settings made for mass
3000 atoms in group substrate
2001 atoms in group slider1
  1 rigid bodies with 2001 atoms
Generated 0 of 1 mixed pair_coeff terms from geometric mixing rule
Neighbor list info ...
  update every 1 steps, delay 0 steps, check yes
  max neighbors/atom: 2000, page size: 100000
  master list distance cutoff = 3.1
  ghost atom cutoff = 3.1
  binsize = 1.55, bins = 7897 130 130
  1 neighbor lists, perpetual/occasional/extra = 1 0 0
  (1) pair granular, perpetual
      attributes: half, newton on, size, history
      pair build: half/size/bin/newton
      stencil: half/bin/3d
      bin: standard
Setting up Verlet run ...
  Unit style    : micro
  Current step  : 0
  Time step     : 1e-05
Per MPI rank memory allocation (min/avg/max) = 287.9 | 287.9 | 287.9 Mbytes
   Step           Lx             Ly             Lz           Press           Pxx            Pyy            Pzz           KinEng         PotEng          Temp          c_1[1]         c_1[2]         c_1[3]    
         0   12240          200            200            0              0              0              0              0              0              0              1.1971759e-13  0              6            
    100000   12240          200            200            0.0033176902   7.9195502e-35  0              0.0099530707   1168055.4      0              5.6401213e+10  1.1971759e-13  0              3.3267705    
    200000   12240          200            200            0.0011710755   1.3867397e-40  0              0.0035132266   283023.79      0              1.3666206e+10  1.1971759e-13  0              3.0745344    
    300000   12240          200            200            7.7460206e-05  3.660896e-40   0              0.00023238062  2562.4154      0              1.2372987e+08  1.1971759e-13  0              3.0452066    
    400000   12240          200            200            0.00027917384 -5.2796909e-35  0              0.00083752153  15046.44       0              7.2653874e+08  1.1971759e-13  0              2.999514     
    500000   12240          200            200            0.0042682852   0.00030079257  0              0.012504063    3226.9619      0              1.5581844e+08  1.1971759e-13  0              2.9953161    
    600000   12240          200            200            0.0030566388   0.00022294664  0              0.0089469697   257.22209      0              12420334       1.1971759e-13  0              2.9959576    
    700000   12240          200            200            0.0046441256   0.00038780823  0              0.013544568    33.57479       0              1621206.5      1.1971759e-13  0              2.9950913    
    800000   12240          200            200            0.0043855672   0.00038313374  0              0.012773568    3.5375559      0              170815.91      1.1971759e-13  0              2.9952202    
    900000   12240          200            200            0.0041430463   0.00037784192  0              0.012051297    0.50759145     0              24509.774      1.1971759e-13  0              2.9953501    
   1000000   12240          200            200            0.0041856887   0.00037878509  0              0.012178281    0.078206045    0              3776.29        1.1971759e-13  0              2.995328     
   1100000   12240          200            200            0.0042165406   0.00037948405  0              0.012270138    0.0070725986   0              341.51048      1.1971759e-13  0              2.9953113    
   1200000   12240          200            200            0.0042095209   0.00037933161  0              0.012249231    0.0016896861   0              81.588894      1.1971759e-13  0              2.995315     
   1300000   12240          200            200            0.0042056769   0.00037924461  0              0.012237786    9.1190963e-05  0              4.4032852      1.1971759e-13  0              2.995317     
   1400000   12240          200            200            0.0042067811   0.00037926882  0              0.012241074    3.5040899e-05  0              1.6919996      1.1971759e-13  0              2.9953165    
   1500000   12240          200            200            0.0042072504   0.00037927948  0              0.012242472    1.0649353e-06  0              0.051421914    1.1971759e-13  0              2.9953162    
   1600000   12240          200            200            0.0042070824   0.00037927578  0              0.012241972    7.0232079e-07  0              0.033912558    1.1971759e-13  0              2.9953163    
   1700000   12240          200            200            0.0042070265   0.00037927451  0              0.012241805    1.0638205e-08  0              0.00051368085  1.1971759e-13  0              2.9953163    
   1800000   12240          200            200            0.0042070514   0.00037927506  0              0.012241879    1.3649426e-08  0              0.00065908195  1.1971759e-13  0              2.9953163    
   1900000   12240          200            200            0.0042070579   0.0003792752   0              0.012241898    7.9448583e-11  0              3.8362877e-06  1.1971759e-13  0              2.9953163    
   2000000   12240          200            200            0.0042070543   0.00037927512  0              0.012241888    2.5785016e-10  0              1.2450661e-05  1.1971759e-13  0              2.9953163    
   2100000   12240          200            200            0.0042070536   0.00037927511  0              0.012241886    2.6929259e-13  0              1.3003175e-08  1.1971759e-13  0              2.9953163    
   2200000   12240          200            200            0.0042070541   0.00037927512  0              0.012241887    4.7394668e-12  0              2.2885189e-07  1.1971759e-13  0              2.9953163    
[...]
   2900000   14910          200            200            0.0031501488  -0.00059763664  0              0.010048083    2.4806046e-18  0              1.1977952e-13  1.1971759e-13  0              2.9948409    
   3000000   14910          200            200            0.0031501488  -0.00059763664  0              0.010048083    1.6627605e-18  0              8.0288753e-14  1.1971759e-13  0              2.9948409    
Loop time of 725.139 on 2 procs for 3000000 steps with 5001 atoms

Performance: 3574487.052 ns/day, 0.000 hours/ns, 4137.138 timesteps/s
100.0% CPU use with 2 MPI tasks x 1 OpenMP threads

MPI task timing breakdown:
Section |  min time  |  avg time  |  max time  |%varavg| %total
---------------------------------------------------------------
Pair    | 169.55     | 171.71     | 173.88     |  16.5 | 23.68
Neigh   | 18.351     | 18.354     | 18.357     |   0.1 |  2.53
Comm    | 45.022     | 47.254     | 49.485     |  32.5 |  6.52
Output  | 0.65067    | 0.65069    | 0.65071    |   0.0 |  0.09
Modify  | 428.78     | 428.89     | 429        |   0.5 | 59.15
Other   |            | 58.28      |            |       |  8.04

Nlocal:         2500.5 ave        2501 max        2500 min
Histogram: 1 0 0 0 0 0 0 0 0 1
Nghost:            2.5 ave           3 max           2 min
Histogram: 1 0 0 0 0 0 0 0 0 1
Neighs:         1315.5 ave        1316 max        1315 min
Histogram: 1 0 0 0 0 0 0 0 0 1

Total # of neighbors = 2631
Ave neighs/atom = 0.52609478
Neighbor list builds = 164
Dangerous builds = 0
  using 1 OpenMP thread(s) per MPI task
Lattice spacing in x,y,z = 4.98 4.98 4.98
Created orthogonal box = (-7470 -100 -100) to (7470 100 100)
  2 by 1 by 1 MPI processor grid
Created 2999 atoms
  using lattice units in orthogonal box = (-7470 -100 -100) to (7470 100 100)
  create_atoms CPU = 0.001 seconds
Lattice spacing in x,y,z = 3 3 3
Created 2001 atoms
  using lattice units in orthogonal box = (-7470 -100 -100) to (7470 100 100)
  create_atoms CPU = 0.001 seconds
Setting atom values ...
  2999 settings made for diameter
Setting atom values ...
  2999 settings made for mass
Setting atom values ...
  2001 settings made for diameter
Setting atom values ...
  2001 settings made for mass
2999 atoms in group substrate
2001 atoms in group slider1
  1 rigid bodies with 2001 atoms
Generated 0 of 1 mixed pair_coeff terms from geometric mixing rule
Neighbor list info ...
  update every 1 steps, delay 0 steps, check yes
  max neighbors/atom: 2000, page size: 100000
  master list distance cutoff = 3.1
  ghost atom cutoff = 3.1
  binsize = 1.55, bins = 9639 130 130
  1 neighbor lists, perpetual/occasional/extra = 1 0 0
  (1) pair granular, perpetual
      attributes: half, newton on, size, history
      pair build: half/size/bin/newton
      stencil: half/bin/3d
      bin: standard
Setting up Verlet run ...
  Unit style    : micro
  Current step  : 0
  Time step     : 1e-05
Per MPI rank memory allocation (min/avg/max) = 348.5 | 348.5 | 348.5 Mbytes
   Step           Lx             Ly             Lz           Press           Pxx            Pyy            Pzz           KinEng         PotEng          Temp          c_1[1]         c_1[2]         c_1[3]    
         0   14940          200            200            0              0              0              0              0              0              0              1.1971759e-13  0              6            
    100000   14940          200            200            0.0027099773  -4.0551884e-36  0              0.008129932    1162810.1      0              5.6204141e+10  1.1971759e-13  0              3.3288964    
    200000   14940          200            200            0.00094000553  1.297662e-34   0              0.0028200166   274093.84      0              1.3248259e+10  1.1971759e-13  0              3.0782703    
    300000   14940          200            200            3.2615122e-05  8.6511505e-35  0              9.7845366e-05  708.16681      0              34229070       1.1971759e-13  0              3.0450239    
    400000   14940          200            200            9.1368634e-05  5.4069216e-36  0              0.0002741059   5240.8183      0              2.5331367e+08  1.1971759e-13  0              3.0038695    
    500000   14940          200            200            0.0072490294   0.008825623    0              0.012921465    2768.0283      0              1.3379197e+08  1.1971759e-13  0              2.9940339    
    600000   14940          200            200            0.0036241987   0.0042883794   0              0.0065842168   32.718081      0              1581420.5      1.1971759e-13  0              2.9958188    
    700000   14940          200            200            0.005493068    0.0054963079   0              0.010982896    28.502201      0              1377646.9      1.1971759e-13  0              2.9945386    
    800000   14940          200            200            0.0053202761   0.0054502618   0              0.010510567    0.63365732     0              30627.672      1.1971759e-13  0              2.9946582    
    900000   14940          200            200            0.0051605238   0.0054094546   0              0.010072117    0.88609345     0              42829.111      1.1971759e-13  0              2.994778     
   1000000   14940          200            200            0.0051268414   0.0054001477   0              0.0099803765   0.066269602    0              3203.125       1.1971759e-13  0              2.994804     
   1100000   14940          200            200            0.0051352638   0.0054023445   0              0.010003447    0.00073227835  0              35.394495      1.1971759e-13  0              2.9947979    
   1200000   14940          200            200            0.0051430586   0.0054044478   0              0.010024728    0.0020317965   0              98.206386      1.1971759e-13  0              2.994792     
   1300000   14940          200            200            0.0051449363   0.0054049646   0              0.010029844    0.00018926914  0              9.1482778      1.1971759e-13  0              2.9947906    
   1400000   14940          200            200            0.0051446128   0.005404882    0              0.010028957    5.6433045e-07  0              0.027276774    1.1971759e-13  0              2.9947908    
   1500000   14940          200            200            0.0051442356   0.0054047807   0              0.010027926    4.5774225e-06  0              0.2212486      1.1971759e-13  0              2.9947911    
   1600000   14940          200            200            0.0051441335   0.0054047527   0              0.010027648    5.2515272e-07  0              0.025383129    1.1971759e-13  0              2.9947911    
   1700000   14940          200            200            0.0051441448   0.0054047555   0              0.010027679    6.3611193e-11  0              3.0746315e-06  1.1971759e-13  0              2.9947911    
   1800000   14940          200            200            0.0051441629   0.0054047603   0              0.010027728    1.0101641e-08  0              0.00048826034  1.1971759e-13  0              2.9947911    
   1900000   14940          200            200            0.0051441683   0.0054047618   0              0.010027743    1.4224125e-09  0              6.8751963e-05  1.1971759e-13  0              2.9947911    
   2000000   14940          200            200            0.005144168    0.0054047618   0              0.010027742    1.086336e-12   0              5.2507787e-08  1.1971759e-13  0              2.9947911    
   2100000   14940          200            200            0.0051441672   0.0054047615   0              0.01002774     2.1794487e-11  0              1.0534312e-06  1.1971759e-13  0              2.9947911    
   2200000   14940          200            200            0.0051441669   0.0054047614   0              0.010027739    3.7696681e-12  0              1.8220599e-07  1.1971759e-13  0              2.9947911    
   2300000   14940          200            200            0.0051441669   0.0054047614   0              0.010027739    1.4568614e-14  0              7.0417038e-10  1.1971759e-13  0              2.9947911    
   2400000   14940          200            200            0.0051441669   0.0054047615   0              0.010027739    4.5690205e-14  0              2.2084249e-09  1.1971759e-13  0              2.9947911    
   2500000   14940          200            200            0.0051441669   0.0054047615   0              0.010027739    9.7932427e-15  0              4.73354e-10    1.1971759e-13  0              2.9947911    
   2600000   14940          200            200            0.0051441669   0.0054047615   0              0.010027739    7.5825703e-17  0              3.6650168e-12  1.1971759e-13  0              2.9947911    
   2700000   14940          200            200            0.0051441669   0.0054047615   0              0.010027739    1.2913395e-16  0              6.2416581e-12  1.1971759e-13  0              2.9947911    
   2800000   14940          200            200            0.0051441669   0.0054047615   0              0.010027739    1.025488e-17   0              4.9566713e-13  1.1971759e-13  0              2.9947911    
   2900000   14940          200            200            0.0051441669   0.0054047615   0              0.010027739    3.8718384e-19  0              1.8714436e-14  1.1971759e-13  0              2.9947911    
   3000000   14940          200            200            0.0051441669   0.0054047615   0              0.010027739    4.8167463e-20  0              2.3281626e-15  1.1971759e-13  0              2.9947911    
Loop time of 722.974 on 2 procs for 3000000 steps with 5000 atoms

Performance: 3585192.810 ns/day, 0.000 hours/ns, 4149.529 timesteps/s
100.0% CPU use with 2 MPI tasks x 1 OpenMP threads

MPI task timing breakdown:
Section |  min time  |  avg time  |  max time  |%varavg| %total
---------------------------------------------------------------
Pair    | 168.74     | 169.44     | 170.15     |   5.4 | 23.44
Neigh   | 18.433     | 18.435     | 18.437     |   0.1 |  2.55
Comm    | 44.149     | 45.259     | 46.369     |  16.5 |  6.26
Output  | 0.63751    | 0.63753    | 0.63754    |   0.0 |  0.09
Modify  | 430.88     | 431.31     | 431.75     |   2.1 | 59.66
Other   |            | 57.89      |            |       |  8.01

Nlocal:           2500 ave        2501 max        2499 min
Histogram: 1 0 0 0 0 0 0 0 0 1
Nghost:              2 ave           3 max           1 min
Histogram: 1 0 0 0 0 0 0 0 0 1
Neighs:         1324.5 ave        1325 max        1324 min
Histogram: 1 0 0 0 0 0 0 0 0 1

Total # of neighbors = 2649
Ave neighs/atom = 0.5298
Neighbor list builds = 164
Dangerous builds = 0
  using 1 OpenMP thread(s) per MPI task
Lattice spacing in x,y,z = 4.99 4.99 4.99
Created orthogonal box = (-7485 -100 -100) to (7485 100 100)
  2 by 1 by 1 MPI processor grid
Created 3000 atoms
  using lattice units in orthogonal box = (-7485 -100 -100) to (7485 100 100)
  create_atoms CPU = 0.001 seconds
Lattice spacing in x,y,z = 3 3 3
Created 2001 atoms
  using lattice units in orthogonal box = (-7485 -100 -100) to (7485 100 100)
  create_atoms CPU = 0.001 seconds
Setting atom values ...
  3000 settings made for diameter
Setting atom values ...
  3000 settings made for mass
Setting atom values ...
  2001 settings made for diameter
Setting atom values ...
  2001 settings made for mass
3000 atoms in group substrate
2001 atoms in group slider1
  1 rigid bodies with 2001 atoms
Generated 0 of 1 mixed pair_coeff terms from geometric mixing rule
Neighbor list info ...
  update every 1 steps, delay 0 steps, check yes
  max neighbors/atom: 2000, page size: 100000
  master list distance cutoff = 3.1
  ghost atom cutoff = 3.1
  binsize = 1.55, bins = 9659 130 130
  1 neighbor lists, perpetual/occasional/extra = 1 0 0
  (1) pair granular, perpetual
      attributes: half, newton on, size, history
      pair build: half/size/bin/newton
      stencil: half/bin/3d
      bin: standard
Setting up Verlet run ...
  Unit style    : micro
  Current step  : 0
  Time step     : 1e-05
Per MPI rank memory allocation (min/avg/max) = 349.2 | 349.2 | 349.2 Mbytes
   Step           Lx             Ly             Lz           Press           Pxx            Pyy            Pzz           KinEng         PotEng          Temp          c_1[1]         c_1[2]         c_1[3]    
         0   14970          200            200            0              0              0              0              0              0              0              1.1971759e-13  0              6            
    100000   14970          200            200            0.0027045556  -1.7267457e-34  0              0.0081136667   1162816.1      0              5.6148229e+10  1.1971759e-13  0              3.3288931    
    200000   14970          200            200            0.00093812732  2.6980417e-35  0              0.002814382    274096.31      0              1.323513e+10   1.1971759e-13  0              3.0782701    
    300000   14970          200            200            3.2482389e-05  2.077608e-40   0              9.7447166e-05  705.312        0              34056992       1.1971759e-13  0              3.0450265    
    400000   14970          200            200            9.0877413e-05  4.3168986e-35  0              0.00027263224  5207.5452      0              2.5145372e+08  1.1971759e-13  0              3.0038875    
    500000   14970          200            200            0.010315264    0.017449987    0              0.013495804    2689.3913      0              1.2986108e+08  1.1971759e-13  0              2.9939198    
    600000   14970          200            200            0.0050615313   0.0081776849   0              0.007006909    134.97948      0              6517676.2      1.1971759e-13  0              2.9956662    
    700000   14970          200            200            0.0068341183   0.01052647     0              0.009975885    53.578259      0              2587102.4      1.1971759e-13  0              2.9948035    
    800000   14970          200            200            0.0069633956   0.010420854    0              0.010469333    1.7454233      0              84280.244      1.1971759e-13  0              2.994684     
    900000   14970          200            200            0.0067285354   0.010336489    0              0.0098491168   0.29611688     0              14298.424      1.1971759e-13  0              2.9948439    
   1000000   14970          200            200            0.0067875184   0.010364426    0              0.0099981295   0.12736383     0              6149.9435      1.1971759e-13  0              2.9948041    
   1100000   14970          200            200            0.0068008143   0.010370304    0              0.010032139    0.0019005176   0              91.769193      1.1971759e-13  0              2.9947956    
   1200000   14970          200            200            0.0067885462   0.010364685    0              0.010000953    0.0011362509   0              54.86549       1.1971759e-13  0              2.9948037    
   1300000   14970          200            200            0.0067907774   0.010365738    0              0.010006594    0.0002851151   0              13.767188      1.1971759e-13  0              2.9948022    
   1400000   14970          200            200            0.0067916963   0.01036615     0              0.010008939    9.8739372e-07  0              0.047677709    1.1971759e-13  0              2.9948016    
   1500000   14970          200            200            0.0067910959   0.010365874    0              0.010007414    3.7798809e-06  0              0.18251692     1.1971759e-13  0              2.994802     
   1600000   14970          200            200            0.0067911688   0.010365909    0              0.010007598    5.9226771e-07  0              0.028598488    1.1971759e-13  0              2.994802     
   1700000   14970          200            200            0.0067912256   0.010365934    0              0.010007743    9.0409385e-11  0              4.3655456e-06  1.1971759e-13  0              2.9948019    
   1800000   14970          200            200            0.0067911972   0.010365921    0              0.01000767     1.1350083e-08  0              0.00054805489  1.1971759e-13  0              2.994802     
   1900000   14970          200            200            0.0067911989   0.010365922    0              0.010007675    1.1273695e-09  0              5.4436639e-05  1.1971759e-13  0              2.994802     
   2000000   14970          200            200            0.0067912022   0.010365924    0              0.010007683    1.1109577e-11  0              5.3644172e-07  1.1971759e-13  0              2.994802     
   2100000   14970          200            200            0.0067912009   0.010365923    0              0.01000768     3.1394315e-11  0              1.5159191e-06  1.1971759e-13  0              2.994802     
   2200000   14970          200            200            0.0067912009   0.010365923    0              0.01000768     1.9193608e-12  0              9.2679064e-08  1.1971759e-13  0              2.994802     
   2300000   14970          200            200            0.006791201    0.010365923    0              0.01000768     9.0112071e-14  0              4.3511894e-09  1.1971759e-13  0              2.994802     
   2400000   14970          200            200            0.006791201    0.010365923    0              0.01000768     8.0882133e-14  0              3.9055087e-09  1.1971759e-13  0              2.994802     
   2500000   14970          200            200            0.006791201    0.010365923    0              0.01000768     2.9946061e-15  0              1.4459881e-10  1.1971759e-13  0              2.994802     
   2600000   14970          200            200            0.006791201    0.010365923    0              0.01000768     4.1304353e-16  0              1.9944394e-11  1.1971759e-13  0              2.994802     
   2700000   14970          200            200            0.006791201    0.010365923    0              0.01000768     1.7728262e-16  0              8.5603432e-12  1.1971759e-13  0              2.994802     
   2800000   14970          200            200            0.006791201    0.010365923    0              0.01000768     1.8378336e-18  0              8.8742406e-14  1.1971759e-13  0              2.994802     
   2900000   14970          200            200            0.006791201    0.010365923    0              0.01000768     6.5472834e-19  0              3.1614488e-14  1.1971759e-13  0              2.994802     
   3000000   14970          200            200            0.006791201    0.010365923    0              0.01000768     1.0289421e-17  0              4.968393e-13   1.1971759e-13  0              2.994802     
Loop time of 721.425 on 2 procs for 3000000 steps with 5001 atoms

Performance: 3592888.057 ns/day, 0.000 hours/ns, 4158.435 timesteps/s
99.9% CPU use with 2 MPI tasks x 1 OpenMP threads

MPI task timing breakdown:
Section |  min time  |  avg time  |  max time  |%varavg| %total
---------------------------------------------------------------
Pair    | 168.13     | 169.76     | 171.39     |  12.5 | 23.53
Neigh   | 18.49      | 18.492     | 18.494     |   0.0 |  2.56
Comm    | 45.038     | 46.622     | 48.206     |  23.2 |  6.46
Output  | 0.63939    | 0.63941    | 0.63942    |   0.0 |  0.09
Modify  | 427.04     | 427.32     | 427.61     |   1.4 | 59.23
Other   |            | 58.59      |            |       |  8.12

Nlocal:         2500.5 ave        2501 max        2500 min
Histogram: 1 0 0 0 0 0 0 0 0 1
Nghost:            2.5 ave           3 max           2 min
Histogram: 1 0 0 0 0 0 0 0 0 1
Neighs:         1314.5 ave        1315 max        1314 min
Histogram: 1 0 0 0 0 0 0 0 0 1

Total # of neighbors = 2629
Ave neighs/atom = 0.52569486
Neighbor list builds = 164
Dangerous builds = 0
  using 1 OpenMP thread(s) per MPI task
Total wall time: 20:17:27
