ITEM: TIMESTEP
1600000
ITEM: NUMBER OF ATOMS
2751
ITEM: BOX BOUNDS pp pp pp
-2.4750000000000000e+03 2.4750000000000000e+03
-1.0000000000000000e+02 1.0000000000000000e+02
-1.0000000000000000e+02 1.0000000000000000e+02
ITEM: ATOMS id type diameter mass xu yu zu
1 1 3 31.1018 -2475 0 0
2 1 3 31.1018 -2472 0 0
3 1 3 31.1018 -2469 0 0
4 1 3 31.1018 -2466 0 0
5 1 3 31.1018 -2463 0 0
6 1 3 31.1018 -2460 0 0
7 1 3 31.1018 -2457 0 0
8 1 3 31.1018 -2454 0 0
9 1 3 31.1018 -2451 0 0
10 1 3 31.1018 -2448 0 0
11 1 3 31.1018 -2445 0 0
12 1 3 31.1018 -2442 0 0
13 1 3 31.1018 -2439 0 0
14 1 3 31.1018 -2436 0 0
15 1 3 31.1018 -2433 0 0
16 1 3 31.1018 -2430 0 0
17 1 3 31.1018 -2427 0 0
18 1 3 31.1018 -2424 0 0
19 1 3 31.1018 -2421 0 0
20 1 3 31.1018 -2418 0 0
21 1 3 31.1018 -2415 0 0
22 1 3 31.1018 -2412 0 0
23 1 3 31.1018 -2409 0 0
24 1 3 31.1018 -2406 0 0
25 1 3 31.1018 -2403 0 0
26 1 3 31.1018 -2400 0 0
27 1 3 31.1018 -2397 0 0
28 1 3 31.1018 -2394 0 0
29 1 3 31.1018 -2391 0 0
30 1 3 31.1018 -2388 0 0
31 1 3 31.1018 -2385 0 0
32 1 3 31.1018 -2382 0 0
33 1 3 31.1018 -2379 0 0
34 1 3 31.1018 -2376 0 0
35 1 3 31.1018 -2373 0 0
36 1 3 31.1018 -2370 0 0
37 1 3 31.1018 -2367 0 0
38 1 3 31.1018 -2364 0 0
39 1 3 31.1018 -2361 0 0
40 1 3 31.1018 -2358 0 0
41 1 3 31.1018 -2355 0 0
42 1 3 31.1018 -2352 0 0
43 1 3 31.1018 -2349 0 0
44 1 3 31.1018 -2346 0 0
45 1 3 31.1018 -2343 0 0
46 1 3 31.1018 -2340 0 0
47 1 3 31.1018 -2337 0 0
48 1 3 31.1018 -2334 0 0
49 1 3 31.1018 -2331 0 0
50 1 3 31.1018 -2328 0 0
51 1 3 31.1018 -2325 0 0
52 1 3 31.1018 -2322 0 0
53 1 3 31.1018 -2319 0 0
54 1 3 31.1018 -2316 0 0
55 1 3 31.1018 -2313 0 0
56 1 3 31.1018 -2310 0 0
57 1 3 31.1018 -2307 0 0
58 1 3 31.1018 -2304 0 0
59 1 3 31.1018 -2301 0 0
60 1 3 31.1018 -2298 0 0
61 1 3 31.1018 -2295 0 0
62 1 3 31.1018 -2292 0 0
63 1 3 31.1018 -2289 0 0
64 1 3 31.1018 -2286 0 0
65 1 3 31.1018 -2283 0 0
66 1 3 31.1018 -2280 0 0
67 1 3 31.1018 -2277 0 0
68 1 3 31.1018 -2274 0 0
69 1 3 31.1018 -2271 0 0
70 1 3 31.1018 -2268 0 0
71 1 3 31.1018 -2265 0 0
72 1 3 31.1018 -2262 0 0
73 1 3 31.1018 -2259 0 0
74 1 3 31.1018 -2256 0 0
75 1 3 31.1018 -2253 0 0
76 1 3 31.1018 -2250 0 0
77 1 3 31.1018 -2247 0 0
78 1 3 31.1018 -2244 0 0
79 1 3 31.1018 -2241 0 0
80 1 3 31.1018 -2238 0 0
81 1 3 31.1018 -2235 0 0
82 1 3 31.1018 -2232 0 0
83 1 3 31.1018 -2229 0 0
84 1 3 31.1018 -2226 0 0
85 1 3 31.1018 -2223 0 0
86 1 3 31.1018 -2220 0 0
87 1 3 31.1018 -2217 0 0
88 1 3 31.1018 -2214 0 0
89 1 3 31.1018 -2211 0 0
90 1 3 31.1018 -2208 0 0
91 1 3 31.1018 -2205 0 0
92 1 3 31.1018 -2202 0 0
93 1 3 31.1018 -2199 0 0
94 1 3 31.1018 -2196 0 0
95 1 3 31.1018 -2193 0 0
96 1 3 31.1018 -2190 0 0
97 1 3 31.1018 -2187 0 0
98 1 3 31.1018 -2184 0 0
99 1 3 31.1018 -2181 0 0
100 1 3 31.1018 -2178 0 0
101 1 3 31.1018 -2175 0 0
102 1 3 31.1018 -2172 0 0
103 1 3 31.1018 -2169 0 0
104 1 3 31.1018 -2166 0 0
105 1 3 31.1018 -2163 0 0
106 1 3 31.1018 -2160 0 0
107 1 3 31.1018 -2157 0 0
108 1 3 31.1018 -2154 0 0
109 1 3 31.1018 -2151 0 0
110 1 3 31.1018 -2148 0 0
111 1 3 31.1018 -2145 0 0
112 1 3 31.1018 -2142 0 0
113 1 3 31.1018 -2139 0 0
114 1 3 31.1018 -2136 0 0
115 1 3 31.1018 -2133 0 0
116 1 3 31.1018 -2130 0 0
117 1 3 31.1018 -2127 0 0
118 1 3 31.1018 -2124 0 0
119 1 3 31.1018 -2121 0 0
120 1 3 31.1018 -2118 0 0
121 1 3 31.1018 -2115 0 0
122 1 3 31.1018 -2112 0 0
123 1 3 31.1018 -2109 0 0
124 1 3 31.1018 -2106 0 0
125 1 3 31.1018 -2103 0 0
126 1 3 31.1018 -2100 0 0
127 1 3 31.1018 -2097 0 0
128 1 3 31.1018 -2094 0 0
129 1 3 31.1018 -2091 0 0
130 1 3 31.1018 -2088 0 0
131 1 3 31.1018 -2085 0 0
132 1 3 31.1018 -2082 0 0
133 1 3 31.1018 -2079 0 0
134 1 3 31.1018 -2076 0 0
135 1 3 31.1018 -2073 0 0
136 1 3 31.1018 -2070 0 0
137 1 3 31.1018 -2067 0 0
138 1 3 31.1018 -2064 0 0
139 1 3 31.1018 -2061 0 0
140 1 3 31.1018 -2058 0 0
141 1 3 31.1018 -2055 0 0
142 1 3 31.1018 -2052 0 0
143 1 3 31.1018 -2049 0 0
144 1 3 31.1018 -2046 0 0
145 1 3 31.1018 -2043 0 0
146 1 3 31.1018 -2040 0 0
147 1 3 31.1018 -2037 0 0
148 1 3 31.1018 -2034 0 0
149 1 3 31.1018 -2031 0 0
150 1 3 31.1018 -2028 0 0
151 1 3 31.1018 -2025 0 0
152 1 3 31.1018 -2022 0 0
153 1 3 31.1018 -2019 0 0
154 1 3 31.1018 -2016 0 0
155 1 3 31.1018 -2013 0 0
156 1 3 31.1018 -2010 0 0
157 1 3 31.1018 -2007 0 0
158 1 3 31.1018 -2004 0 0
159 1 3 31.1018 -2001 0 0
160 1 3 31.1018 -1998 0 0
161 1 3 31.1018 -1995 0 0
162 1 3 31.1018 -1992 0 0
163 1 3 31.1018 -1989 0 0
164 1 3 31.1018 -1986 0 0
165 1 3 31.1018 -1983 0 0
166 1 3 31.1018 -1980 0 0
167 1 3 31.1018 -1977 0 0
168 1 3 31.1018 -1974 0 0
169 1 3 31.1018 -1971 0 0
170 1 3 31.1018 -1968 0 0
171 1 3 31.1018 -1965 0 0
172 1 3 31.1018 -1962 0 0
173 1 3 31.1018 -1959 0 0
174 1 3 31.1018 -1956 0 0
175 1 3 31.1018 -1953 0 0
176 1 3 31.1018 -1950 0 0
177 1 3 31.1018 -1947 0 0
178 1 3 31.1018 -1944 0 0
179 1 3 31.1018 -1941 0 0
180 1 3 31.1018 -1938 0 0
181 1 3 31.1018 -1935 0 0
182 1 3 31.1018 -1932 0 0
183 1 3 31.1018 -1929 0 0
184 1 3 31.1018 -1926 0 0
185 1 3 31.1018 -1923 0 0
186 1 3 31.1018 -1920 0 0
187 1 3 31.1018 -1917 0 0
188 1 3 31.1018 -1914 0 0
189 1 3 31.1018 -1911 0 0
190 1 3 31.1018 -1908 0 0
191 1 3 31.1018 -1905 0 0
192 1 3 31.1018 -1902 0 0
193 1 3 31.1018 -1899 0 0
194 1 3 31.1018 -1896 0 0
195 1 3 31.1018 -1893 0 0
196 1 3 31.1018 -1890 0 0
197 1 3 31.1018 -1887 0 0
198 1 3 31.1018 -1884 0 0
199 1 3 31.1018 -1881 0 0
200 1 3 31.1018 -1878 0 0
201 1 3 31.1018 -1875 0 0
202 1 3 31.1018 -1872 0 0
203 1 3 31.1018 -1869 0 0
204 1 3 31.1018 -1866 0 0
205 1 3 31.1018 -1863 0 0
206 1 3 31.1018 -1860 0 0
207 1 3 31.1018 -1857 0 0
208 1 3 31.1018 -1854 0 0
209 1 3 31.1018 -1851 0 0
210 1 3 31.1018 -1848 0 0
211 1 3 31.1018 -1845 0 0
212 1 3 31.1018 -1842 0 0
213 1 3 31.1018 -1839 0 0
214 1 3 31.1018 -1836 0 0
215 1 3 31.1018 -1833 0 0
216 1 3 31.1018 -1830 0 0
217 1 3 31.1018 -1827 0 0
218 1 3 31.1018 -1824 0 0
219 1 3 31.1018 -1821 0 0
220 1 3 31.1018 -1818 0 0
221 1 3 31.1018 -1815 0 0
222 1 3 31.1018 -1812 0 0
223 1 3 31.1018 -1809 0 0
224 1 3 31.1018 -1806 0 0
225 1 3 31.1018 -1803 0 0
226 1 3 31.1018 -1800 0 0
227 1 3 31.1018 -1797 0 0
228 1 3 31.1018 -1794 0 0
229 1 3 31.1018 -1791 0 0
230 1 3 31.1018 -1788 0 0
231 1 3 31.1018 -1785 0 0
232 1 3 31.1018 -1782 0 0
233 1 3 31.1018 -1779 0 0
234 1 3 31.1018 -1776 0 0
235 1 3 31.1018 -1773 0 0
236 1 3 31.1018 -1770 0 0
237 1 3 31.1018 -1767 0 0
238 1 3 31.1018 -1764 0 0
239 1 3 31.1018 -1761 0 0
240 1 3 31.1018 -1758 0 0
241 1 3 31.1018 -1755 0 0
242 1 3 31.1018 -1752 0 0
243 1 3 31.1018 -1749 0 0
244 1 3 31.1018 -1746 0 0
245 1 3 31.1018 -1743 0 0
246 1 3 31.1018 -1740 0 0
247 1 3 31.1018 -1737 0 0
248 1 3 31.1018 -1734 0 0
249 1 3 31.1018 -1731 0 0
250 1 3 31.1018 -1728 0 0
251 1 3 31.1018 -1725 0 0
252 1 3 31.1018 -1722 0 0
253 1 3 31.1018 -1719 0 0
254 1 3 31.1018 -1716 0 0
255 1 3 31.1018 -1713 0 0
256 1 3 31.1018 -1710 0 0
257 1 3 31.1018 -1707 0 0
258 1 3 31.1018 -1704 0 0
259 1 3 31.1018 -1701 0 0
260 1 3 31.1018 -1698 0 0
261 1 3 31.1018 -1695 0 0
262 1 3 31.1018 -1692 0 0
263 1 3 31.1018 -1689 0 0
264 1 3 31.1018 -1686 0 0
265 1 3 31.1018 -1683 0 0
266 1 3 31.1018 -1680 0 0
267 1 3 31.1018 -1677 0 0
268 1 3 31.1018 -1674 0 0
269 1 3 31.1018 -1671 0 0
270 1 3 31.1018 -1668 0 0
271 1 3 31.1018 -1665 0 0
272 1 3 31.1018 -1662 0 0
273 1 3 31.1018 -1659 0 0
274 1 3 31.1018 -1656 0 0
275 1 3 31.1018 -1653 0 0
276 1 3 31.1018 -1650 0 0
277 1 3 31.1018 -1647 0 0
278 1 3 31.1018 -1644 0 0
279 1 3 31.1018 -1641 0 0
280 1 3 31.1018 -1638 0 0
281 1 3 31.1018 -1635 0 0
282 1 3 31.1018 -1632 0 0
283 1 3 31.1018 -1629 0 0
284 1 3 31.1018 -1626 0 0
285 1 3 31.1018 -1623 0 0
286 1 3 31.1018 -1620 0 0
287 1 3 31.1018 -1617 0 0
288 1 3 31.1018 -1614 0 0
289 1 3 31.1018 -1611 0 0
290 1 3 31.1018 -1608 0 0
291 1 3 31.1018 -1605 0 0
292 1 3 31.1018 -1602 0 0
293 1 3 31.1018 -1599 0 0
294 1 3 31.1018 -1596 0 0
295 1 3 31.1018 -1593 0 0
296 1 3 31.1018 -1590 0 0
297 1 3 31.1018 -1587 0 0
298 1 3 31.1018 -1584 0 0
299 1 3 31.1018 -1581 0 0
300 1 3 31.1018 -1578 0 0
301 1 3 31.1018 -1575 0 0
302 1 3 31.1018 -1572 0 0
303 1 3 31.1018 -1569 0 0
304 1 3 31.1018 -1566 0 0
305 1 3 31.1018 -1563 0 0
306 1 3 31.1018 -1560 0 0
307 1 3 31.1018 -1557 0 0
308 1 3 31.1018 -1554 0 0
309 1 3 31.1018 -1551 0 0
310 1 3 31.1018 -1548 0 0
311 1 3 31.1018 -1545 0 0
312 1 3 31.1018 -1542 0 0
313 1 3 31.1018 -1539 0 0
314 1 3 31.1018 -1536 0 0
315 1 3 31.1018 -1533 0 0
316 1 3 31.1018 -1530 0 0
317 1 3 31.1018 -1527 0 0
318 1 3 31.1018 -1524 0 0
319 1 3 31.1018 -1521 0 0
320 1 3 31.1018 -1518 0 0
321 1 3 31.1018 -1515 0 0
322 1 3 31.1018 -1512 0 0
323 1 3 31.1018 -1509 0 0
324 1 3 31.1018 -1506 0 0
325 1 3 31.1018 -1503 0 0
326 1 3 31.1018 -1500 0 0
327 1 3 31.1018 -1497 0 0
328 1 3 31.1018 -1494 0 0
329 1 3 31.1018 -1491 0 0
330 1 3 31.1018 -1488 0 0
331 1 3 31.1018 -1485 0 0
332 1 3 31.1018 -1482 0 0
333 1 3 31.1018 -1479 0 0
334 1 3 31.1018 -1476 0 0
335 1 3 31.1018 -1473 0 0
336 1 3 31.1018 -1470 0 0
337 1 3 31.1018 -1467 0 0
338 1 3 31.1018 -1464 0 0
339 1 3 31.1018 -1461 0 0
340 1 3 31.1018 -1458 0 0
341 1 3 31.1018 -1455 0 0
342 1 3 31.1018 -1452 0 0
343 1 3 31.1018 -1449 0 0
344 1 3 31.1018 -1446 0 0
345 1 3 31.1018 -1443 0 0
346 1 3 31.1018 -1440 0 0
347 1 3 31.1018 -1437 0 0
348 1 3 31.1018 -1434 0 0
349 1 3 31.1018 -1431 0 0
350 1 3 31.1018 -1428 0 0
351 1 3 31.1018 -1425 0 0
352 1 3 31.1018 -1422 0 0
353 1 3 31.1018 -1419 0 0
354 1 3 31.1018 -1416 0 0
355 1 3 31.1018 -1413 0 0
356 1 3 31.1018 -1410 0 0
357 1 3 31.1018 -1407 0 0
358 1 3 31.1018 -1404 0 0
359 1 3 31.1018 -1401 0 0
360 1 3 31.1018 -1398 0 0
361 1 3 31.1018 -1395 0 0
362 1 3 31.1018 -1392 0 0
363 1 3 31.1018 -1389 0 0
364 1 3 31.1018 -1386 0 0
365 1 3 31.1018 -1383 0 0
366 1 3 31.1018 -1380 0 0
367 1 3 31.1018 -1377 0 0
368 1 3 31.1018 -1374 0 0
369 1 3 31.1018 -1371 0 0
370 1 3 31.1018 -1368 0 0
371 1 3 31.1018 -1365 0 0
372 1 3 31.1018 -1362 0 0
373 1 3 31.1018 -1359 0 0
374 1 3 31.1018 -1356 0 0
375 1 3 31.1018 -1353 0 0
376 1 3 31.1018 -1350 0 0
377 1 3 31.1018 -1347 0 0
378 1 3 31.1018 -1344 0 0
379 1 3 31.1018 -1341 0 0
380 1 3 31.1018 -1338 0 0
381 1 3 31.1018 -1335 0 0
382 1 3 31.1018 -1332 0 0
383 1 3 31.1018 -1329 0 0
384 1 3 31.1018 -1326 0 0
385 1 3 31.1018 -1323 0 0
386 1 3 31.1018 -1320 0 0
387 1 3 31.1018 -1317 0 0
388 1 3 31.1018 -1314 0 0
389 1 3 31.1018 -1311 0 0
390 1 3 31.1018 -1308 0 0
391 1 3 31.1018 -1305 0 0
392 1 3 31.1018 -1302 0 0
393 1 3 31.1018 -1299 0 0
394 1 3 31.1018 -1296 0 0
395 1 3 31.1018 -1293 0 0
396 1 3 31.1018 -1290 0 0
397 1 3 31.1018 -1287 0 0
398 1 3 31.1018 -1284 0 0
399 1 3 31.1018 -1281 0 0
400 1 3 31.1018 -1278 0 0
401 1 3 31.1018 -1275 0 0
402 1 3 31.1018 -1272 0 0
403 1 3 31.1018 -1269 0 0
404 1 3 31.1018 -1266 0 0
405 1 3 31.1018 -1263 0 0
406 1 3 31.1018 -1260 0 0
407 1 3 31.1018 -1257 0 0
408 1 3 31.1018 -1254 0 0
409 1 3 31.1018 -1251 0 0
410 1 3 31.1018 -1248 0 0
411 1 3 31.1018 -1245 0 0
412 1 3 31.1018 -1242 0 0
413 1 3 31.1018 -1239 0 0
1651 2 3 31.1018 -1654.5 0 2.59757290078365477
1652 2 3 31.1018 -1651.5 0 2.59757290078365477
1653 2 3 31.1018 -1648.5 0 2.59757290078365477
1654 2 3 31.1018 -1645.5 0 2.59757290078365477
1655 2 3 31.1018 -1642.5 0 2.59757290078365477
1656 2 3 31.1018 -1639.5 0 2.59757290078365477
1657 2 3 31.1018 -1636.5 0 2.59757290078365477
1658 2 3 31.1018 -1633.5 0 2.59757290078365477
1659 2 3 31.1018 -1630.5 0 2.59757290078365477
1660 2 3 31.1018 -1627.5 0 2.59757290078365477
1661 2 3 31.1018 -1624.5 0 2.59757290078365477
1662 2 3 31.1018 -1621.5 0 2.59757290078365477
1663 2 3 31.1018 -1618.5 0 2.59757290078365477
1664 2 3 31.1018 -1615.5 0 2.59757290078365477
1665 2 3 31.1018 -1612.5 0 2.59757290078365477
1666 2 3 31.1018 -1609.5 0 2.59757290078365477
1667 2 3 31.1018 -1606.5 0 2.59757290078365477
1668 2 3 31.1018 -1603.5 0 2.59757290078365477
1669 2 3 31.1018 -1600.5 0 2.59757290078365477
1670 2 3 31.1018 -1597.5 0 2.59757290078365477
1671 2 3 31.1018 -1594.5 0 2.59757290078365477
1672 2 3 31.1018 -1591.5 0 2.59757290078365477
1673 2 3 31.1018 -1588.5 0 2.59757290078365477
1674 2 3 31.1018 -1585.5 0 2.59757290078365477
1675 2 3 31.1018 -1582.5 0 2.59757290078365477
1676 2 3 31.1018 -1579.5 0 2.59757290078365477
1677 2 3 31.1018 -1576.5 0 2.59757290078365477
1678 2 3 31.1018 -1573.5 0 2.59757290078365477
1679 2 3 31.1018 -1570.5 0 2.59757290078365477
1680 2 3 31.1018 -1567.5 0 2.59757290078365477
1681 2 3 31.1018 -1564.5 0 2.59757290078365477
1682 2 3 31.1018 -1561.5 0 2.59757290078365477
1683 2 3 31.1018 -1558.5 0 2.59757290078365477
1684 2 3 31.1018 -1555.5 0 2.59757290078365477
1685 2 3 31.1018 -1552.5 0 2.59757290078365477
1686 2 3 31.1018 -1549.5 0 2.59757290078365477
1687 2 3 31.1018 -1546.5 0 2.59757290078365477
1688 2 3 31.1018 -1543.5 0 2.59757290078365477
1689 2 3 31.1018 -1540.5 0 2.59757290078365477
1690 2 3 31.1018 -1537.5 0 2.59757290078365477
1691 2 3 31.1018 -1534.5 0 2.59757290078365477
1692 2 3 31.1018 -1531.5 0 2.59757290078365477
1693 2 3 31.1018 -1528.5 0 2.59757290078365477
1694 2 3 31.1018 -1525.5 0 2.59757290078365477
1695 2 3 31.1018 -1522.5 0 2.59757290078365477
1696 2 3 31.1018 -1519.5 0 2.59757290078365477
1697 2 3 31.1018 -1516.5 0 2.59757290078365477
1698 2 3 31.1018 -1513.5 0 2.59757290078365477
1699 2 3 31.1018 -1510.5 0 2.59757290078365477
1700 2 3 31.1018 -1507.5 0 2.59757290078365477
1701 2 3 31.1018 -1504.5 0 2.59757290078365477
1702 2 3 31.1018 -1501.5 0 2.59757290078365477
1703 2 3 31.1018 -1498.5 0 2.59757290078365477
1704 2 3 31.1018 -1495.5 0 2.59757290078365477
1705 2 3 31.1018 -1492.5 0 2.59757290078365477
1706 2 3 31.1018 -1489.5 0 2.59757290078365477
1707 2 3 31.1018 -1486.5 0 2.59757290078365477
1708 2 3 31.1018 -1483.5 0 2.59757290078365477
1709 2 3 31.1018 -1480.5 0 2.59757290078365477
1710 2 3 31.1018 -1477.5 0 2.59757290078365477
1711 2 3 31.1018 -1474.5 0 2.59757290078365477
1712 2 3 31.1018 -1471.5 0 2.59757290078365477
1713 2 3 31.1018 -1468.5 0 2.59757290078365477
1714 2 3 31.1018 -1465.5 0 2.59757290078365477
1715 2 3 31.1018 -1462.5 0 2.59757290078365477
1716 2 3 31.1018 -1459.5 0 2.59757290078365477
1717 2 3 31.1018 -1456.5 0 2.59757290078365477
1718 2 3 31.1018 -1453.5 0 2.59757290078365477
1719 2 3 31.1018 -1450.5 0 2.59757290078365477
1720 2 3 31.1018 -1447.5 0 2.59757290078365477
1721 2 3 31.1018 -1444.5 0 2.59757290078365477
1722 2 3 31.1018 -1441.5 0 2.59757290078365477
1723 2 3 31.1018 -1438.5 0 2.59757290078365477
1724 2 3 31.1018 -1435.5 0 2.59757290078365477
1725 2 3 31.1018 -1432.5 0 2.59757290078365477
1726 2 3 31.1018 -1429.5 0 2.59757290078365477
1727 2 3 31.1018 -1426.5 0 2.59757290078365477
1728 2 3 31.1018 -1423.5 0 2.59757290078365477
1729 2 3 31.1018 -1420.5 0 2.59757290078365477
1730 2 3 31.1018 -1417.5 0 2.59757290078365477
1731 2 3 31.1018 -1414.5 0 2.59757290078365477
1732 2 3 31.1018 -1411.5 0 2.59757290078365477
1733 2 3 31.1018 -1408.5 0 2.59757290078365477
1734 2 3 31.1018 -1405.5 0 2.59757290078365477
1735 2 3 31.1018 -1402.5 0 2.59757290078365477
1736 2 3 31.1018 -1399.5 0 2.59757290078365477
1737 2 3 31.1018 -1396.5 0 2.59757290078365477
1738 2 3 31.1018 -1393.5 0 2.59757290078365477
1739 2 3 31.1018 -1390.5 0 2.59757290078365477
1740 2 3 31.1018 -1387.5 0 2.59757290078365477
1741 2 3 31.1018 -1384.5 0 2.59757290078365477
1742 2 3 31.1018 -1381.5 0 2.59757290078365477
1743 2 3 31.1018 -1378.5 0 2.59757290078365477
1744 2 3 31.1018 -1375.5 0 2.59757290078365477
1745 2 3 31.1018 -1372.5 0 2.59757290078365477
1746 2 3 31.1018 -1369.5 0 2.59757290078365477
1747 2 3 31.1018 -1366.5 0 2.59757290078365477
1748 2 3 31.1018 -1363.5 0 2.59757290078365477
1749 2 3 31.1018 -1360.5 0 2.59757290078365477
1750 2 3 31.1018 -1357.5 0 2.59757290078365477
1751 2 3 31.1018 -1354.5 0 2.59757290078365477
1752 2 3 31.1018 -1351.5 0 2.59757290078365477
1753 2 3 31.1018 -1348.5 0 2.59757290078365477
1754 2 3 31.1018 -1345.5 0 2.59757290078365477
1755 2 3 31.1018 -1342.5 0 2.59757290078365477
1756 2 3 31.1018 -1339.5 0 2.59757290078365477
1757 2 3 31.1018 -1336.5 0 2.59757290078365477
1758 2 3 31.1018 -1333.5 0 2.59757290078365477
1759 2 3 31.1018 -1330.5 0 2.59757290078365477
1760 2 3 31.1018 -1327.5 0 2.59757290078365477
1761 2 3 31.1018 -1324.5 0 2.59757290078365477
1762 2 3 31.1018 -1321.5 0 2.59757290078365477
1763 2 3 31.1018 -1318.5 0 2.59757290078365477
1764 2 3 31.1018 -1315.5 0 2.59757290078365477
1765 2 3 31.1018 -1312.5 0 2.59757290078365477
1766 2 3 31.1018 -1309.5 0 2.59757290078365477
1767 2 3 31.1018 -1306.5 0 2.59757290078365477
1768 2 3 31.1018 -1303.5 0 2.59757290078365477
1769 2 3 31.1018 -1300.5 0 2.59757290078365477
1770 2 3 31.1018 -1297.5 0 2.59757290078365477
1771 2 3 31.1018 -1294.5 0 2.59757290078365477
1772 2 3 31.1018 -1291.5 0 2.59757290078365477
1773 2 3 31.1018 -1288.5 0 2.59757290078365477
1774 2 3 31.1018 -1285.5 0 2.59757290078365477
1775 2 3 31.1018 -1282.5 0 2.59757290078365477
1776 2 3 31.1018 -1279.5 0 2.59757290078365477
1777 2 3 31.1018 -1276.5 0 2.59757290078365477
1778 2 3 31.1018 -1273.5 0 2.59757290078365477
1779 2 3 31.1018 -1270.5 0 2.59757290078365477
1780 2 3 31.1018 -1267.5 0 2.59757290078365477
1781 2 3 31.1018 -1264.5 0 2.59757290078365477
1782 2 3 31.1018 -1261.5 0 2.59757290078365477
1783 2 3 31.1018 -1258.5 0 2.59757290078365477
1784 2 3 31.1018 -1255.5 0 2.59757290078365477
1785 2 3 31.1018 -1252.5 0 2.59757290078365477
1786 2 3 31.1018 -1249.5 0 2.59757290078365477
1787 2 3 31.1018 -1246.5 0 2.59757290078365477
1788 2 3 31.1018 -1243.5 0 2.59757290078365477
1789 2 3 31.1018 -1240.5 0 2.59757290078365477
414 1 3 31.1018 -1236 0 0
415 1 3 31.1018 -1233 0 0
416 1 3 31.1018 -1230 0 0
417 1 3 31.1018 -1227 0 0
418 1 3 31.1018 -1224 0 0
419 1 3 31.1018 -1221 0 0
420 1 3 31.1018 -1218 0 0
421 1 3 31.1018 -1215 0 0
422 1 3 31.1018 -1212 0 0
423 1 3 31.1018 -1209 0 0
424 1 3 31.1018 -1206 0 0
425 1 3 31.1018 -1203 0 0
426 1 3 31.1018 -1200 0 0
427 1 3 31.1018 -1197 0 0
428 1 3 31.1018 -1194 0 0
429 1 3 31.1018 -1191 0 0
430 1 3 31.1018 -1188 0 0
431 1 3 31.1018 -1185 0 0
432 1 3 31.1018 -1182 0 0
433 1 3 31.1018 -1179 0 0
434 1 3 31.1018 -1176 0 0
435 1 3 31.1018 -1173 0 0
436 1 3 31.1018 -1170 0 0
437 1 3 31.1018 -1167 0 0
438 1 3 31.1018 -1164 0 0
439 1 3 31.1018 -1161 0 0
440 1 3 31.1018 -1158 0 0
441 1 3 31.1018 -1155 0 0
442 1 3 31.1018 -1152 0 0
443 1 3 31.1018 -1149 0 0
444 1 3 31.1018 -1146 0 0
445 1 3 31.1018 -1143 0 0
446 1 3 31.1018 -1140 0 0
447 1 3 31.1018 -1137 0 0
448 1 3 31.1018 -1134 0 0
449 1 3 31.1018 -1131 0 0
450 1 3 31.1018 -1128 0 0
451 1 3 31.1018 -1125 0 0
452 1 3 31.1018 -1122 0 0
453 1 3 31.1018 -1119 0 0
454 1 3 31.1018 -1116 0 0
455 1 3 31.1018 -1113 0 0
456 1 3 31.1018 -1110 0 0
457 1 3 31.1018 -1107 0 0
458 1 3 31.1018 -1104 0 0
459 1 3 31.1018 -1101 0 0
460 1 3 31.1018 -1098 0 0
461 1 3 31.1018 -1095 0 0
462 1 3 31.1018 -1092 0 0
463 1 3 31.1018 -1089 0 0
464 1 3 31.1018 -1086 0 0
465 1 3 31.1018 -1083 0 0
466 1 3 31.1018 -1080 0 0
467 1 3 31.1018 -1077 0 0
468 1 3 31.1018 -1074 0 0
469 1 3 31.1018 -1071 0 0
470 1 3 31.1018 -1068 0 0
471 1 3 31.1018 -1065 0 0
472 1 3 31.1018 -1062 0 0
473 1 3 31.1018 -1059 0 0
474 1 3 31.1018 -1056 0 0
475 1 3 31.1018 -1053 0 0
476 1 3 31.1018 -1050 0 0
477 1 3 31.1018 -1047 0 0
478 1 3 31.1018 -1044 0 0
479 1 3 31.1018 -1041 0 0
480 1 3 31.1018 -1038 0 0
481 1 3 31.1018 -1035 0 0
482 1 3 31.1018 -1032 0 0
483 1 3 31.1018 -1029 0 0
484 1 3 31.1018 -1026 0 0
485 1 3 31.1018 -1023 0 0
486 1 3 31.1018 -1020 0 0
487 1 3 31.1018 -1017 0 0
488 1 3 31.1018 -1014 0 0
489 1 3 31.1018 -1011 0 0
490 1 3 31.1018 -1008 0 0
491 1 3 31.1018 -1005 0 0
492 1 3 31.1018 -1002 0 0
493 1 3 31.1018 -999 0 0
494 1 3 31.1018 -996 0 0
495 1 3 31.1018 -993 0 0
496 1 3 31.1018 -990 0 0
497 1 3 31.1018 -987 0 0
498 1 3 31.1018 -984 0 0
499 1 3 31.1018 -981 0 0
500 1 3 31.1018 -978 0 0
501 1 3 31.1018 -975 0 0
502 1 3 31.1018 -972 0 0
503 1 3 31.1018 -969 0 0
504 1 3 31.1018 -966 0 0
505 1 3 31.1018 -963 0 0
506 1 3 31.1018 -960 0 0
507 1 3 31.1018 -957 0 0
508 1 3 31.1018 -954 0 0
509 1 3 31.1018 -951 0 0
510 1 3 31.1018 -948 0 0
511 1 3 31.1018 -945 0 0
512 1 3 31.1018 -942 0 0
513 1 3 31.1018 -939 0 0
514 1 3 31.1018 -936 0 0
515 1 3 31.1018 -933 0 0
516 1 3 31.1018 -930 0 0
517 1 3 31.1018 -927 0 0
518 1 3 31.1018 -924 0 0
519 1 3 31.1018 -921 0 0
520 1 3 31.1018 -918 0 0
521 1 3 31.1018 -915 0 0
522 1 3 31.1018 -912 0 0
523 1 3 31.1018 -909 0 0
524 1 3 31.1018 -906 0 0
525 1 3 31.1018 -903 0 0
526 1 3 31.1018 -900 0 0
527 1 3 31.1018 -897 0 0
528 1 3 31.1018 -894 0 0
529 1 3 31.1018 -891 0 0
530 1 3 31.1018 -888 0 0
531 1 3 31.1018 -885 0 0
532 1 3 31.1018 -882 0 0
533 1 3 31.1018 -879 0 0
534 1 3 31.1018 -876 0 0
535 1 3 31.1018 -873 0 0
536 1 3 31.1018 -870 0 0
537 1 3 31.1018 -867 0 0
538 1 3 31.1018 -864 0 0
539 1 3 31.1018 -861 0 0
540 1 3 31.1018 -858 0 0
541 1 3 31.1018 -855 0 0
542 1 3 31.1018 -852 0 0
543 1 3 31.1018 -849 0 0
544 1 3 31.1018 -846 0 0
545 1 3 31.1018 -843 0 0
546 1 3 31.1018 -840 0 0
547 1 3 31.1018 -837 0 0
548 1 3 31.1018 -834 0 0
549 1 3 31.1018 -831 0 0
550 1 3 31.1018 -828 0 0
551 1 3 31.1018 -825 0 0
552 1 3 31.1018 -822 0 0
553 1 3 31.1018 -819 0 0
554 1 3 31.1018 -816 0 0
555 1 3 31.1018 -813 0 0
556 1 3 31.1018 -810 0 0
557 1 3 31.1018 -807 0 0
558 1 3 31.1018 -804 0 0
559 1 3 31.1018 -801 0 0
560 1 3 31.1018 -798 0 0
561 1 3 31.1018 -795 0 0
562 1 3 31.1018 -792 0 0
563 1 3 31.1018 -789 0 0
564 1 3 31.1018 -786 0 0
565 1 3 31.1018 -783 0 0
566 1 3 31.1018 -780 0 0
567 1 3 31.1018 -777 0 0
568 1 3 31.1018 -774 0 0
569 1 3 31.1018 -771 0 0
570 1 3 31.1018 -768 0 0
571 1 3 31.1018 -765 0 0
572 1 3 31.1018 -762 0 0
573 1 3 31.1018 -759 0 0
574 1 3 31.1018 -756 0 0
575 1 3 31.1018 -753 0 0
576 1 3 31.1018 -750 0 0
577 1 3 31.1018 -747 0 0
578 1 3 31.1018 -744 0 0
579 1 3 31.1018 -741 0 0
580 1 3 31.1018 -738 0 0
581 1 3 31.1018 -735 0 0
582 1 3 31.1018 -732 0 0
583 1 3 31.1018 -729 0 0
584 1 3 31.1018 -726 0 0
585 1 3 31.1018 -723 0 0
586 1 3 31.1018 -720 0 0
587 1 3 31.1018 -717 0 0
588 1 3 31.1018 -714 0 0
589 1 3 31.1018 -711 0 0
590 1 3 31.1018 -708 0 0
591 1 3 31.1018 -705 0 0
592 1 3 31.1018 -702 0 0
593 1 3 31.1018 -699 0 0
594 1 3 31.1018 -696 0 0
595 1 3 31.1018 -693 0 0
596 1 3 31.1018 -690 0 0
597 1 3 31.1018 -687 0 0
598 1 3 31.1018 -684 0 0
599 1 3 31.1018 -681 0 0
600 1 3 31.1018 -678 0 0
601 1 3 31.1018 -675 0 0
602 1 3 31.1018 -672 0 0
603 1 3 31.1018 -669 0 0
604 1 3 31.1018 -666 0 0
605 1 3 31.1018 -663 0 0
606 1 3 31.1018 -660 0 0
607 1 3 31.1018 -657 0 0
608 1 3 31.1018 -654 0 0
609 1 3 31.1018 -651 0 0
610 1 3 31.1018 -648 0 0
611 1 3 31.1018 -645 0 0
612 1 3 31.1018 -642 0 0
613 1 3 31.1018 -639 0 0
614 1 3 31.1018 -636 0 0
615 1 3 31.1018 -633 0 0
616 1 3 31.1018 -630 0 0
617 1 3 31.1018 -627 0 0
618 1 3 31.1018 -624 0 0
619 1 3 31.1018 -621 0 0
620 1 3 31.1018 -618 0 0
621 1 3 31.1018 -615 0 0
622 1 3 31.1018 -612 0 0
623 1 3 31.1018 -609 0 0
624 1 3 31.1018 -606 0 0
625 1 3 31.1018 -603 0 0
626 1 3 31.1018 -600 0 0
627 1 3 31.1018 -597 0 0
628 1 3 31.1018 -594 0 0
629 1 3 31.1018 -591 0 0
630 1 3 31.1018 -588 0 0
631 1 3 31.1018 -585 0 0
632 1 3 31.1018 -582 0 0
633 1 3 31.1018 -579 0 0
634 1 3 31.1018 -576 0 0
635 1 3 31.1018 -573 0 0
636 1 3 31.1018 -570 0 0
637 1 3 31.1018 -567 0 0
638 1 3 31.1018 -564 0 0
639 1 3 31.1018 -561 0 0
640 1 3 31.1018 -558 0 0
641 1 3 31.1018 -555 0 0
642 1 3 31.1018 -552 0 0
643 1 3 31.1018 -549 0 0
644 1 3 31.1018 -546 0 0
645 1 3 31.1018 -543 0 0
646 1 3 31.1018 -540 0 0
647 1 3 31.1018 -537 0 0
648 1 3 31.1018 -534 0 0
649 1 3 31.1018 -531 0 0
650 1 3 31.1018 -528 0 0
651 1 3 31.1018 -525 0 0
652 1 3 31.1018 -522 0 0
653 1 3 31.1018 -519 0 0
654 1 3 31.1018 -516 0 0
655 1 3 31.1018 -513 0 0
656 1 3 31.1018 -510 0 0
657 1 3 31.1018 -507 0 0
658 1 3 31.1018 -504 0 0
659 1 3 31.1018 -501 0 0
660 1 3 31.1018 -498 0 0
661 1 3 31.1018 -495 0 0
662 1 3 31.1018 -492 0 0
663 1 3 31.1018 -489 0 0
664 1 3 31.1018 -486 0 0
665 1 3 31.1018 -483 0 0
666 1 3 31.1018 -480 0 0
667 1 3 31.1018 -477 0 0
668 1 3 31.1018 -474 0 0
669 1 3 31.1018 -471 0 0
670 1 3 31.1018 -468 0 0
671 1 3 31.1018 -465 0 0
672 1 3 31.1018 -462 0 0
673 1 3 31.1018 -459 0 0
674 1 3 31.1018 -456 0 0
675 1 3 31.1018 -453 0 0
676 1 3 31.1018 -450 0 0
677 1 3 31.1018 -447 0 0
678 1 3 31.1018 -444 0 0
679 1 3 31.1018 -441 0 0
680 1 3 31.1018 -438 0 0
681 1 3 31.1018 -435 0 0
682 1 3 31.1018 -432 0 0
683 1 3 31.1018 -429 0 0
684 1 3 31.1018 -426 0 0
685 1 3 31.1018 -423 0 0
686 1 3 31.1018 -420 0 0
687 1 3 31.1018 -417 0 0
688 1 3 31.1018 -414 0 0
689 1 3 31.1018 -411 0 0
690 1 3 31.1018 -408 0 0
691 1 3 31.1018 -405 0 0
692 1 3 31.1018 -402 0 0
693 1 3 31.1018 -399 0 0
694 1 3 31.1018 -396 0 0
695 1 3 31.1018 -393 0 0
696 1 3 31.1018 -390 0 0
697 1 3 31.1018 -387 0 0
698 1 3 31.1018 -384 0 0
699 1 3 31.1018 -381 0 0
700 1 3 31.1018 -378 0 0
701 1 3 31.1018 -375 0 0
702 1 3 31.1018 -372 0 0
703 1 3 31.1018 -369 0 0
704 1 3 31.1018 -366 0 0
705 1 3 31.1018 -363 0 0
706 1 3 31.1018 -360 0 0
707 1 3 31.1018 -357 0 0
708 1 3 31.1018 -354 0 0
709 1 3 31.1018 -351 0 0
710 1 3 31.1018 -348 0 0
711 1 3 31.1018 -345 0 0
712 1 3 31.1018 -342 0 0
713 1 3 31.1018 -339 0 0
714 1 3 31.1018 -336 0 0
715 1 3 31.1018 -333 0 0
716 1 3 31.1018 -330 0 0
717 1 3 31.1018 -327 0 0
718 1 3 31.1018 -324 0 0
719 1 3 31.1018 -321 0 0
720 1 3 31.1018 -318 0 0
721 1 3 31.1018 -315 0 0
722 1 3 31.1018 -312 0 0
723 1 3 31.1018 -309 0 0
724 1 3 31.1018 -306 0 0
725 1 3 31.1018 -303 0 0
726 1 3 31.1018 -300 0 0
727 1 3 31.1018 -297 0 0
728 1 3 31.1018 -294 0 0
729 1 3 31.1018 -291 0 0
730 1 3 31.1018 -288 0 0
731 1 3 31.1018 -285 0 0
732 1 3 31.1018 -282 0 0
733 1 3 31.1018 -279 0 0
734 1 3 31.1018 -276 0 0
735 1 3 31.1018 -273 0 0
736 1 3 31.1018 -270 0 0
737 1 3 31.1018 -267 0 0
738 1 3 31.1018 -264 0 0
739 1 3 31.1018 -261 0 0
740 1 3 31.1018 -258 0 0
741 1 3 31.1018 -255 0 0
742 1 3 31.1018 -252 0 0
743 1 3 31.1018 -249 0 0
744 1 3 31.1018 -246 0 0
745 1 3 31.1018 -243 0 0
746 1 3 31.1018 -240 0 0
747 1 3 31.1018 -237 0 0
748 1 3 31.1018 -234 0 0
749 1 3 31.1018 -231 0 0
750 1 3 31.1018 -228 0 0
751 1 3 31.1018 -225 0 0
752 1 3 31.1018 -222 0 0
753 1 3 31.1018 -219 0 0
754 1 3 31.1018 -216 0 0
755 1 3 31.1018 -213 0 0
756 1 3 31.1018 -210 0 0
757 1 3 31.1018 -207 0 0
758 1 3 31.1018 -204 0 0
759 1 3 31.1018 -201 0 0
760 1 3 31.1018 -198 0 0
761 1 3 31.1018 -195 0 0
762 1 3 31.1018 -192 0 0
763 1 3 31.1018 -189 0 0
764 1 3 31.1018 -186 0 0
765 1 3 31.1018 -183 0 0
766 1 3 31.1018 -180 0 0
767 1 3 31.1018 -177 0 0
768 1 3 31.1018 -174 0 0
769 1 3 31.1018 -171 0 0
770 1 3 31.1018 -168 0 0
771 1 3 31.1018 -165 0 0
772 1 3 31.1018 -162 0 0
773 1 3 31.1018 -159 0 0
774 1 3 31.1018 -156 0 0
775 1 3 31.1018 -153 0 0
776 1 3 31.1018 -150 0 0
777 1 3 31.1018 -147 0 0
778 1 3 31.1018 -144 0 0
779 1 3 31.1018 -141 0 0
780 1 3 31.1018 -138 0 0
781 1 3 31.1018 -135 0 0
782 1 3 31.1018 -132 0 0
783 1 3 31.1018 -129 0 0
784 1 3 31.1018 -126 0 0
785 1 3 31.1018 -123 0 0
786 1 3 31.1018 -120 0 0
787 1 3 31.1018 -117 0 0
788 1 3 31.1018 -114 0 0
789 1 3 31.1018 -111 0 0
790 1 3 31.1018 -108 0 0
791 1 3 31.1018 -105 0 0
792 1 3 31.1018 -102 0 0
793 1 3 31.1018 -99 0 0
794 1 3 31.1018 -96 0 0
795 1 3 31.1018 -93 0 0
796 1 3 31.1018 -90 0 0
797 1 3 31.1018 -87 0 0
798 1 3 31.1018 -84 0 0
799 1 3 31.1018 -81 0 0
800 1 3 31.1018 -78 0 0
801 1 3 31.1018 -75 0 0
802 1 3 31.1018 -72 0 0
803 1 3 31.1018 -69 0 0
804 1 3 31.1018 -66 0 0
805 1 3 31.1018 -63 0 0
806 1 3 31.1018 -60 0 0
807 1 3 31.1018 -57 0 0
808 1 3 31.1018 -54 0 0
809 1 3 31.1018 -51 0 0
810 1 3 31.1018 -48 0 0
811 1 3 31.1018 -45 0 0
812 1 3 31.1018 -42 0 0
813 1 3 31.1018 -39 0 0
814 1 3 31.1018 -36 0 0
815 1 3 31.1018 -33 0 0
816 1 3 31.1018 -30 0 0
817 1 3 31.1018 -27 0 0
818 1 3 31.1018 -24 0 0
819 1 3 31.1018 -21 0 0
820 1 3 31.1018 -18 0 0
821 1 3 31.1018 -15 0 0
822 1 3 31.1018 -12 0 0
823 1 3 31.1018 -9 0 0
824 1 3 31.1018 -6 0 0
825 1 3 31.1018 -3 0 0
1790 2 3 31.1018 -1237.5 0 2.59757290078365477
1791 2 3 31.1018 -1234.5 0 2.59757290078365477
1792 2 3 31.1018 -1231.5 0 2.59757290078365477
1793 2 3 31.1018 -1228.5 0 2.59757290078365477
1794 2 3 31.1018 -1225.5 0 2.59757290078365477
1795 2 3 31.1018 -1222.5 0 2.59757290078365477
1796 2 3 31.1018 -1219.5 0 2.59757290078365477
1797 2 3 31.1018 -1216.5 0 2.59757290078365477
1798 2 3 31.1018 -1213.5 0 2.59757290078365477
1799 2 3 31.1018 -1210.5 0 2.59757290078365477
1800 2 3 31.1018 -1207.5 0 2.59757290078365477
1801 2 3 31.1018 -1204.5 0 2.59757290078365477
1802 2 3 31.1018 -1201.5 0 2.59757290078365477
1803 2 3 31.1018 -1198.5 0 2.59757290078365477
1804 2 3 31.1018 -1195.5 0 2.59757290078365477
1805 2 3 31.1018 -1192.5 0 2.59757290078365477
1806 2 3 31.1018 -1189.5 0 2.59757290078365477
1807 2 3 31.1018 -1186.5 0 2.59757290078365477
1808 2 3 31.1018 -1183.5 0 2.59757290078365477
1809 2 3 31.1018 -1180.5 0 2.59757290078365477
1810 2 3 31.1018 -1177.5 0 2.59757290078365477
1811 2 3 31.1018 -1174.5 0 2.59757290078365477
1812 2 3 31.1018 -1171.5 0 2.59757290078365477
1813 2 3 31.1018 -1168.5 0 2.59757290078365477
1814 2 3 31.1018 -1165.5 0 2.59757290078365477
1815 2 3 31.1018 -1162.5 0 2.59757290078365477
1816 2 3 31.1018 -1159.5 0 2.59757290078365477
1817 2 3 31.1018 -1156.5 0 2.59757290078365477
1818 2 3 31.1018 -1153.5 0 2.59757290078365477
1819 2 3 31.1018 -1150.5 0 2.59757290078365477
1820 2 3 31.1018 -1147.5 0 2.59757290078365477
1821 2 3 31.1018 -1144.5 0 2.59757290078365477
1822 2 3 31.1018 -1141.5 0 2.59757290078365477
1823 2 3 31.1018 -1138.5 0 2.59757290078365477
1824 2 3 31.1018 -1135.5 0 2.59757290078365477
1825 2 3 31.1018 -1132.5 0 2.59757290078365477
1826 2 3 31.1018 -1129.5 0 2.59757290078365477
1827 2 3 31.1018 -1126.5 0 2.59757290078365477
1828 2 3 31.1018 -1123.5 0 2.59757290078365477
1829 2 3 31.1018 -1120.5 0 2.59757290078365477
1830 2 3 31.1018 -1117.5 0 2.59757290078365477
1831 2 3 31.1018 -1114.5 0 2.59757290078365477
1832 2 3 31.1018 -1111.5 0 2.59757290078365477
1833 2 3 31.1018 -1108.5 0 2.59757290078365477
1834 2 3 31.1018 -1105.5 0 2.59757290078365477
1835 2 3 31.1018 -1102.5 0 2.59757290078365477
1836 2 3 31.1018 -1099.5 0 2.59757290078365477