LAMMPS (23 Jun 2022 - Update 1)
  using 1 OpenMP thread(s) per MPI task
variable num index 0 1 2 3 4 5 6 7 8 9 10 11 12 13 14 15 16 17 18 19 20 21 22 23 24 25 26 27 28 29 30 31 32 33 34 35 36 37 38 39 40 41 42 43 44 45 46 47 48 49 50 51 52 53 54 55 56 57 58 59 60 61 62 63 64 65 66 67 68 69 70 71 72 73 74 75 76 77 78 79 80 81 82 83 84 85 86 87 88 89 90 91 92 93 94 95 96 97 98 99

label startloop

include granular.in
### Simulation of contact between two chain

##################### Simulation setup ####################

units micro                              # units
dimension	3                            # dimension
boundary	p p p                        # boundary condition p: periodic
atom_style	sphere                       # atom style
#processors * * 1

####################### Parameter ##################################

variable ind equal ${num}
variable ind equal 0

#variable lat0 equal 1                    #
variable lat1 equal 3 #+(v_ind*0.01)       # Lattice distance of bottom chain
variable lat2 equal 3                    # Lattice distance of top chain
variable d1 equal 3                      # Diamter of particle at bottom chain
variable d2 equal 3                      # Diamter of particle at top chain
#variable d3 equal 1                      # Diamter of supporting particle

variable n2e1 equal (50+v_ind*50)*v_lat2              # Half length of top chain. 1500 is number of particles
variable n1e1 equal 1.5*v_n2e1*(v_lat1/v_lat2)               # Half length of bottom chain, which is 1.5 time larger than top chain
variable n1e2 equal -v_n1e1
variable n2e2 equal -v_n2e1
#variable lenspr equal -(v_n2e1+100)           # length of the spring connecting top chain and supporting particle
#variable lenspr1 equal -v_lenspr-0.1         # Position of supporting particle upper bound
#variable lenspr2 equal -v_lenspr+0.1         # Position of supporting particle lower bound

variable den equal 2.2 #grams/cm^3      # micrometer^3=10^-12 cm^3 Density of materials

variable V1 equal (1/6)*PI*(v_d1^3)     # Volume of particle 1
variable V2 equal (1/6)*PI*(v_d2^3)     # Volume of particle 2
#variable V3 equal (1/6)*PI*(v_d3^3)     # Volume of particle 3

variable mass1 equal v_den*v_V1  # Mass of particle 1 (picograms)
variable mass2 equal v_den*v_V2  # Mass of particle 2
#variable mass3 equal v_den*v_V3  # Mass of particle 3

# E GPa to picogram/(micrometer-microsecond^2)= 10^3 Pa= 10^-6 GPa
# Force unit(picogram-micrometer/microsecond^2)=10^-9 N= 1nN
# Spring stiffness (force/distance) 10^-3 N/m

#variable K0 equal (1500/50)*(10^5)             # Spring stiffness conneting top chain and sup particle
variable E equal 100*(10^6)                    # Young's Modulus using for Hertz/material model
variable PR equal 0.3                          # Poisson's ratio using for Hertz/material model
variable Fn equal -1000 #-(v_ind*100)                       # Force apply to each particles in top chain
variable dt equal 0.00001                      # Time step units microsecond
variable lgv equal 0.5                         #damping for langevin thermostat for slider

variable x_shift equal -v_lat1/2

################### Creating the model #################################
lattice sc ${lat1}                                                               # Bottom chain type1
lattice sc 3                                                               
Lattice spacing in x,y,z = 3 3 3

region box block ${n1e2} ${n1e1} -100 100 -100 100 units box
region box block -225 ${n1e1} -100 100 -100 100 units box
region box block -225 225 -100 100 -100 100 units box
region substrate block ${n1e2} ${n1e1} -0.5 0.5 0 0.5 units box
region substrate block -225 ${n1e1} -0.5 0.5 0 0.5 units box
region substrate block -225 225 -0.5 0.5 0 0.5 units box

create_box 2 box
Created orthogonal box = (-225 -100 -100) to (225 100 100)
  4 by 1 by 1 MPI processor grid
create_atoms 1 region substrate
Created 150 atoms
  using lattice units in orthogonal box = (-225 -100 -100) to (225 100 100)
  create_atoms CPU = 0.001 seconds

lattice sc ${lat2}                                                             # Top chain type2
lattice sc 3                                                             
Lattice spacing in x,y,z = 3 3 3

region slider1 block ${n2e2} ${n2e1} -0.1 0.1 5.9 6.1 units box
region slider1 block -150 ${n2e1} -0.1 0.1 5.9 6.1 units box
region slider1 block -150 150 -0.1 0.1 5.9 6.1 units box

create_atoms 2 region slider1
Created 101 atoms
  using lattice units in orthogonal box = (-225 -100 -100) to (225 100 100)
  create_atoms CPU = 0.002 seconds

#lattice sc ${lat0}                                                             # Supporting particle type3

#region support block ${lenspr1} ${lenspr2} -0.1 0.1 7.9 8.1 units box

#create_atoms 3 region support

set type 1 diameter ${d1}                    # Set mass and diameter for each particles type
set type 1 diameter 3                    
Setting atom values ...
  150 settings made for diameter
set type 1 mass ${mass1}
set type 1 mass 31.101767270539
Setting atom values ...
  150 settings made for mass
set type 2 diameter ${d2}
set type 2 diameter 3
Setting atom values ...
  101 settings made for diameter
set type 2 mass ${mass2}
set type 2 mass 31.101767270539
Setting atom values ...
  101 settings made for mass
#set type 3 diameter ${d3}
#set type 3 mass ${mass3}

group substrate region substrate           # Define gorup
150 atoms in group substrate
group slider1 region slider1
101 atoms in group slider1
#group support region support
group substrate_slider union substrate slider1
251 atoms in group substrate_slider

displace_atoms slider1 move ${x_shift} 0.0 0.0
displace_atoms slider1 move -1.5 0.0 0.0
Displacing atoms ...

########################## Potential ###################################
pair_style granular
pair_coeff 1 1 hertz/material 0.00000001 0.001 ${PR} tangential mindlin NULL 0.1 0.01 damping viscoelastic              ########### set E between each particle in same type is small to neglect their interaction
pair_coeff 1 1 hertz/material 0.00000001 0.001 0.3 tangential mindlin NULL 0.1 0.01 damping viscoelastic              
pair_coeff 2 2 hertz/material 0.00000001 0.001 ${PR} tangential mindlin NULL 0.1 0.01 damping viscoelastic
pair_coeff 2 2 hertz/material 0.00000001 0.001 0.3 tangential mindlin NULL 0.1 0.01 damping viscoelastic
#pair_coeff 3 3 hertz/material ${E} 0.001 ${PR} tangential mindlin NULL 0.1 0.01 damping viscoelastic
pair_coeff 1 2 hertz/material ${E} 0.001 ${PR} tangential mindlin NULL 0.1 0.01 damping viscoelastic
pair_coeff 1 2 hertz/material 100000000 0.001 ${PR} tangential mindlin NULL 0.1 0.01 damping viscoelastic
pair_coeff 1 2 hertz/material 100000000 0.001 0.3 tangential mindlin NULL 0.1 0.01 damping viscoelastic
#pair_coeff 1 3 hertz/material 0.00000001 0.001 ${PR} tangential mindlin NULL 0.1 0.01 damping viscoelastic
#pair_coeff 2 3 hertz/material 0.00000001 0.001 ${PR} tangential mindlin NULL 0.1 0.01 damping viscoelastic
comm_modify     vel yes
neigh_modify    delay 0 every 1 check yes

### Compute properties ###

compute 1 slider1 com                      # Compute the center of mass of top chain
#compute 2 support com                      # Compute the center of mass of supporting particle

variable p0 equal "step"

variable slider_z equal "c_1[3]"          # output the position of top chain in z-direction

#variable distance equal "c_2[1]-c_1[1]"   # Distance between COM of top chain and supporting particle

thermo 100000
thermo_style custom step lx ly lz press pxx pyy pzz ke pe temp c_1[1] c_1[2] c_1[3] #c_2[1] c_2[2] c_2[3] v_distance

############### Fix ##################


############## Equilibrium the system with apply force ########################

fix force_slider1 slider1 setforce NULL 0 NULL                                # Fix top chain not to move in y-direction

fix f_sub substrate freeze                                                    # Freeze the bottom chain

fix rigid_top slider1 rigid/nve group 1 slider1 langevin 0 0 ${lgv} 6987532   # NVE+langevin
fix rigid_top slider1 rigid/nve group 1 slider1 langevin 0 0 0.5 6987532   
  1 rigid bodies with 101 atoms

fix add slider1 addforce 0 0 ${Fn} every 1                                    # Add force to top layer
fix add slider1 addforce 0 0 -1000 every 1                                    

timestep ${dt}
timestep 1e-05

# fix  nve_1 slider1 nve

dump 		D1 all custom 100000 Equi_${num}_*.dump id type diameter mass xu yu zu
dump 		D1 all custom 100000 Equi_0_*.dump id type diameter mass xu yu zu
dump_modify D1 format 5 %.18g
dump_modify D1 format 7 %.18g

run 3000000
Generated 0 of 1 mixed pair_coeff terms from geometric mixing rule
Neighbor list info ...
  update every 1 steps, delay 0 steps, check yes
  max neighbors/atom: 2000, page size: 100000
  master list distance cutoff = 3.1
  ghost atom cutoff = 3.1
  binsize = 1.55, bins = 291 130 130
  1 neighbor lists, perpetual/occasional/extra = 1 0 0
  (1) pair granular, perpetual
      attributes: half, newton on, size, history
      pair build: half/size/bin/newton
      stencil: half/bin/3d
      bin: standard
Per MPI rank memory allocation (min/avg/max) = 18.14 | 18.14 | 18.14 Mbytes
   Step           Lx             Ly             Lz           Press           Pxx            Pyy            Pzz           KinEng         PotEng          Temp          c_1[1]         c_1[2]         c_1[3]    
         0   450            200            200            0              0              0              0              0              0              0             -4.5            0              6            
    100000   450            200            200            0.0036397311  -1.3543416e-36  0              0.010919193    44189.452      0              4.267501e+10  -4.5            0              3.2460085    
    200000   450            200            200            0.00068601799 -1.3580551e-36  0              0.002058054    4161.2426      0              4.0186303e+09 -4.5            0              2.8092355    
    300000   450            200            200           -0.0001009163   1.698312e-38   0             -0.00030274889  192.24641      0              1.8565782e+08 -4.5            0              2.6517326    
    400000   450            200            200            0.00023717044 -8.1487879e-24  0              0.00071151132  751.43782      0              7.2568486e+08 -4.5            0              2.6025116    
    500000   450            200            200            0.022162918    0.016282991    0              0.050205763    110.09083      0              1.0631785e+08 -4.5            0              2.5969362    
    600000   450            200            200            0.0039853531   0.0029268075   0              0.0090292517   3.8164646      0              3685668.3     -4.5            0              2.5977131    
    700000   450            200            200            0.0063983781   0.00484752     0              0.014347614    0.00038108956  0              368.02902     -4.5            0              2.597577     
    800000   450            200            200            0.0064923638   0.0048600999   0              0.014616991    0.00038149233  0              368.41799     -4.5            0              2.5975722    
    900000   450            200            200            0.0064806936   0.0048585307   0              0.01458355     6.2137648e-05  0              60.008093     -4.5            0              2.5975728    
   1000000   450            200            200            0.0064742882   0.0048576921   0              0.014565173    2.5919158e-06  0              2.5030867     -4.5            0              2.5975731    
   1100000   450            200            200            0.0064793156   0.0048583564   0              0.01457959     3.8666124e-08  0              0.037340975   -4.5            0              2.5975728    
   1200000   450            200            200            0.0064774728   0.004858112    0              0.014574306    1.0443896e-07  0              0.10085968    -4.5            0              2.5975729    
   1300000   450            200            200            0.0064777868   0.004858154    0              0.014575206    2.1758092e-08  0              0.021012408   -4.5            0              2.5975729    
   1400000   450            200            200            0.0064778664   0.0048581643   0              0.014575435    1.2835279e-09  0              0.0012395394  -4.5            0              2.5975729    
   1500000   450            200            200            0.0064777811   0.0048581531   0              0.01457519     3.7455473e-13  0              3.6171815e-07 -4.5            0              2.5975729    
   1600000   450            200            200            0.0064778163   0.0048581578   0              0.014575291    2.6670512e-11  0              2.5756472e-05 -4.5            0              2.5975729    
   1700000   450            200            200            0.0064778089   0.0048581568   0              0.01457527     7.2825582e-12  0              7.0329734e-06 -4.5            0              2.5975729    
   1800000   450            200            200            0.0064778081   0.0048581567   0              0.014575268    5.7182485e-13  0              5.5222751e-07 -4.5            0              2.5975729    
   1900000   450            200            200            0.0064778095   0.0048581569   0              0.014575272    1.8520271e-15  0              1.7885553e-09 -4.5            0              2.5975729    
   2000000   450            200            200            0.0064778089   0.0048581568   0              0.01457527     6.2293927e-15  0              6.0159016e-09 -4.5            0              2.5975729    
   2100000   450            200            200            0.006477809    0.0048581568   0              0.01457527     2.3158019e-15  0              2.2364357e-09 -4.5            0              2.5975729    
   2200000   450            200            200            0.006477809    0.0048581568   0              0.01457527     2.3800192e-16  0              2.2984522e-10 -4.5            0              2.5975729    
   2300000   450            200            200            0.006477809    0.0048581568   0              0.01457527     1.3459105e-18  0              1.299784e-12  -4.5            0              2.5975729    
   2400000   450            200            200            0.006477809    0.0048581568   0              0.01457527     5.7367861e-20  0              5.5401774e-14 -4.5            0              2.5975729    
   2500000   450            200            200            0.006477809    0.0048581568   0              0.01457527     2.7763925e-19  0              2.6812411e-13 -4.5            0              2.5975729    
   2600000   450            200            200            0.006477809    0.0048581568   0              0.01457527     2.0557641e-19  0              1.9853098e-13 -4.5            0              2.5975729    
   2700000   450            200            200            0.006477809    0.0048581568   0              0.01457527     1.5314663e-20  0              1.4789805e-14 -4.5            0              2.5975729    
   2800000   450            200            200            0.006477809    0.0048581568   0              0.01457527     6.0187978e-22  0              5.8125241e-16 -4.5            0              2.5975729    
   2900000   450            200            200            0.006477809    0.0048581568   0              0.01457527     5.753131e-22   0              5.5559622e-16 -4.5            0              2.5975729    
   3000000   450            200            200            0.006477809    0.0048581568   0              0.01457527     1.4405877e-23  0              1.3912165e-17 -4.5            0              2.5975729    
Loop time of 81.4463 on 4 procs for 3000000 steps with 251 atoms

Performance: 31824664.904 ns/day, 0.000 hours/ns, 36834.103 timesteps/s
99.9% CPU use with 4 MPI tasks x 1 OpenMP threads

MPI task timing breakdown:
Section |  min time  |  avg time  |  max time  |%varavg| %total
---------------------------------------------------------------
Pair    | 9.6028     | 16.671     | 23.516     | 154.1 | 20.47
Neigh   | 0.30087    | 0.30331    | 0.30459    |   0.3 |  0.37
Comm    | 22.274     | 28.101     | 35.569     | 107.6 | 34.50
Output  | 0.079738   | 0.079792   | 0.079907   |   0.0 |  0.10
Modify  | 23.636     | 26.079     | 27.29      |  28.2 | 32.02
Other   |            | 10.21      |            |       | 12.54

Nlocal:          62.75 ave          75 max          49 min
Histogram: 1 1 0 0 0 0 0 0 0 2
Nghost:            4.5 ave           5 max           4 min
Histogram: 2 0 0 0 0 0 0 0 0 2
Neighs:            113 ave         151 max          71 min
Histogram: 1 1 0 0 0 0 0 0 0 2

Total # of neighbors = 452
Ave neighs/atom = 1.8007968
Neighbor list builds = 184
Dangerous builds = 0

undump D1

############ Add spring between top chain to supp particle and then equilibrium  ###########

#fix sp1 support spring couple slider1 ${K0} ${lenspr} NULL NULL 0                                 # Add spring

#dump 		D2 all custom 100000 add_${num}*.dump id type diameter mass xu yu zu

#fix add1 all print 10 "${p0} ${distance} ${slider_z}" file add_distance_${num}.txt screen no      # out put step, distance(spring length), z-position of top chain

#run 1000000

#undump D2

#unfix add1

########## Pulling the supporting particle with constant velocity #############

#fix m1 support move linear 0.1 0 0 units box                                                      # apply constant velocity to supporting particles along x-direction V=0.1m/s

#fix move1 all print 100 "${p0} ${distance} ${slider_z}" file move_distance_${num}.txt screen no

#dump 		1 all custom 50000 move_${num}_*.dump id type diameter mass xu yu zu

#run 1000000

clear
  using 1 OpenMP thread(s) per MPI task

next num

jump SELF startloop

include granular.in
### Simulation of contact between two chain

##################### Simulation setup ####################

units micro                              # units
dimension	3                            # dimension
boundary	p p p                        # boundary condition p: periodic
atom_style	sphere                       # atom style
#processors * * 1

####################### Parameter ##################################

variable ind equal ${num}
variable ind equal 1

#variable lat0 equal 1                    #
variable lat1 equal 3 #+(v_ind*0.01)       # Lattice distance of bottom chain
variable lat2 equal 3                    # Lattice distance of top chain
variable d1 equal 3                      # Diamter of particle at bottom chain
variable d2 equal 3                      # Diamter of particle at top chain
#variable d3 equal 1                      # Diamter of supporting particle

variable n2e1 equal (50+v_ind*50)*v_lat2              # Half length of top chain. 1500 is number of particles
variable n1e1 equal 1.5*v_n2e1*(v_lat1/v_lat2)               # Half length of bottom chain, which is 1.5 time larger than top chain
variable n1e2 equal -v_n1e1
variable n2e2 equal -v_n2e1
#variable lenspr equal -(v_n2e1+100)           # length of the spring connecting top chain and supporting particle
#variable lenspr1 equal -v_lenspr-0.1         # Position of supporting particle upper bound
#variable lenspr2 equal -v_lenspr+0.1         # Position of supporting particle lower bound

variable den equal 2.2 #grams/cm^3      # micrometer^3=10^-12 cm^3 Density of materials

variable V1 equal (1/6)*PI*(v_d1^3)     # Volume of particle 1
variable V2 equal (1/6)*PI*(v_d2^3)     # Volume of particle 2
#variable V3 equal (1/6)*PI*(v_d3^3)     # Volume of particle 3

variable mass1 equal v_den*v_V1  # Mass of particle 1 (picograms)
variable mass2 equal v_den*v_V2  # Mass of particle 2
#variable mass3 equal v_den*v_V3  # Mass of particle 3

# E GPa to picogram/(micrometer-microsecond^2)= 10^3 Pa= 10^-6 GPa
# Force unit(picogram-micrometer/microsecond^2)=10^-9 N= 1nN
# Spring stiffness (force/distance) 10^-3 N/m

#variable K0 equal (1500/50)*(10^5)             # Spring stiffness conneting top chain and sup particle
variable E equal 100*(10^6)                    # Young's Modulus using for Hertz/material model
variable PR equal 0.3                          # Poisson's ratio using for Hertz/material model
variable Fn equal -1000 #-(v_ind*100)                       # Force apply to each particles in top chain
variable dt equal 0.00001                      # Time step units microsecond
variable lgv equal 0.5                         #damping for langevin thermostat for slider

variable x_shift equal -v_lat1/2

################### Creating the model #################################
lattice sc ${lat1}                                                               # Bottom chain type1
lattice sc 3                                                               
Lattice spacing in x,y,z = 3 3 3

region box block ${n1e2} ${n1e1} -100 100 -100 100 units box
region box block -450 ${n1e1} -100 100 -100 100 units box
region box block -450 450 -100 100 -100 100 units box
region substrate block ${n1e2} ${n1e1} -0.5 0.5 0 0.5 units box
region substrate block -450 ${n1e1} -0.5 0.5 0 0.5 units box
region substrate block -450 450 -0.5 0.5 0 0.5 units box

create_box 2 box
Created orthogonal box = (-450 -100 -100) to (450 100 100)
  4 by 1 by 1 MPI processor grid
create_atoms 1 region substrate
Created 300 atoms
  using lattice units in orthogonal box = (-450 -100 -100) to (450 100 100)
  create_atoms CPU = 0.001 seconds

lattice sc ${lat2}                                                             # Top chain type2
lattice sc 3                                                             
Lattice spacing in x,y,z = 3 3 3

region slider1 block ${n2e2} ${n2e1} -0.1 0.1 5.9 6.1 units box
region slider1 block -300 ${n2e1} -0.1 0.1 5.9 6.1 units box
region slider1 block -300 300 -0.1 0.1 5.9 6.1 units box

create_atoms 2 region slider1
Created 201 atoms
  using lattice units in orthogonal box = (-450 -100 -100) to (450 100 100)
  create_atoms CPU = 0.000 seconds

#lattice sc ${lat0}                                                             # Supporting particle type3

#region support block ${lenspr1} ${lenspr2} -0.1 0.1 7.9 8.1 units box

#create_atoms 3 region support

set type 1 diameter ${d1}                    # Set mass and diameter for each particles type
set type 1 diameter 3                    
Setting atom values ...
  300 settings made for diameter
set type 1 mass ${mass1}
set type 1 mass 31.101767270539
Setting atom values ...
  300 settings made for mass
set type 2 diameter ${d2}
set type 2 diameter 3
Setting atom values ...
  201 settings made for diameter
set type 2 mass ${mass2}
set type 2 mass 31.101767270539
Setting atom values ...
  201 settings made for mass
#set type 3 diameter ${d3}
#set type 3 mass ${mass3}

group substrate region substrate           # Define gorup
300 atoms in group substrate
group slider1 region slider1
201 atoms in group slider1
#group support region support
group substrate_slider union substrate slider1
501 atoms in group substrate_slider

displace_atoms slider1 move ${x_shift} 0.0 0.0
displace_atoms slider1 move -1.5 0.0 0.0
Displacing atoms ...

########################## Potential ###################################
pair_style granular
pair_coeff 1 1 hertz/material 0.00000001 0.001 ${PR} tangential mindlin NULL 0.1 0.01 damping viscoelastic              ########### set E between each particle in same type is small to neglect their interaction
pair_coeff 1 1 hertz/material 0.00000001 0.001 0.3 tangential mindlin NULL 0.1 0.01 damping viscoelastic              
pair_coeff 2 2 hertz/material 0.00000001 0.001 ${PR} tangential mindlin NULL 0.1 0.01 damping viscoelastic
pair_coeff 2 2 hertz/material 0.00000001 0.001 0.3 tangential mindlin NULL 0.1 0.01 damping viscoelastic
#pair_coeff 3 3 hertz/material ${E} 0.001 ${PR} tangential mindlin NULL 0.1 0.01 damping viscoelastic
pair_coeff 1 2 hertz/material ${E} 0.001 ${PR} tangential mindlin NULL 0.1 0.01 damping viscoelastic
pair_coeff 1 2 hertz/material 100000000 0.001 ${PR} tangential mindlin NULL 0.1 0.01 damping viscoelastic
pair_coeff 1 2 hertz/material 100000000 0.001 0.3 tangential mindlin NULL 0.1 0.01 damping viscoelastic
#pair_coeff 1 3 hertz/material 0.00000001 0.001 ${PR} tangential mindlin NULL 0.1 0.01 damping viscoelastic
#pair_coeff 2 3 hertz/material 0.00000001 0.001 ${PR} tangential mindlin NULL 0.1 0.01 damping viscoelastic
comm_modify     vel yes
neigh_modify    delay 0 every 1 check yes

### Compute properties ###

compute 1 slider1 com                      # Compute the center of mass of top chain
#compute 2 support com                      # Compute the center of mass of supporting particle

variable p0 equal "step"

variable slider_z equal "c_1[3]"          # output the position of top chain in z-direction

#variable distance equal "c_2[1]-c_1[1]"   # Distance between COM of top chain and supporting particle

thermo 100000
thermo_style custom step lx ly lz press pxx pyy pzz ke pe temp c_1[1] c_1[2] c_1[3] #c_2[1] c_2[2] c_2[3] v_distance

############### Fix ##################


############## Equilibrium the system with apply force ########################

fix force_slider1 slider1 setforce NULL 0 NULL                                # Fix top chain not to move in y-direction

fix f_sub substrate freeze                                                    # Freeze the bottom chain

fix rigid_top slider1 rigid/nve group 1 slider1 langevin 0 0 ${lgv} 6987532   # NVE+langevin
fix rigid_top slider1 rigid/nve group 1 slider1 langevin 0 0 0.5 6987532   
  1 rigid bodies with 201 atoms

fix add slider1 addforce 0 0 ${Fn} every 1                                    # Add force to top layer
fix add slider1 addforce 0 0 -1000 every 1                                    

timestep ${dt}
timestep 1e-05

# fix  nve_1 slider1 nve

dump 		D1 all custom 100000 Equi_${num}_*.dump id type diameter mass xu yu zu
dump 		D1 all custom 100000 Equi_1_*.dump id type diameter mass xu yu zu
dump_modify D1 format 5 %.18g
dump_modify D1 format 7 %.18g

run 3000000
Generated 0 of 1 mixed pair_coeff terms from geometric mixing rule
Neighbor list info ...
  update every 1 steps, delay 0 steps, check yes
  max neighbors/atom: 2000, page size: 100000
  master list distance cutoff = 3.1
  ghost atom cutoff = 3.1
  binsize = 1.55, bins = 581 130 130
  1 neighbor lists, perpetual/occasional/extra = 1 0 0
  (1) pair granular, perpetual
      attributes: half, newton on, size, history
      pair build: half/size/bin/newton
      stencil: half/bin/3d
      bin: standard
Per MPI rank memory allocation (min/avg/max) = 23.16 | 23.16 | 23.16 Mbytes
   Step           Lx             Ly             Lz           Press           Pxx            Pyy            Pzz           KinEng         PotEng          Temp          c_1[1]         c_1[2]         c_1[3]    
         0   900            200            200            0              0              0              0              0              0              0             -4.5            0              6            
    100000   900            200            200            0.0036217817  -6.3791176e-17  0              0.010865345    87945.644      0              4.2465804e+10 -4.5            0              3.2459139    
    200000   900            200            200            0.00068346392 -1.746569e-16   0              0.0020503918   8298.4647      0              4.0070316e+09 -4.5            0              2.8091035    
    300000   900            200            200           -9.8975323e-05 -3.4339515e-16  0             -0.00029692597  370.85157      0              1.7907095e+08 -4.5            0              2.6517736    
    400000   900            200            200            0.00023994331 -5.1414194e-16  0              0.00071982994  1540.6767      0              7.4393762e+08 -4.5            0              2.6022696    
    500000   900            200            200            0.026574865    0.019552904    0              0.06017169     133.21265      0              64323620      -4.5            0              2.596784     
    600000   900            200            200            0.0048104357   0.0035330985   0              0.010898208    10.692515      0              5163032.9     -4.5            0              2.5976632    
    700000   900            200            200            0.0063816247   0.0048254374   0              0.014319437    0.0029369912   0              1418.1679     -4.5            0              2.5975763    
    800000   900            200            200            0.0064495966   0.0048345621   0              0.014514228    0.00095450604  0              460.89681     -4.5            0              2.5975727    
    900000   900            200            200            0.0064522439   0.0048348839   0              0.014521848    8.6853904e-05  0              41.938642     -4.5            0              2.5975726    
   1000000   900            200            200            0.0064416764   0.0048334925   0              0.014491537    7.2970279e-07  0              0.35234736    -4.5            0              2.5975731    
   1100000   900            200            200            0.0064470068   0.0048341984   0              0.014506822    6.3132091e-07  0              0.30484227    -4.5            0              2.5975728    
   1200000   900            200            200            0.0064455622   0.0048340062   0              0.01450268     2.9406454e-07  0              0.14199324    -4.5            0              2.5975729    
   1300000   900            200            200            0.0064456218   0.0048340146   0              0.014502851    3.4122065e-08  0              0.016476324   -4.5            0              2.5975729    
   1400000   900            200            200            0.0064457841   0.0048340359   0              0.014503316    6.9536476e-10  0              0.00033576675 -4.5            0              2.5975729    
   1500000   900            200            200            0.0064456888   0.0048340233   0              0.014503043    1.1397663e-10  0              5.5035235e-05 -4.5            0              2.5975729    
   1600000   900            200            200            0.0064457182   0.0048340272   0              0.014503127    8.6316138e-11  0              4.1678974e-05 -4.5            0              2.5975729    
   1700000   900            200            200            0.0064457152   0.0048340268   0              0.014503119    1.2670217e-11  0              6.1179942e-06 -4.5            0              2.5975729    
   1800000   900            200            200            0.0064457129   0.0048340265   0              0.014503112    4.4220011e-13  0              2.1352261e-07 -4.5            0              2.5975729    
   1900000   900            200            200            0.0064457145   0.0048340267   0              0.014503117    1.4855557e-14  0              7.1732169e-09 -4.5            0              2.5975729    
   2000000   900            200            200            0.0064457139   0.0048340267   0              0.014503115    2.4006246e-14  0              1.1591757e-08 -4.5            0              2.5975729    
   2100000   900            200            200            0.006445714    0.0048340267   0              0.014503115    4.4569369e-15  0              2.1520953e-09 -4.5            0              2.5975729    
   2200000   900            200            200            0.0064457141   0.0048340267   0              0.014503116    2.3283469e-16  0              1.1242754e-10 -4.5            0              2.5975729    
   2300000   900            200            200            0.006445714    0.0048340267   0              0.014503115    4.8267232e-18  0              2.3306519e-12 -4.5            0              2.5975729    
   2400000   900            200            200            0.006445714    0.0048340267   0              0.014503115    1.2774649e-18  0              6.1684208e-13 -4.5            0              2.5975729    
   2500000   900            200            200            0.006445714    0.0048340267   0              0.014503115    2.8721784e-19  0              1.3868721e-13 -4.5            0              2.5975729    
   2600000   900            200            200            0.006445714    0.0048340267   0              0.014503115    1.9034865e-19  0              9.1912551e-14 -4.5            0              2.5975729    
   2700000   900            200            200            0.006445714    0.0048340267   0              0.014503115    5.2567278e-20  0              2.5382857e-14 -4.5            0              2.5975729    
   2800000   900            200            200            0.006445714    0.0048340267   0              0.014503115    8.2431268e-23  0              3.9803109e-17 -4.5            0              2.5975729    
   2900000   900            200            200            0.006445714    0.0048340267   0              0.014503115    7.9321803e-22  0              3.830166e-16  -4.5            0              2.5975729    
   3000000   900            200            200            0.006445714    0.0048340267   0              0.014503115    9.1681794e-23  0              4.4269857e-17 -4.5            0              2.5975729    
Loop time of 117.45 on 4 procs for 3000000 steps with 501 atoms

Performance: 22068874.101 ns/day, 0.000 hours/ns, 25542.678 timesteps/s
100.0% CPU use with 4 MPI tasks x 1 OpenMP threads

MPI task timing breakdown:
Section |  min time  |  avg time  |  max time  |%varavg| %total
---------------------------------------------------------------
Pair    | 19.436     | 31.21      | 43.468     | 210.6 | 26.57
Neigh   | 0.57287    | 0.57657    | 0.58077    |   0.4 |  0.49
Comm    | 23.029     | 34.382     | 45.461     | 186.2 | 29.27
Output  | 0.10223    | 0.10231    | 0.10246    |   0.0 |  0.09
Modify  | 35.068     | 38.165     | 41.226     |  45.7 | 32.49
Other   |            | 13.01      |            |       | 11.08

Nlocal:         125.25 ave         150 max          99 min
Histogram: 2 0 0 0 0 0 0 0 0 2
Nghost:            4.5 ave           5 max           4 min
Histogram: 2 0 0 0 0 0 0 0 0 2
Neighs:          225.5 ave         300 max         147 min
Histogram: 2 0 0 0 0 0 0 0 0 2

Total # of neighbors = 902
Ave neighs/atom = 1.8003992
Neighbor list builds = 184
Dangerous builds = 0

undump D1

############ Add spring between top chain to supp particle and then equilibrium  ###########

#fix sp1 support spring couple slider1 ${K0} ${lenspr} NULL NULL 0                                 # Add spring

#dump 		D2 all custom 100000 add_${num}*.dump id type diameter mass xu yu zu

#fix add1 all print 10 "${p0} ${distance} ${slider_z}" file add_distance_${num}.txt screen no      # out put step, distance(spring length), z-position of top chain

#run 1000000

#undump D2

#unfix add1

########## Pulling the supporting particle with constant velocity #############

#fix m1 support move linear 0.1 0 0 units box                                                      # apply constant velocity to supporting particles along x-direction V=0.1m/s

#fix move1 all print 100 "${p0} ${distance} ${slider_z}" file move_distance_${num}.txt screen no

#dump 		1 all custom 50000 move_${num}_*.dump id type diameter mass xu yu zu

#run 1000000

clear
  using 1 OpenMP thread(s) per MPI task

next num

jump SELF startloop

include granular.in
### Simulation of contact between two chain

##################### Simulation setup ####################

units micro                              # units
dimension	3                            # dimension
boundary	p p p                        # boundary condition p: periodic
atom_style	sphere                       # atom style
#processors * * 1

####################### Parameter ##################################

variable ind equal ${num}
variable ind equal 2

#variable lat0 equal 1                    #
variable lat1 equal 3 #+(v_ind*0.01)       # Lattice distance of bottom chain
variable lat2 equal 3                    # Lattice distance of top chain
variable d1 equal 3                      # Diamter of particle at bottom chain
variable d2 equal 3                      # Diamter of particle at top chain
#variable d3 equal 1                      # Diamter of supporting particle

variable n2e1 equal (50+v_ind*50)*v_lat2              # Half length of top chain. 1500 is number of particles
variable n1e1 equal 1.5*v_n2e1*(v_lat1/v_lat2)               # Half length of bottom chain, which is 1.5 time larger than top chain
variable n1e2 equal -v_n1e1
variable n2e2 equal -v_n2e1
#variable lenspr equal -(v_n2e1+100)           # length of the spring connecting top chain and supporting particle
#variable lenspr1 equal -v_lenspr-0.1         # Position of supporting particle upper bound
#variable lenspr2 equal -v_lenspr+0.1         # Position of supporting particle lower bound

variable den equal 2.2 #grams/cm^3      # micrometer^3=10^-12 cm^3 Density of materials

variable V1 equal (1/6)*PI*(v_d1^3)     # Volume of particle 1
variable V2 equal (1/6)*PI*(v_d2^3)     # Volume of particle 2
#variable V3 equal (1/6)*PI*(v_d3^3)     # Volume of particle 3

variable mass1 equal v_den*v_V1  # Mass of particle 1 (picograms)
variable mass2 equal v_den*v_V2  # Mass of particle 2
#variable mass3 equal v_den*v_V3  # Mass of particle 3

# E GPa to picogram/(micrometer-microsecond^2)= 10^3 Pa= 10^-6 GPa
# Force unit(picogram-micrometer/microsecond^2)=10^-9 N= 1nN
# Spring stiffness (force/distance) 10^-3 N/m

#variable K0 equal (1500/50)*(10^5)             # Spring stiffness conneting top chain and sup particle
variable E equal 100*(10^6)                    # Young's Modulus using for Hertz/material model
variable PR equal 0.3                          # Poisson's ratio using for Hertz/material model
variable Fn equal -1000 #-(v_ind*100)                       # Force apply to each particles in top chain
variable dt equal 0.00001                      # Time step units microsecond
variable lgv equal 0.5                         #damping for langevin thermostat for slider

variable x_shift equal -v_lat1/2

################### Creating the model #################################
lattice sc ${lat1}                                                               # Bottom chain type1
lattice sc 3                                                               
Lattice spacing in x,y,z = 3 3 3

region box block ${n1e2} ${n1e1} -100 100 -100 100 units box
region box block -675 ${n1e1} -100 100 -100 100 units box
region box block -675 675 -100 100 -100 100 units box
region substrate block ${n1e2} ${n1e1} -0.5 0.5 0 0.5 units box
region substrate block -675 ${n1e1} -0.5 0.5 0 0.5 units box
region substrate block -675 675 -0.5 0.5 0 0.5 units box

create_box 2 box
Created orthogonal box = (-675 -100 -100) to (675 100 100)
  4 by 1 by 1 MPI processor grid
create_atoms 1 region substrate
Created 450 atoms
  using lattice units in orthogonal box = (-675 -100 -100) to (675 100 100)
  create_atoms CPU = 0.001 seconds

lattice sc ${lat2}                                                             # Top chain type2
lattice sc 3                                                             
Lattice spacing in x,y,z = 3 3 3

region slider1 block ${n2e2} ${n2e1} -0.1 0.1 5.9 6.1 units box
region slider1 block -450 ${n2e1} -0.1 0.1 5.9 6.1 units box
region slider1 block -450 450 -0.1 0.1 5.9 6.1 units box

create_atoms 2 region slider1
Created 301 atoms
  using lattice units in orthogonal box = (-675 -100 -100) to (675 100 100)
  create_atoms CPU = 0.000 seconds

#lattice sc ${lat0}                                                             # Supporting particle type3

#region support block ${lenspr1} ${lenspr2} -0.1 0.1 7.9 8.1 units box

#create_atoms 3 region support

set type 1 diameter ${d1}                    # Set mass and diameter for each particles type
set type 1 diameter 3                    
Setting atom values ...
  450 settings made for diameter
set type 1 mass ${mass1}
set type 1 mass 31.101767270539
Setting atom values ...
  450 settings made for mass
set type 2 diameter ${d2}
set type 2 diameter 3
Setting atom values ...
  301 settings made for diameter
set type 2 mass ${mass2}
set type 2 mass 31.101767270539
Setting atom values ...
  301 settings made for mass
#set type 3 diameter ${d3}
#set type 3 mass ${mass3}

group substrate region substrate           # Define gorup
450 atoms in group substrate
group slider1 region slider1
301 atoms in group slider1
#group support region support
group substrate_slider union substrate slider1
751 atoms in group substrate_slider

displace_atoms slider1 move ${x_shift} 0.0 0.0
displace_atoms slider1 move -1.5 0.0 0.0
Displacing atoms ...

########################## Potential ###################################
pair_style granular
pair_coeff 1 1 hertz/material 0.00000001 0.001 ${PR} tangential mindlin NULL 0.1 0.01 damping viscoelastic              ########### set E between each particle in same type is small to neglect their interaction
pair_coeff 1 1 hertz/material 0.00000001 0.001 0.3 tangential mindlin NULL 0.1 0.01 damping viscoelastic              
pair_coeff 2 2 hertz/material 0.00000001 0.001 ${PR} tangential mindlin NULL 0.1 0.01 damping viscoelastic
pair_coeff 2 2 hertz/material 0.00000001 0.001 0.3 tangential mindlin NULL 0.1 0.01 damping viscoelastic
#pair_coeff 3 3 hertz/material ${E} 0.001 ${PR} tangential mindlin NULL 0.1 0.01 damping viscoelastic
pair_coeff 1 2 hertz/material ${E} 0.001 ${PR} tangential mindlin NULL 0.1 0.01 damping viscoelastic
pair_coeff 1 2 hertz/material 100000000 0.001 ${PR} tangential mindlin NULL 0.1 0.01 damping viscoelastic
pair_coeff 1 2 hertz/material 100000000 0.001 0.3 tangential mindlin NULL 0.1 0.01 damping viscoelastic
#pair_coeff 1 3 hertz/material 0.00000001 0.001 ${PR} tangential mindlin NULL 0.1 0.01 damping viscoelastic
#pair_coeff 2 3 hertz/material 0.00000001 0.001 ${PR} tangential mindlin NULL 0.1 0.01 damping viscoelastic
comm_modify     vel yes
neigh_modify    delay 0 every 1 check yes

### Compute properties ###

compute 1 slider1 com                      # Compute the center of mass of top chain
#compute 2 support com                      # Compute the center of mass of supporting particle

variable p0 equal "step"

variable slider_z equal "c_1[3]"          # output the position of top chain in z-direction

#variable distance equal "c_2[1]-c_1[1]"   # Distance between COM of top chain and supporting particle

thermo 100000
thermo_style custom step lx ly lz press pxx pyy pzz ke pe temp c_1[1] c_1[2] c_1[3] #c_2[1] c_2[2] c_2[3] v_distance

############### Fix ##################


############## Equilibrium the system with apply force ########################

fix force_slider1 slider1 setforce NULL 0 NULL                                # Fix top chain not to move in y-direction

fix f_sub substrate freeze                                                    # Freeze the bottom chain

fix rigid_top slider1 rigid/nve group 1 slider1 langevin 0 0 ${lgv} 6987532   # NVE+langevin
fix rigid_top slider1 rigid/nve group 1 slider1 langevin 0 0 0.5 6987532   
  1 rigid bodies with 301 atoms

fix add slider1 addforce 0 0 ${Fn} every 1                                    # Add force to top layer
fix add slider1 addforce 0 0 -1000 every 1                                    

timestep ${dt}
timestep 1e-05

# fix  nve_1 slider1 nve

dump 		D1 all custom 100000 Equi_${num}_*.dump id type diameter mass xu yu zu
dump 		D1 all custom 100000 Equi_2_*.dump id type diameter mass xu yu zu
dump_modify D1 format 5 %.18g
dump_modify D1 format 7 %.18g

run 3000000
Generated 0 of 1 mixed pair_coeff terms from geometric mixing rule
Neighbor list info ...
  update every 1 steps, delay 0 steps, check yes
  max neighbors/atom: 2000, page size: 100000
  master list distance cutoff = 3.1
  ghost atom cutoff = 3.1
  binsize = 1.55, bins = 871 130 130
  1 neighbor lists, perpetual/occasional/extra = 1 0 0
  (1) pair granular, perpetual
      attributes: half, newton on, size, history
      pair build: half/size/bin/newton
      stencil: half/bin/3d
      bin: standard
Per MPI rank memory allocation (min/avg/max) = 28.24 | 28.24 | 28.24 Mbytes
   Step           Lx             Ly             Lz           Press           Pxx            Pyy            Pzz           KinEng         PotEng          Temp          c_1[1]         c_1[2]         c_1[3]    
         0   1350           200            200            0              0              0              0              0              0              0             -4.5            0              6            
    100000   1350           200            200            0.0036158444   2.8331859e-18  0              0.010847533    131706.07      0              4.2397433e+10 -4.5            0              3.2458194    
    200000   1350           200            200            0.00068317102  7.7696802e-18  0              0.0020495131   12452.796      0              4.0086731e+09 -4.5            0              2.8089714    
    300000   1350           200            200           -9.7370682e-05  1.5235415e-17  0             -0.00029211205  538.07449      0              1.7321127e+08 -4.5            0              2.6518137    
    400000   1350           200            200            0.00024349203  2.2830126e-17  0              0.0007304761   2375.8468      0              7.6480759e+08 -4.5            0              2.6020243    
    500000   1350           200            200            0.029961456    0.022069002    0              0.067815365    85.599077      0              27555154      -4.5            0              2.5966739    
    600000   1350           200            200            0.005813771    0.0042717895   0              0.013169524    18.798274      0              6051342.5     -4.5            0              2.5976069    
    700000   1350           200            200            0.006394248    0.0048206425   0              0.014362102    0.008123458    0              2615.0181     -4.5            0              2.5975751    
    800000   1350           200            200            0.0064279456   0.0048252024   0              0.014458634    0.0013642772   0              439.17375     -4.5            0              2.5975733    
    900000   1350           200            200            0.0064443479   0.004827348    0              0.014505696    5.9912059e-05  0              19.286259     -4.5            0              2.5975724    
   1000000   1350           200            200            0.0064310293   0.0048255898   0              0.014467498    6.4239008e-07  0              0.20679145    -4.5            0              2.5975731    
   1100000   1350           200            200            0.006435983    0.0048262471   0              0.014481702    2.1579937e-06  0              0.69467862    -4.5            0              2.5975729    
   1200000   1350           200            200            0.0064351099   0.0048261303   0              0.014479199    4.6418989e-07  0              0.14942712    -4.5            0              2.5975729    
   1300000   1350           200            200            0.006434914    0.0048261049   0              0.014478637    2.8476469e-08  0              0.0091668451  -4.5            0              2.5975729    
   1400000   1350           200            200            0.0064351364   0.0048261342   0              0.014479275    6.499157e-13   0              2.0921402e-07 -4.5            0              2.5975729    
   1500000   1350           200            200            0.0064350432   0.0048261219   0              0.014479008    5.325993e-10   0              0.00017144876 -4.5            0              2.5975729    
   1600000   1350           200            200            0.0064350634   0.0048261246   0              0.014479066    1.5092668e-10  0              4.8584728e-05 -4.5            0              2.5975729    
   1700000   1350           200            200            0.0064350651   0.0048261248   0              0.01447907     1.2253896e-11  0              3.9446453e-06 -4.5            0              2.5975729    
   1800000   1350           200            200            0.0064350615   0.0048261243   0              0.01447906     5.3478435e-14  0              1.7215215e-08 -4.5            0              2.5975729    
   1900000   1350           200            200            0.0064350632   0.0048261245   0              0.014479065    1.1929252e-13  0              3.8401391e-08 -4.5            0              2.5975729    
   2000000   1350           200            200            0.0064350627   0.0048261245   0              0.014479064    4.6752923e-14  0              1.5050209e-08 -4.5            0              2.5975729    
   2100000   1350           200            200            0.0064350627   0.0048261245   0              0.014479064    4.8981759e-15  0              1.5767692e-09 -4.5            0              2.5975729    
   2200000   1350           200            200            0.0064350628   0.0048261245   0              0.014479064    7.4539429e-17  0              2.3994948e-11 -4.5            0              2.5975729    
   2300000   1350           200            200            0.0064350628   0.0048261245   0              0.014479064    4.1017197e-17  0              1.3203824e-11 -4.5            0              2.5975729    
   2400000   1350           200            200            0.0064350628   0.0048261245   0              0.014479064    2.1713618e-19  0              6.9898195e-14 -4.5            0              2.5975729    
   2500000   1350           200            200            0.0064350628   0.0048261245   0              0.014479064    1.0884115e-18  0              3.5036999e-13 -4.5            0              2.5975729    
   2600000   1350           200            200            0.0064350628   0.0048261245   0              0.014479064    8.2177491e-20  0              2.6453713e-14 -4.5            0              2.5975729    
   2700000   1350           200            200            0.0064350628   0.0048261245   0              0.014479064    8.3265978e-20  0              2.6804107e-14 -4.5            0              2.5975729    
   2800000   1350           200            200            0.0064350628   0.0048261245   0              0.014479064    2.1866227e-21  0              7.0389457e-16 -4.5            0              2.5975729    
   2900000   1350           200            200            0.0064350628   0.0048261245   0              0.014479064    6.20322e-22    0              1.9968753e-16 -4.5            0              2.5975729    
   3000000   1350           200            200            0.0064350628   0.0048261245   0              0.014479064    1.8669479e-22  0              6.0098823e-17 -4.5            0              2.5975729    
Loop time of 154.562 on 4 procs for 3000000 steps with 751 atoms

Performance: 16770002.415 ns/day, 0.000 hours/ns, 19409.725 timesteps/s
100.0% CPU use with 4 MPI tasks x 1 OpenMP threads

MPI task timing breakdown:
Section |  min time  |  avg time  |  max time  |%varavg| %total
---------------------------------------------------------------
Pair    | 28.357     | 47.163     | 65.524     | 263.5 | 30.51
Neigh   | 0.84831    | 0.8546     | 0.86078    |   0.5 |  0.55
Comm    | 23.678     | 41.359     | 60.453     | 272.3 | 26.76
Output  | 0.11629    | 0.11638    | 0.11651    |   0.0 |  0.08
Modify  | 43.422     | 49.14      | 53.926     |  68.3 | 31.79
Other   |            | 15.93      |            |       | 10.31

Nlocal:         187.75 ave         225 max         149 min
Histogram: 2 0 0 0 0 0 0 0 0 2
Nghost:            4.5 ave           5 max           4 min
Histogram: 2 0 0 0 0 0 0 0 0 2
Neighs:            338 ave         451 max         221 min
Histogram: 2 0 0 0 0 0 0 0 0 2

Total # of neighbors = 1352
Ave neighs/atom = 1.8002663
Neighbor list builds = 184
Dangerous builds = 0

undump D1

############ Add spring between top chain to supp particle and then equilibrium  ###########

#fix sp1 support spring couple slider1 ${K0} ${lenspr} NULL NULL 0                                 # Add spring

#dump 		D2 all custom 100000 add_${num}*.dump id type diameter mass xu yu zu

#fix add1 all print 10 "${p0} ${distance} ${slider_z}" file add_distance_${num}.txt screen no      # out put step, distance(spring length), z-position of top chain

#run 1000000

#undump D2

#unfix add1

########## Pulling the supporting particle with constant velocity #############

#fix m1 support move linear 0.1 0 0 units box                                                      # apply constant velocity to supporting particles along x-direction V=0.1m/s

#fix move1 all print 100 "${p0} ${distance} ${slider_z}" file move_distance_${num}.txt screen no

#dump 		1 all custom 50000 move_${num}_*.dump id type diameter mass xu yu zu

#run 1000000

clear
  using 1 OpenMP thread(s) per MPI task

next num

jump SELF startloop

include granular.in
### Simulation of contact between two chain

##################### Simulation setup ####################

units micro                              # units
dimension	3                            # dimension
boundary	p p p                        # boundary condition p: periodic
atom_style	sphere                       # atom style
#processors * * 1

####################### Parameter ##################################

variable ind equal ${num}
variable ind equal 3

#variable lat0 equal 1                    #
variable lat1 equal 3 #+(v_ind*0.01)       # Lattice distance of bottom chain
variable lat2 equal 3                    # Lattice distance of top chain
variable d1 equal 3                      # Diamter of particle at bottom chain
variable d2 equal 3                      # Diamter of particle at top chain
#variable d3 equal 1                      # Diamter of supporting particle

variable n2e1 equal (50+v_ind*50)*v_lat2              # Half length of top chain. 1500 is number of particles
variable n1e1 equal 1.5*v_n2e1*(v_lat1/v_lat2)               # Half length of bottom chain, which is 1.5 time larger than top chain
variable n1e2 equal -v_n1e1
variable n2e2 equal -v_n2e1
#variable lenspr equal -(v_n2e1+100)           # length of the spring connecting top chain and supporting particle
#variable lenspr1 equal -v_lenspr-0.1         # Position of supporting particle upper bound
#variable lenspr2 equal -v_lenspr+0.1         # Position of supporting particle lower bound

variable den equal 2.2 #grams/cm^3      # micrometer^3=10^-12 cm^3 Density of materials

variable V1 equal (1/6)*PI*(v_d1^3)     # Volume of particle 1
variable V2 equal (1/6)*PI*(v_d2^3)     # Volume of particle 2
#variable V3 equal (1/6)*PI*(v_d3^3)     # Volume of particle 3

variable mass1 equal v_den*v_V1  # Mass of particle 1 (picograms)
variable mass2 equal v_den*v_V2  # Mass of particle 2
#variable mass3 equal v_den*v_V3  # Mass of particle 3

# E GPa to picogram/(micrometer-microsecond^2)= 10^3 Pa= 10^-6 GPa
# Force unit(picogram-micrometer/microsecond^2)=10^-9 N= 1nN
# Spring stiffness (force/distance) 10^-3 N/m

#variable K0 equal (1500/50)*(10^5)             # Spring stiffness conneting top chain and sup particle
variable E equal 100*(10^6)                    # Young's Modulus using for Hertz/material model
variable PR equal 0.3                          # Poisson's ratio using for Hertz/material model
variable Fn equal -1000 #-(v_ind*100)                       # Force apply to each particles in top chain
variable dt equal 0.00001                      # Time step units microsecond
variable lgv equal 0.5                         #damping for langevin thermostat for slider

variable x_shift equal -v_lat1/2

################### Creating the model #################################
lattice sc ${lat1}                                                               # Bottom chain type1
lattice sc 3                                                               
Lattice spacing in x,y,z = 3 3 3

region box block ${n1e2} ${n1e1} -100 100 -100 100 units box
region box block -900 ${n1e1} -100 100 -100 100 units box
region box block -900 900 -100 100 -100 100 units box
region substrate block ${n1e2} ${n1e1} -0.5 0.5 0 0.5 units box
region substrate block -900 ${n1e1} -0.5 0.5 0 0.5 units box
region substrate block -900 900 -0.5 0.5 0 0.5 units box

create_box 2 box
Created orthogonal box = (-900 -100 -100) to (900 100 100)
  4 by 1 by 1 MPI processor grid
create_atoms 1 region substrate
Created 600 atoms
  using lattice units in orthogonal box = (-900 -100 -100) to (900 100 100)
  create_atoms CPU = 0.001 seconds

lattice sc ${lat2}                                                             # Top chain type2
lattice sc 3                                                             
Lattice spacing in x,y,z = 3 3 3

region slider1 block ${n2e2} ${n2e1} -0.1 0.1 5.9 6.1 units box
region slider1 block -600 ${n2e1} -0.1 0.1 5.9 6.1 units box
region slider1 block -600 600 -0.1 0.1 5.9 6.1 units box

create_atoms 2 region slider1
Created 401 atoms
  using lattice units in orthogonal box = (-900 -100 -100) to (900 100 100)
  create_atoms CPU = 0.000 seconds

#lattice sc ${lat0}                                                             # Supporting particle type3

#region support block ${lenspr1} ${lenspr2} -0.1 0.1 7.9 8.1 units box

#create_atoms 3 region support

set type 1 diameter ${d1}                    # Set mass and diameter for each particles type
set type 1 diameter 3                    
Setting atom values ...
  600 settings made for diameter
set type 1 mass ${mass1}
set type 1 mass 31.101767270539
Setting atom values ...
  600 settings made for mass
set type 2 diameter ${d2}
set type 2 diameter 3
Setting atom values ...
  401 settings made for diameter
set type 2 mass ${mass2}
set type 2 mass 31.101767270539
Setting atom values ...
  401 settings made for mass
#set type 3 diameter ${d3}
#set type 3 mass ${mass3}

group substrate region substrate           # Define gorup
600 atoms in group substrate
group slider1 region slider1
401 atoms in group slider1
#group support region support
group substrate_slider union substrate slider1
1001 atoms in group substrate_slider

displace_atoms slider1 move ${x_shift} 0.0 0.0
displace_atoms slider1 move -1.5 0.0 0.0
Displacing atoms ...

########################## Potential ###################################
pair_style granular
pair_coeff 1 1 hertz/material 0.00000001 0.001 ${PR} tangential mindlin NULL 0.1 0.01 damping viscoelastic              ########### set E between each particle in same type is small to neglect their interaction
pair_coeff 1 1 hertz/material 0.00000001 0.001 0.3 tangential mindlin NULL 0.1 0.01 damping viscoelastic              
pair_coeff 2 2 hertz/material 0.00000001 0.001 ${PR} tangential mindlin NULL 0.1 0.01 damping viscoelastic
pair_coeff 2 2 hertz/material 0.00000001 0.001 0.3 tangential mindlin NULL 0.1 0.01 damping viscoelastic
#pair_coeff 3 3 hertz/material ${E} 0.001 ${PR} tangential mindlin NULL 0.1 0.01 damping viscoelastic
pair_coeff 1 2 hertz/material ${E} 0.001 ${PR} tangential mindlin NULL 0.1 0.01 damping viscoelastic
pair_coeff 1 2 hertz/material 100000000 0.001 ${PR} tangential mindlin NULL 0.1 0.01 damping viscoelastic
pair_coeff 1 2 hertz/material 100000000 0.001 0.3 tangential mindlin NULL 0.1 0.01 damping viscoelastic
#pair_coeff 1 3 hertz/material 0.00000001 0.001 ${PR} tangential mindlin NULL 0.1 0.01 damping viscoelastic
#pair_coeff 2 3 hertz/material 0.00000001 0.001 ${PR} tangential mindlin NULL 0.1 0.01 damping viscoelastic
comm_modify     vel yes
neigh_modify    delay 0 every 1 check yes

### Compute properties ###

compute 1 slider1 com                      # Compute the center of mass of top chain
#compute 2 support com                      # Compute the center of mass of supporting particle

variable p0 equal "step"

variable slider_z equal "c_1[3]"          # output the position of top chain in z-direction

#variable distance equal "c_2[1]-c_1[1]"   # Distance between COM of top chain and supporting particle

thermo 100000
thermo_style custom step lx ly lz press pxx pyy pzz ke pe temp c_1[1] c_1[2] c_1[3] #c_2[1] c_2[2] c_2[3] v_distance

############### Fix ##################


############## Equilibrium the system with apply force ########################

fix force_slider1 slider1 setforce NULL 0 NULL                                # Fix top chain not to move in y-direction

fix f_sub substrate freeze                                                    # Freeze the bottom chain

fix rigid_top slider1 rigid/nve group 1 slider1 langevin 0 0 ${lgv} 6987532   # NVE+langevin
fix rigid_top slider1 rigid/nve group 1 slider1 langevin 0 0 0.5 6987532   
  1 rigid bodies with 401 atoms

fix add slider1 addforce 0 0 ${Fn} every 1                                    # Add force to top layer
fix add slider1 addforce 0 0 -1000 every 1                                    

timestep ${dt}
timestep 1e-05

# fix  nve_1 slider1 nve

dump 		D1 all custom 100000 Equi_${num}_*.dump id type diameter mass xu yu zu
dump 		D1 all custom 100000 Equi_3_*.dump id type diameter mass xu yu zu
dump_modify D1 format 5 %.18g
dump_modify D1 format 7 %.18g

run 3000000
Generated 0 of 1 mixed pair_coeff terms from geometric mixing rule
Neighbor list info ...
  update every 1 steps, delay 0 steps, check yes
  max neighbors/atom: 2000, page size: 100000
  master list distance cutoff = 3.1
  ghost atom cutoff = 3.1
  binsize = 1.55, bins = 1162 130 130
  1 neighbor lists, perpetual/occasional/extra = 1 0 0
  (1) pair granular, perpetual
      attributes: half, newton on, size, history
      pair build: half/size/bin/newton
      stencil: half/bin/3d
      bin: standard
Per MPI rank memory allocation (min/avg/max) = 33.32 | 33.35 | 33.39 Mbytes
   Step           Lx             Ly             Lz           Press           Pxx            Pyy            Pzz           KinEng         PotEng          Temp          c_1[1]         c_1[2]         c_1[3]    
         0   1800           200            200            0              0              0              0              0              0              0             -4.5            0              6            
    100000   1800           200            200            0.0036129101  -2.764231e-17   0              0.01083873     175470.74      0              4.2364271e+10 -4.5            0              3.2457248    
    200000   1800           200            200            0.00068344472 -7.5664373e-17  0              0.0020503342   16624.309      0              4.013642e+09  -4.5            0              2.808839     
    300000   1800           200            200           -9.5844821e-05 -1.4853751e-16  0             -0.00028753446  694.14459      0              1.6758879e+08 -4.5            0              2.651853     
    400000   1800           200            200            0.00024724418 -2.2258957e-16  0              0.00074173253  3257.9705      0              7.8657867e+08 -4.5            0              2.6017753    
    500000   1800           200            200            0.031887311    0.023508708    0              0.072153225    19.079476      0              4606398.2     -4.5            0              2.5966127    
    600000   1800           200            200            0.0069206509   0.0050879754   0              0.015673977    25.015344      0              6039507.1     -4.5            0              2.5975486    
    700000   1800           200            200            0.0064172928   0.0048205353   0              0.014431343    0.013892963    0              3354.2074     -4.5            0              2.5975736    
    800000   1800           200            200            0.0064126951   0.0048199998   0              0.014418085    0.0013040149   0              314.83107     -4.5            0              2.5975738    
    900000   1800           200            200            0.0064405671   0.0048236733   0              0.014498028    1.2941216e-05  0              3.124425      -4.5            0              2.5975724    
   1000000   1800           200            200            0.0064262504   0.0048217798   0              0.014456971    8.4424449e-06  0              2.0382773     -4.5            0              2.5975731    
   1100000   1800           200            200            0.0064301984   0.0048223051   0              0.01446829     4.1596139e-06  0              1.0042643     -4.5            0              2.5975729    
   1200000   1800           200            200            0.006429997    0.0048222771   0              0.014467714    4.9672753e-07  0              0.11992597    -4.5            0              2.5975729    
   1300000   1800           200            200            0.0064295767   0.0048222219   0              0.014466508    1.1025311e-08  0              0.0026618639  -4.5            0              2.5975729    
   1400000   1800           200            200            0.006429829    0.0048222552   0              0.014467232    1.4447774e-09  0              0.00034881565 -4.5            0              2.5975729    
   1500000   1800           200            200            0.0064297499   0.0048222447   0              0.014467005    1.1856424e-09  0              0.00028625215 -4.5            0              2.5975729    
   1600000   1800           200            200            0.0064297586   0.0048222459   0              0.01446703     1.7897001e-10  0              4.3209107e-05 -4.5            0              2.5975729    
   1700000   1800           200            200            0.0064297645   0.0048222467   0              0.014467047    6.5803419e-12  0              1.5887058e-06 -4.5            0              2.5975729    
   1800000   1800           200            200            0.0064297602   0.0048222461   0              0.014467034    1.7132779e-13  0              4.1364028e-08 -4.5            0              2.5975729    
   1900000   1800           200            200            0.0064297617   0.0048222463   0              0.014467039    3.1957692e-13  0              7.7156129e-08 -4.5            0              2.5975729    
   2000000   1800           200            200            0.0064297615   0.0048222463   0              0.014467038    6.1601587e-14  0              1.4872601e-08 -4.5            0              2.5975729    
   2100000   1800           200            200            0.0064297614   0.0048222463   0              0.014467038    3.3335068e-15  0              8.0481556e-10 -4.5            0              2.5975729    
   2200000   1800           200            200            0.0064297615   0.0048222463   0              0.014467038    1.0194725e-17  0              2.4613339e-12 -4.5            0              2.5975729    
   2300000   1800           200            200            0.0064297614   0.0048222463   0              0.014467038    1.0901617e-16  0              2.6320003e-11 -4.5            0              2.5975729    
   2400000   1800           200            200            0.0064297614   0.0048222463   0              0.014467038    8.8935637e-19  0              2.1471918e-13 -4.5            0              2.5975729    
   2500000   1800           200            200            0.0064297614   0.0048222463   0              0.014467038    3.6295048e-18  0              8.7627899e-13 -4.5            0              2.5975729    
   2600000   1800           200            200            0.0064297614   0.0048222463   0              0.014467038    7.9212307e-19  0              1.9124394e-13 -4.5            0              2.5975729    
   2700000   1800           200            200            0.0064297614   0.0048222463   0              0.014467038    1.5422695e-20  0              3.7235337e-15 -4.5            0              2.5975729    
   2800000   1800           200            200            0.0064297614   0.0048222463   0              0.014467038    6.7990628e-21  0              1.641512e-15  -4.5            0              2.5975729    
   2900000   1800           200            200            0.0064297614   0.0048222463   0              0.014467038    1.6769601e-21  0              4.04872e-16   -4.5            0              2.5975729    
   3000000   1800           200            200            0.0064297614   0.0048222463   0              0.014467038    1.1023745e-24  0              2.661486e-19  -4.5            0              2.5975729    
Loop time of 196.571 on 4 procs for 3000000 steps with 1001 atoms

Performance: 13186046.701 ns/day, 0.000 hours/ns, 15261.628 timesteps/s
100.0% CPU use with 4 MPI tasks x 1 OpenMP threads

MPI task timing breakdown:
Section |  min time  |  avg time  |  max time  |%varavg| %total
---------------------------------------------------------------
Pair    | 38.821     | 64.359     | 90.81      | 312.3 | 32.74
Neigh   | 1.1184     | 1.1269     | 1.1348     |   0.7 |  0.57
Comm    | 24.394     | 49.462     | 73.443     | 340.2 | 25.16
Output  | 0.12884    | 0.12895    | 0.12912    |   0.0 |  0.07
Modify  | 55.47      | 62.408     | 69.478     |  79.9 | 31.75
Other   |            | 19.09      |            |       |  9.71

Nlocal:         250.25 ave         300 max         199 min
Histogram: 2 0 0 0 0 0 0 0 0 2
Nghost:            4.5 ave           5 max           4 min
Histogram: 2 0 0 0 0 0 0 0 0 2
Neighs:          450.5 ave         600 max         297 min
Histogram: 2 0 0 0 0 0 0 0 0 2

Total # of neighbors = 1802
Ave neighs/atom = 1.8001998
Neighbor list builds = 184
Dangerous builds = 0

undump D1

############ Add spring between top chain to supp particle and then equilibrium  ###########

#fix sp1 support spring couple slider1 ${K0} ${lenspr} NULL NULL 0                                 # Add spring

#dump 		D2 all custom 100000 add_${num}*.dump id type diameter mass xu yu zu

#fix add1 all print 10 "${p0} ${distance} ${slider_z}" file add_distance_${num}.txt screen no      # out put step, distance(spring length), z-position of top chain

#run 1000000

#undump D2

#unfix add1

########## Pulling the supporting particle with constant velocity #############

#fix m1 support move linear 0.1 0 0 units box                                                      # apply constant velocity to supporting particles along x-direction V=0.1m/s

#fix move1 all print 100 "${p0} ${distance} ${slider_z}" file move_distance_${num}.txt screen no

#dump 		1 all custom 50000 move_${num}_*.dump id type diameter mass xu yu zu

#run 1000000

clear
  using 1 OpenMP thread(s) per MPI task

next num

jump SELF startloop

include granular.in
### Simulation of contact between two chain

##################### Simulation setup ####################

units micro                              # units
dimension	3                            # dimension
boundary	p p p                        # boundary condition p: periodic
atom_style	sphere                       # atom style
#processors * * 1

####################### Parameter ##################################

variable ind equal ${num}
variable ind equal 4

#variable lat0 equal 1                    #
variable lat1 equal 3 #+(v_ind*0.01)       # Lattice distance of bottom chain
variable lat2 equal 3                    # Lattice distance of top chain
variable d1 equal 3                      # Diamter of particle at bottom chain
variable d2 equal 3                      # Diamter of particle at top chain
#variable d3 equal 1                      # Diamter of supporting particle

variable n2e1 equal (50+v_ind*50)*v_lat2              # Half length of top chain. 1500 is number of particles
variable n1e1 equal 1.5*v_n2e1*(v_lat1/v_lat2)               # Half length of bottom chain, which is 1.5 time larger than top chain
variable n1e2 equal -v_n1e1
variable n2e2 equal -v_n2e1
#variable lenspr equal -(v_n2e1+100)           # length of the spring connecting top chain and supporting particle
#variable lenspr1 equal -v_lenspr-0.1         # Position of supporting particle upper bound
#variable lenspr2 equal -v_lenspr+0.1         # Position of supporting particle lower bound

variable den equal 2.2 #grams/cm^3      # micrometer^3=10^-12 cm^3 Density of materials

variable V1 equal (1/6)*PI*(v_d1^3)     # Volume of particle 1
variable V2 equal (1/6)*PI*(v_d2^3)     # Volume of particle 2
#variable V3 equal (1/6)*PI*(v_d3^3)     # Volume of particle 3

variable mass1 equal v_den*v_V1  # Mass of particle 1 (picograms)
variable mass2 equal v_den*v_V2  # Mass of particle 2
#variable mass3 equal v_den*v_V3  # Mass of particle 3

# E GPa to picogram/(micrometer-microsecond^2)= 10^3 Pa= 10^-6 GPa
# Force unit(picogram-micrometer/microsecond^2)=10^-9 N= 1nN
# Spring stiffness (force/distance) 10^-3 N/m

#variable K0 equal (1500/50)*(10^5)             # Spring stiffness conneting top chain and sup particle
variable E equal 100*(10^6)                    # Young's Modulus using for Hertz/material model
variable PR equal 0.3                          # Poisson's ratio using for Hertz/material model
variable Fn equal -1000 #-(v_ind*100)                       # Force apply to each particles in top chain
variable dt equal 0.00001                      # Time step units microsecond
variable lgv equal 0.5                         #damping for langevin thermostat for slider

variable x_shift equal -v_lat1/2

################### Creating the model #################################
lattice sc ${lat1}                                                               # Bottom chain type1
lattice sc 3                                                               
Lattice spacing in x,y,z = 3 3 3

region box block ${n1e2} ${n1e1} -100 100 -100 100 units box
region box block -1125 ${n1e1} -100 100 -100 100 units box
region box block -1125 1125 -100 100 -100 100 units box
region substrate block ${n1e2} ${n1e1} -0.5 0.5 0 0.5 units box
region substrate block -1125 ${n1e1} -0.5 0.5 0 0.5 units box
region substrate block -1125 1125 -0.5 0.5 0 0.5 units box

create_box 2 box
Created orthogonal box = (-1125 -100 -100) to (1125 100 100)
  4 by 1 by 1 MPI processor grid
create_atoms 1 region substrate
Created 750 atoms
  using lattice units in orthogonal box = (-1125 -100 -100) to (1125 100 100)
  create_atoms CPU = 0.001 seconds

lattice sc ${lat2}                                                             # Top chain type2
lattice sc 3                                                             
Lattice spacing in x,y,z = 3 3 3

region slider1 block ${n2e2} ${n2e1} -0.1 0.1 5.9 6.1 units box
region slider1 block -750 ${n2e1} -0.1 0.1 5.9 6.1 units box
region slider1 block -750 750 -0.1 0.1 5.9 6.1 units box

create_atoms 2 region slider1
Created 501 atoms
  using lattice units in orthogonal box = (-1125 -100 -100) to (1125 100 100)
  create_atoms CPU = 0.000 seconds

#lattice sc ${lat0}                                                             # Supporting particle type3

#region support block ${lenspr1} ${lenspr2} -0.1 0.1 7.9 8.1 units box

#create_atoms 3 region support

set type 1 diameter ${d1}                    # Set mass and diameter for each particles type
set type 1 diameter 3                    
Setting atom values ...
  750 settings made for diameter
set type 1 mass ${mass1}
set type 1 mass 31.101767270539
Setting atom values ...
  750 settings made for mass
set type 2 diameter ${d2}
set type 2 diameter 3
Setting atom values ...
  501 settings made for diameter
set type 2 mass ${mass2}
set type 2 mass 31.101767270539
Setting atom values ...
  501 settings made for mass
#set type 3 diameter ${d3}
#set type 3 mass ${mass3}

group substrate region substrate           # Define gorup
750 atoms in group substrate
group slider1 region slider1
501 atoms in group slider1
#group support region support
group substrate_slider union substrate slider1
1251 atoms in group substrate_slider

displace_atoms slider1 move ${x_shift} 0.0 0.0
displace_atoms slider1 move -1.5 0.0 0.0
Displacing atoms ...

########################## Potential ###################################
pair_style granular
pair_coeff 1 1 hertz/material 0.00000001 0.001 ${PR} tangential mindlin NULL 0.1 0.01 damping viscoelastic              ########### set E between each particle in same type is small to neglect their interaction
pair_coeff 1 1 hertz/material 0.00000001 0.001 0.3 tangential mindlin NULL 0.1 0.01 damping viscoelastic              
pair_coeff 2 2 hertz/material 0.00000001 0.001 ${PR} tangential mindlin NULL 0.1 0.01 damping viscoelastic
pair_coeff 2 2 hertz/material 0.00000001 0.001 0.3 tangential mindlin NULL 0.1 0.01 damping viscoelastic
#pair_coeff 3 3 hertz/material ${E} 0.001 ${PR} tangential mindlin NULL 0.1 0.01 damping viscoelastic
pair_coeff 1 2 hertz/material ${E} 0.001 ${PR} tangential mindlin NULL 0.1 0.01 damping viscoelastic
pair_coeff 1 2 hertz/material 100000000 0.001 ${PR} tangential mindlin NULL 0.1 0.01 damping viscoelastic
pair_coeff 1 2 hertz/material 100000000 0.001 0.3 tangential mindlin NULL 0.1 0.01 damping viscoelastic
#pair_coeff 1 3 hertz/material 0.00000001 0.001 ${PR} tangential mindlin NULL 0.1 0.01 damping viscoelastic
#pair_coeff 2 3 hertz/material 0.00000001 0.001 ${PR} tangential mindlin NULL 0.1 0.01 damping viscoelastic
comm_modify     vel yes
neigh_modify    delay 0 every 1 check yes

### Compute properties ###

compute 1 slider1 com                      # Compute the center of mass of top chain
#compute 2 support com                      # Compute the center of mass of supporting particle

variable p0 equal "step"

variable slider_z equal "c_1[3]"          # output the position of top chain in z-direction

#variable distance equal "c_2[1]-c_1[1]"   # Distance between COM of top chain and supporting particle

thermo 100000
thermo_style custom step lx ly lz press pxx pyy pzz ke pe temp c_1[1] c_1[2] c_1[3] #c_2[1] c_2[2] c_2[3] v_distance

############### Fix ##################


############## Equilibrium the system with apply force ########################

fix force_slider1 slider1 setforce NULL 0 NULL                                # Fix top chain not to move in y-direction

fix f_sub substrate freeze                                                    # Freeze the bottom chain

fix rigid_top slider1 rigid/nve group 1 slider1 langevin 0 0 ${lgv} 6987532   # NVE+langevin
fix rigid_top slider1 rigid/nve group 1 slider1 langevin 0 0 0.5 6987532   
  1 rigid bodies with 501 atoms

fix add slider1 addforce 0 0 ${Fn} every 1                                    # Add force to top layer
fix add slider1 addforce 0 0 -1000 every 1                                    

timestep ${dt}
timestep 1e-05

# fix  nve_1 slider1 nve

dump 		D1 all custom 100000 Equi_${num}_*.dump id type diameter mass xu yu zu
dump 		D1 all custom 100000 Equi_4_*.dump id type diameter mass xu yu zu
dump_modify D1 format 5 %.18g
dump_modify D1 format 7 %.18g

run 3000000
Generated 0 of 1 mixed pair_coeff terms from geometric mixing rule
Neighbor list info ...
  update every 1 steps, delay 0 steps, check yes
  max neighbors/atom: 2000, page size: 100000
  master list distance cutoff = 3.1
  ghost atom cutoff = 3.1
  binsize = 1.55, bins = 1452 130 130
  1 neighbor lists, perpetual/occasional/extra = 1 0 0
  (1) pair granular, perpetual
      attributes: half, newton on, size, history
      pair build: half/size/bin/newton
      stencil: half/bin/3d
      bin: standard
Per MPI rank memory allocation (min/avg/max) = 38.4 | 38.4 | 38.4 Mbytes
   Step           Lx             Ly             Lz           Press           Pxx            Pyy            Pzz           KinEng         PotEng          Temp          c_1[1]         c_1[2]         c_1[3]    
[...]
pair_coeff 1 2 hertz/material ${E} 0.001 ${PR} tangential mindlin NULL 0.1 0.01 damping viscoelastic
pair_coeff 1 2 hertz/material 100000000 0.001 ${PR} tangential mindlin NULL 0.1 0.01 damping viscoelastic
pair_coeff 1 2 hertz/material 100000000 0.001 0.3 tangential mindlin NULL 0.1 0.01 damping viscoelastic
#pair_coeff 1 3 hertz/material 0.00000001 0.001 ${PR} tangential mindlin NULL 0.1 0.01 damping viscoelastic
#pair_coeff 2 3 hertz/material 0.00000001 0.001 ${PR} tangential mindlin NULL 0.1 0.01 damping viscoelastic
comm_modify     vel yes
neigh_modify    delay 0 every 1 check yes

### Compute properties ###

compute 1 slider1 com                      # Compute the center of mass of top chain
#compute 2 support com                      # Compute the center of mass of supporting particle

variable p0 equal "step"

variable slider_z equal "c_1[3]"          # output the position of top chain in z-direction

#variable distance equal "c_2[1]-c_1[1]"   # Distance between COM of top chain and supporting particle

thermo 100000
thermo_style custom step lx ly lz press pxx pyy pzz ke pe temp c_1[1] c_1[2] c_1[3] #c_2[1] c_2[2] c_2[3] v_distance

############### Fix ##################


############## Equilibrium the system with apply force ########################

fix force_slider1 slider1 setforce NULL 0 NULL                                # Fix top chain not to move in y-direction

fix f_sub substrate freeze                                                    # Freeze the bottom chain

fix rigid_top slider1 rigid/nve group 1 slider1 langevin 0 0 ${lgv} 6987532   # NVE+langevin
fix rigid_top slider1 rigid/nve group 1 slider1 langevin 0 0 0.5 6987532   
  1 rigid bodies with 3401 atoms

fix add slider1 addforce 0 0 ${Fn} every 1                                    # Add force to top layer
fix add slider1 addforce 0 0 -1000 every 1                                    

timestep ${dt}
timestep 1e-05

# fix  nve_1 slider1 nve

dump 		D1 all custom 100000 Equi_${num}_*.dump id type diameter mass xu yu zu
dump 		D1 all custom 100000 Equi_33_*.dump id type diameter mass xu yu zu
dump_modify D1 format 5 %.18g
dump_modify D1 format 7 %.18g

run 3000000
Generated 0 of 1 mixed pair_coeff terms from geometric mixing rule
Neighbor list info ...
  update every 1 steps, delay 0 steps, check yes
  max neighbors/atom: 2000, page size: 100000
  master list distance cutoff = 3.1
  ghost atom cutoff = 3.1
  binsize = 1.55, bins = 9871 130 130
  1 neighbor lists, perpetual/occasional/extra = 1 0 0
  (1) pair granular, perpetual
      attributes: half, newton on, size, history
      pair build: half/size/bin/newton
      stencil: half/bin/3d
      bin: standard
Per MPI rank memory allocation (min/avg/max) = 184.9 | 184.9 | 184.9 Mbytes
   Step           Lx             Ly             Lz           Press           Pxx            Pyy            Pzz           KinEng         PotEng          Temp          c_1[1]         c_1[2]         c_1[3]    
         0   15300          200            200            0              0              0              0              0              0              0             -4.5            0              6            
    100000   15300          200            200            0.0036070218   6.0755522e-17  0              0.010821065    1490381.1      0              4.2332453e+10 -4.5            0              3.2428904    
    200000   15300          200            200            0.00070716185  1.6611784e-16  0              0.0021214856   149854.5       0              4.2564337e+09 -4.5            0              2.8048283    
    300000   15300          200            200           -5.1102759e-05  3.2347916e-16  0             -0.00015330828  1573.3333      0              44688608      -4.5            0              2.6526183    
    400000   15300          200            200            0.070405872    0.053883098    0              0.15733452     9374.9937      0              2.6628523e+08 -4.5            0              2.5955865    
    500000   15300          200            200            3.5610268e-05  8.0090483e-16  0              0.0001068308   719.09606      0              20425044      -4.5            0              2.5992262    
    600000   15300          200            200            0.0089644683   0.0068506172   0              0.020042788    72.265479      0              2052612.6     -4.5            0              2.5974466    
    700000   15300          200            200            0.0063453397   0.0048026078   0              0.014233411    0.01480689     0              420.5716      -4.5            0              2.5975766    
    800000   15300          200            200            0.0064407262   0.004815297    0              0.014506882    0.0015396409   0              43.731616     -4.5            0              2.5975716    
    900000   15300          200            200            0.0064115519   0.0048114341   0              0.014423222    0.0012369456   0              35.133927     -4.5            0              2.5975731    
   1000000   15300          200            200            0.0064148067   0.0048118716   0              0.014432549    0.0001757542   0              4.9920832     -4.5            0              2.597573     
   1100000   15300          200            200            0.0064167225   0.0048121233   0              0.014438044    6.1900417e-06  0              0.17582057    -4.5            0              2.5975729    
   1200000   15300          200            200            0.0064153374   0.0048119401   0              0.014434072    1.239726e-07   0              0.0035212902  -4.5            0              2.5975729    
   1300000   15300          200            200            0.0064158138   0.0048120033   0              0.014435438    2.3726243e-07  0              0.0067391491  -4.5            0              2.5975729    
   1400000   15300          200            200            0.0064157393   0.0048119934   0              0.014435225    4.2882877e-08  0              0.0012180357  -4.5            0              2.5975729    
   1500000   15300          200            200            0.006415719    0.0048119907   0              0.014435166    2.164836e-09   0              6.1489521e-05 -4.5            0              2.5975729    
   1600000   15300          200            200            0.0064157386   0.0048119933   0              0.014435222    2.4301664e-12  0              6.9025904e-08 -4.5            0              2.5975729    
   1700000   15300          200            200            0.006415731    0.0048119923   0              0.014435201    4.2586024e-11  0              1.2096039e-06 -4.5            0              2.5975729    
   1800000   15300          200            200            0.0064157325   0.0048119925   0              0.014435205    1.0016698e-11  0              2.8451205e-07 -4.5            0              2.5975729    
   1900000   15300          200            200            0.0064157327   0.0048119925   0              0.014435206    6.7486564e-13  0              1.9168733e-08 -4.5            0              2.5975729    
   2000000   15300          200            200            0.0064157324   0.0048119925   0              0.014435205    9.7230107e-16  0              2.7617023e-11 -4.5            0              2.5975729    
   2100000   15300          200            200            0.0064157325   0.0048119925   0              0.014435205    6.9550626e-15  0              1.9755005e-10 -4.5            0              2.5975729    
   2200000   15300          200            200            0.0064157325   0.0048119925   0              0.014435205    2.2261236e-15  0              6.3230318e-11 -4.5            0              2.5975729    
   2300000   15300          200            200            0.0064157325   0.0048119925   0              0.014435205    2.5172029e-17  0              7.1498071e-13 -4.5            0              2.5975729    
   2400000   15300          200            200            0.0064157325   0.0048119925   0              0.014435205    2.7014279e-17  0              7.6730756e-13 -4.5            0              2.5975729    
   2500000   15300          200            200            0.0064157325   0.0048119925   0              0.014435205    1.6092186e-18  0              4.5707888e-14 -4.5            0              2.5975729    
   2600000   15300          200            200            0.0064157325   0.0048119925   0              0.014435205    1.1040333e-18  0              3.1358717e-14 -4.5            0              2.5975729    
   2700000   15300          200            200            0.0064157325   0.0048119925   0              0.014435205    1.9990437e-20  0              5.6780392e-16 -4.5            0              2.5975729    
   2800000   15300          200            200            0.0064157325   0.0048119925   0              0.014435205    7.9648427e-21  0              2.2623162e-16 -4.5            0              2.5975729    
   2900000   15300          200            200            0.0064157325   0.0048119925   0              0.014435205    1.8199136e-21  0              5.169242e-17  -4.5            0              2.5975729    
   3000000   15300          200            200            0.0064157325   0.0048119925   0              0.014435205    1.20439e-24    0              3.4209225e-20 -4.5            0              2.5975729    
Loop time of 1261.93 on 4 procs for 3000000 steps with 8501 atoms

Performance: 2053992.884 ns/day, 0.000 hours/ns, 2377.307 timesteps/s
100.0% CPU use with 4 MPI tasks x 1 OpenMP threads

MPI task timing breakdown:
Section |  min time  |  avg time  |  max time  |%varavg| %total
---------------------------------------------------------------
Pair    | 309.95     | 500.99     | 691.89     | 847.9 | 39.70
Neigh   | 9.3717     | 9.4416     | 9.5097     |   1.8 |  0.75
Comm    | 43.515     | 234.07     | 425.24     |1237.0 | 18.55
Output  | 0.50448    | 0.50501    | 0.50555    |   0.1 |  0.04
Modify  | 347.47     | 405.82     | 463.24     | 284.8 | 32.16
Other   |            | 111.1      |            |       |  8.80

Nlocal:        2125.25 ave        2550 max        1699 min
Histogram: 2 0 0 0 0 0 0 0 0 2
Nghost:            4.5 ave           5 max           4 min
Histogram: 2 0 0 0 0 0 0 0 0 2
Neighs:         3825.5 ave        5100 max        2547 min
Histogram: 2 0 0 0 0 0 0 0 0 2

Total # of neighbors = 15302
Ave neighs/atom = 1.8000235
Neighbor list builds = 184
Dangerous builds = 0

undump D1

############ Add spring between top chain to supp particle and then equilibrium  ###########

#fix sp1 support spring couple slider1 ${K0} ${lenspr} NULL NULL 0                                 # Add spring

#dump 		D2 all custom 100000 add_${num}*.dump id type diameter mass xu yu zu

#fix add1 all print 10 "${p0} ${distance} ${slider_z}" file add_distance_${num}.txt screen no      # out put step, distance(spring length), z-position of top chain

#run 1000000

#undump D2

#unfix add1

########## Pulling the supporting particle with constant velocity #############

#fix m1 support move linear 0.1 0 0 units box                                                      # apply constant velocity to supporting particles along x-direction V=0.1m/s

#fix move1 all print 100 "${p0} ${distance} ${slider_z}" file move_distance_${num}.txt screen no

#dump 		1 all custom 50000 move_${num}_*.dump id type diameter mass xu yu zu

#run 1000000

clear
  using 1 OpenMP thread(s) per MPI task

next num

jump SELF startloop

include granular.in
### Simulation of contact between two chain

##################### Simulation setup ####################

units micro                              # units
dimension	3                            # dimension
boundary	p p p                        # boundary condition p: periodic
atom_style	sphere                       # atom style
#processors * * 1

####################### Parameter ##################################

variable ind equal ${num}
variable ind equal 34

#variable lat0 equal 1                    #
variable lat1 equal 3 #+(v_ind*0.01)       # Lattice distance of bottom chain
variable lat2 equal 3                    # Lattice distance of top chain
variable d1 equal 3                      # Diamter of particle at bottom chain
variable d2 equal 3                      # Diamter of particle at top chain
#variable d3 equal 1                      # Diamter of supporting particle

variable n2e1 equal (50+v_ind*50)*v_lat2              # Half length of top chain. 1500 is number of particles
variable n1e1 equal 1.5*v_n2e1*(v_lat1/v_lat2)               # Half length of bottom chain, which is 1.5 time larger than top chain
variable n1e2 equal -v_n1e1
variable n2e2 equal -v_n2e1
#variable lenspr equal -(v_n2e1+100)           # length of the spring connecting top chain and supporting particle
#variable lenspr1 equal -v_lenspr-0.1         # Position of supporting particle upper bound
#variable lenspr2 equal -v_lenspr+0.1         # Position of supporting particle lower bound

variable den equal 2.2 #grams/cm^3      # micrometer^3=10^-12 cm^3 Density of materials

variable V1 equal (1/6)*PI*(v_d1^3)     # Volume of particle 1
variable V2 equal (1/6)*PI*(v_d2^3)     # Volume of particle 2
#variable V3 equal (1/6)*PI*(v_d3^3)     # Volume of particle 3

variable mass1 equal v_den*v_V1  # Mass of particle 1 (picograms)
variable mass2 equal v_den*v_V2  # Mass of particle 2
#variable mass3 equal v_den*v_V3  # Mass of particle 3

# E GPa to picogram/(micrometer-microsecond^2)= 10^3 Pa= 10^-6 GPa
# Force unit(picogram-micrometer/microsecond^2)=10^-9 N= 1nN
# Spring stiffness (force/distance) 10^-3 N/m

#variable K0 equal (1500/50)*(10^5)             # Spring stiffness conneting top chain and sup particle
variable E equal 100*(10^6)                    # Young's Modulus using for Hertz/material model
variable PR equal 0.3                          # Poisson's ratio using for Hertz/material model
variable Fn equal -1000 #-(v_ind*100)                       # Force apply to each particles in top chain
variable dt equal 0.00001                      # Time step units microsecond
variable lgv equal 0.5                         #damping for langevin thermostat for slider

variable x_shift equal -v_lat1/2

################### Creating the model #################################
lattice sc ${lat1}                                                               # Bottom chain type1
lattice sc 3                                                               
Lattice spacing in x,y,z = 3 3 3

region box block ${n1e2} ${n1e1} -100 100 -100 100 units box
region box block -7875 ${n1e1} -100 100 -100 100 units box
region box block -7875 7875 -100 100 -100 100 units box
region substrate block ${n1e2} ${n1e1} -0.5 0.5 0 0.5 units box
region substrate block -7875 ${n1e1} -0.5 0.5 0 0.5 units box
region substrate block -7875 7875 -0.5 0.5 0 0.5 units box

create_box 2 box
Created orthogonal box = (-7875 -100 -100) to (7875 100 100)
  4 by 1 by 1 MPI processor grid
create_atoms 1 region substrate
Created 5250 atoms
  using lattice units in orthogonal box = (-7875 -100 -100) to (7875 100 100)
  create_atoms CPU = 0.001 seconds

lattice sc ${lat2}                                                             # Top chain type2
lattice sc 3                                                             
Lattice spacing in x,y,z = 3 3 3

region slider1 block ${n2e2} ${n2e1} -0.1 0.1 5.9 6.1 units box
region slider1 block -5250 ${n2e1} -0.1 0.1 5.9 6.1 units box
region slider1 block -5250 5250 -0.1 0.1 5.9 6.1 units box

create_atoms 2 region slider1
Created 3501 atoms
  using lattice units in orthogonal box = (-7875 -100 -100) to (7875 100 100)
  create_atoms CPU = 0.002 seconds

#lattice sc ${lat0}                                                             # Supporting particle type3

#region support block ${lenspr1} ${lenspr2} -0.1 0.1 7.9 8.1 units box

#create_atoms 3 region support

set type 1 diameter ${d1}                    # Set mass and diameter for each particles type
set type 1 diameter 3                    
Setting atom values ...
  5250 settings made for diameter
set type 1 mass ${mass1}
set type 1 mass 31.101767270539
Setting atom values ...
  5250 settings made for mass
set type 2 diameter ${d2}
set type 2 diameter 3
Setting atom values ...
  3501 settings made for diameter
set type 2 mass ${mass2}
set type 2 mass 31.101767270539
Setting atom values ...
  3501 settings made for mass
#set type 3 diameter ${d3}
#set type 3 mass ${mass3}

group substrate region substrate           # Define gorup
5250 atoms in group substrate
group slider1 region slider1
3501 atoms in group slider1
#group support region support
group substrate_slider union substrate slider1
8751 atoms in group substrate_slider

displace_atoms slider1 move ${x_shift} 0.0 0.0
displace_atoms slider1 move -1.5 0.0 0.0
Displacing atoms ...

########################## Potential ###################################
pair_style granular
pair_coeff 1 1 hertz/material 0.00000001 0.001 ${PR} tangential mindlin NULL 0.1 0.01 damping viscoelastic              ########### set E between each particle in same type is small to neglect their interaction
pair_coeff 1 1 hertz/material 0.00000001 0.001 0.3 tangential mindlin NULL 0.1 0.01 damping viscoelastic              
pair_coeff 2 2 hertz/material 0.00000001 0.001 ${PR} tangential mindlin NULL 0.1 0.01 damping viscoelastic
pair_coeff 2 2 hertz/material 0.00000001 0.001 0.3 tangential mindlin NULL 0.1 0.01 damping viscoelastic
#pair_coeff 3 3 hertz/material ${E} 0.001 ${PR} tangential mindlin NULL 0.1 0.01 damping viscoelastic
pair_coeff 1 2 hertz/material ${E} 0.001 ${PR} tangential mindlin NULL 0.1 0.01 damping viscoelastic
pair_coeff 1 2 hertz/material 100000000 0.001 ${PR} tangential mindlin NULL 0.1 0.01 damping viscoelastic
pair_coeff 1 2 hertz/material 100000000 0.001 0.3 tangential mindlin NULL 0.1 0.01 damping viscoelastic
#pair_coeff 1 3 hertz/material 0.00000001 0.001 ${PR} tangential mindlin NULL 0.1 0.01 damping viscoelastic
#pair_coeff 2 3 hertz/material 0.00000001 0.001 ${PR} tangential mindlin NULL 0.1 0.01 damping viscoelastic
comm_modify     vel yes
neigh_modify    delay 0 every 1 check yes

### Compute properties ###

compute 1 slider1 com                      # Compute the center of mass of top chain
#compute 2 support com                      # Compute the center of mass of supporting particle

variable p0 equal "step"

variable slider_z equal "c_1[3]"          # output the position of top chain in z-direction

#variable distance equal "c_2[1]-c_1[1]"   # Distance between COM of top chain and supporting particle

thermo 100000
thermo_style custom step lx ly lz press pxx pyy pzz ke pe temp c_1[1] c_1[2] c_1[3] #c_2[1] c_2[2] c_2[3] v_distance

############### Fix ##################


############## Equilibrium the system with apply force ########################

fix force_slider1 slider1 setforce NULL 0 NULL                                # Fix top chain not to move in y-direction

fix f_sub substrate freeze                                                    # Freeze the bottom chain

fix rigid_top slider1 rigid/nve group 1 slider1 langevin 0 0 ${lgv} 6987532   # NVE+langevin
fix rigid_top slider1 rigid/nve group 1 slider1 langevin 0 0 0.5 6987532   
  1 rigid bodies with 3501 atoms

fix add slider1 addforce 0 0 ${Fn} every 1                                    # Add force to top layer
fix add slider1 addforce 0 0 -1000 every 1                                    

timestep ${dt}
timestep 1e-05

# fix  nve_1 slider1 nve

dump 		D1 all custom 100000 Equi_${num}_*.dump id type diameter mass xu yu zu
dump 		D1 all custom 100000 Equi_34_*.dump id type diameter mass xu yu zu
dump_modify D1 format 5 %.18g
dump_modify D1 format 7 %.18g

run 3000000
Generated 0 of 1 mixed pair_coeff terms from geometric mixing rule
ERROR: Fix rigid: Bad principal moments (src/RIGID/fix_rigid.cpp:2138)
Last command: run 3000000
