ITEM: TIMESTEP
1100000
ITEM: NUMBER OF ATOMS
20
ITEM: BOX BOUNDS pp pp pp
-1.5000000000000000e+01 1.5000000000000000e+01
-5.0000000000000000e+01 5.0000000000000000e+01
-5.0000000000000000e+01 5.0000000000000000e+01
ITEM: ATOMS id type diameter mass xu yu zu fx fy fz
1 1 3 31.1018 -15 0 0 0 0 0
2 1 3 31.1018 -12 0 0 0 0 0
3 1 3 31.1018 -9 0 0 0 0 0
4 1 3 31.1018 -6 0 0 0 0 0
5 1 3 31.1018 -3 0 0 0 0 0
6 1 3 31.1018 0 0 0 0 0 0
7 1 3 31.1018 3 0 0 0 0 0
8 1 3 31.1018 6 0 0 0 0 0
9 1 3 31.1018 9 0 0 0 0 0
10 1 3 31.1018 12 0 0 0 0 0
11 2 3 31.1018 -15 0 2.99936726892745531 5.89628e-18 0 9.7799
12 2 3 31.1018 -12 0 2.99936726892745531 5.89628e-18 0 9.7799
13 2 3 31.1018 -9 0 2.99936726892745531 5.89628e-18 0 9.7799
14 2 3 31.1018 -6 0 2.99936726892745531 5.89628e-18 0 9.7799
15 2 3 31.1018 -3 0 2.99936726892745531 5.89628e-18 0 9.7799
16 2 3 31.1018 0 0 2.99936726892745531 5.89628e-18 0 9.7799
17 2 3 31.1018 3 0 2.99936726892745531 5.89628e-18 0 9.7799
18 2 3 31.1018 6 0 2.99936726892745531 5.89628e-18 0 9.7799
19 2 3 31.1018 9 0 2.99936726892745531 5.89628e-18 0 9.7799
20 2 3 31.1018 12 0 2.99936726892745531 5.89628e-18 0 9.7799
