ITEM: TIMESTEP
300000
ITEM: NUMBER OF ATOMS
20
ITEM: BOX BOUNDS pp pp pp
-1.5000000000000000e+01 1.5000000000000000e+01
-5.0000000000000000e+01 5.0000000000000000e+01
-5.0000000000000000e+01 5.0000000000000000e+01
ITEM: ATOMS id type diameter mass xu yu zu fx fy fz
1 1 3 31.1018 -15 0 0 0 0 0
2 1 3 31.1018 -12 0 0 0 0 0
3 1 3 31.1018 -9 0 0 0 0 0
4 1 3 31.1018 -6 0 0 0 0 0
5 1 3 31.1018 -3 0 0 0 0 0
6 1 3 31.1018 0 0 0 0 0 0
7 1 3 31.1018 3 0 0 0 0 0
8 1 3 31.1018 6 0 0 0 0 0
9 1 3 31.1018 9 0 0 0 0 0
10 1 3 31.1018 12 0 0 0 0 0
11 2 3 31.1018 -15 0 3.03335669800207119 0 0 -1000
12 2 3 31.1018 -12 0 3.03335669800207119 0 0 -1000
13 2 3 31.1018 -9 0 3.03335669800207119 0 0 -1000
14 2 3 31.1018 -6 0 3.03335669800207119 0 0 -1000
15 2 3 31.1018 -3 0 3.03335669800207119 0 0 -1000
16 2 3 31.1018 0 0 3.03335669800207119 0 0 -1000
17 2 3 31.1018 3 0 3.03335669800207119 0 0 -1000
18 2 3 31.1018 6 0 3.03335669800207119 0 0 -1000
19 2 3 31.1018 9 0 3.03335669800207119 0 0 -1000
20 2 3 31.1018 12 0 3.03335669800207119 0 0 -1000
