ITEM: TIMESTEP
2600000
ITEM: NUMBER OF ATOMS
2830
ITEM: BOX BOUNDS pp pp pp
-3.0000000000000100e+03 3.0000000000000100e+03
-5.0000000000000000e+01 5.0000000000000000e+01
-5.0000000000000000e+01 5.0000000000000000e+01
ITEM: ATOMS id type diameter mass xu yu zu fx fy fz
1 1 3 31.1018 -2999.54696579 0 0 0 0 0
2 1 3 31.1018 -2995.30432511 0 0 0 0 0
3 1 3 31.1018 -2991.06168442 0 0 0 0 0
4 1 3 31.1018 -2986.81904373 0 0 0 0 0
5 1 3 31.1018 -2982.57640304 0 0 0 0 0
6 1 3 31.1018 -2978.33376236 0 0 0 0 0
7 1 3 31.1018 -2974.09112167 0 0 0 0 0
8 1 3 31.1018 -2969.84848098 0 0 0 0 0
9 1 3 31.1018 -2965.6058403 0 0 0 0 0
10 1 3 31.1018 -2961.36319961 0 0 0 0 0
11 1 3 31.1018 -2957.12055892 0 0 0 0 0
12 1 3 31.1018 -2952.87791824 0 0 0 0 0
13 1 3 31.1018 -2948.63527755 0 0 0 0 0
14 1 3 31.1018 -2944.39263686 0 0 0 0 0
15 1 3 31.1018 -2940.14999617 0 0 0 0 0
16 1 3 31.1018 -2935.90735549 0 0 0 0 0
17 1 3 31.1018 -2931.6647148 0 0 0 0 0
18 1 3 31.1018 -2927.42207411 0 0 0 0 0
19 1 3 31.1018 -2923.17943343 0 0 0 0 0
20 1 3 31.1018 -2918.93679274 0 0 0 0 0
21 1 3 31.1018 -2914.69415205 0 0 0 0 0
22 1 3 31.1018 -2910.45151136 0 0 0 0 0
23 1 3 31.1018 -2906.20887068 0 0 0 0 0
24 1 3 31.1018 -2901.96622999 0 0 0 0 0
25 1 3 31.1018 -2897.7235893 0 0 0 0 0
26 1 3 31.1018 -2893.48094862 0 0 0 0 0
27 1 3 31.1018 -2889.23830793 0 0 0 0 0
28 1 3 31.1018 -2884.99566724 0 0 0 0 0
29 1 3 31.1018 -2880.75302655 0 0 0 0 0
30 1 3 31.1018 -2876.51038587 0 0 0 0 0
31 1 3 31.1018 -2872.26774518 0 0 0 0 0
32 1 3 31.1018 -2868.02510449 0 0 0 0 0
33 1 3 31.1018 -2863.78246381 0 0 0 0 0
34 1 3 31.1018 -2859.53982312 0 0 0 0 0
35 1 3 31.1018 -2855.29718243 0 0 0 0 0
36 1 3 31.1018 -2851.05454174 0 0 0 0 0
37 1 3 31.1018 -2846.81190106 0 0 0 0 0
38 1 3 31.1018 -2842.56926037 0 0 0 0 0
39 1 3 31.1018 -2838.32661968 0 0 0 0 0
40 1 3 31.1018 -2834.083979 0 0 0 0 0
41 1 3 31.1018 -2829.84133831 0 0 0 0 0
42 1 3 31.1018 -2825.59869762 0 0 0 0 0
43 1 3 31.1018 -2821.35605693 0 0 0 0 0
44 1 3 31.1018 -2817.11341625 0 0 0 0 0
45 1 3 31.1018 -2812.87077556 0 0 0 0 0
46 1 3 31.1018 -2808.62813487 0 0 0 0 0
47 1 3 31.1018 -2804.38549419 0 0 0 0 0
48 1 3 31.1018 -2800.1428535 0 0 0 0 0
49 1 3 31.1018 -2795.90021281 0 0 0 0 0
50 1 3 31.1018 -2791.65757212 0 0 0 0 0
51 1 3 31.1018 -2787.41493144 0 0 0 0 0
52 1 3 31.1018 -2783.17229075 0 0 0 0 0
53 1 3 31.1018 -2778.92965006 0 0 0 0 0
54 1 3 31.1018 -2774.68700938 0 0 0 0 0
55 1 3 31.1018 -2770.44436869 0 0 0 0 0
56 1 3 31.1018 -2766.201728 0 0 0 0 0
57 1 3 31.1018 -2761.95908731 0 0 0 0 0
58 1 3 31.1018 -2757.71644663 0 0 0 0 0
59 1 3 31.1018 -2753.47380594 0 0 0 0 0
60 1 3 31.1018 -2749.23116525 0 0 0 0 0
61 1 3 31.1018 -2744.98852457 0 0 0 0 0
62 1 3 31.1018 -2740.74588388 0 0 0 0 0
63 1 3 31.1018 -2736.50324319 0 0 0 0 0
64 1 3 31.1018 -2732.2606025 0 0 0 0 0
65 1 3 31.1018 -2728.01796182 0 0 0 0 0
66 1 3 31.1018 -2723.77532113 0 0 0 0 0
67 1 3 31.1018 -2719.53268044 0 0 0 0 0
68 1 3 31.1018 -2715.29003976 0 0 0 0 0
69 1 3 31.1018 -2711.04739907 0 0 0 0 0
70 1 3 31.1018 -2706.80475838 0 0 0 0 0
71 1 3 31.1018 -2702.56211769 0 0 0 0 0
72 1 3 31.1018 -2698.31947701 0 0 0 0 0
73 1 3 31.1018 -2694.07683632 0 0 0 0 0
74 1 3 31.1018 -2689.83419563 0 0 0 0 0
75 1 3 31.1018 -2685.59155495 0 0 0 0 0
76 1 3 31.1018 -2681.34891426 0 0 0 0 0
77 1 3 31.1018 -2677.10627357 0 0 0 0 0
78 1 3 31.1018 -2672.86363289 0 0 0 0 0
79 1 3 31.1018 -2668.6209922 0 0 0 0 0
80 1 3 31.1018 -2664.37835151 0 0 0 0 0
81 1 3 31.1018 -2660.13571082 0 0 0 0 0
82 1 3 31.1018 -2655.89307014 0 0 0 0 0
83 1 3 31.1018 -2651.65042945 0 0 0 0 0
84 1 3 31.1018 -2647.40778876 0 0 0 0 0
85 1 3 31.1018 -2643.16514808 0 0 0 0 0
86 1 3 31.1018 -2638.92250739 0 0 0 0 0
87 1 3 31.1018 -2634.6798667 0 0 0 0 0
88 1 3 31.1018 -2630.43722601 0 0 0 0 0
89 1 3 31.1018 -2626.19458533 0 0 0 0 0
90 1 3 31.1018 -2621.95194464 0 0 0 0 0
91 1 3 31.1018 -2617.70930395 0 0 0 0 0
92 1 3 31.1018 -2613.46666327 0 0 0 0 0
93 1 3 31.1018 -2609.22402258 0 0 0 0 0
94 1 3 31.1018 -2604.98138189 0 0 0 0 0
95 1 3 31.1018 -2600.7387412 0 0 0 0 0
96 1 3 31.1018 -2596.49610052 0 0 0 0 0
97 1 3 31.1018 -2592.25345983 0 0 0 0 0
98 1 3 31.1018 -2588.01081914 0 0 0 0 0
99 1 3 31.1018 -2583.76817846 0 0 0 0 0
100 1 3 31.1018 -2579.52553777 0 0 0 0 0
101 1 3 31.1018 -2575.28289708 0 0 0 0 0
102 1 3 31.1018 -2571.04025639 0 0 0 0 0
103 1 3 31.1018 -2566.79761571 0 0 0 0 0
104 1 3 31.1018 -2562.55497502 0 0 0 0 0
105 1 3 31.1018 -2558.31233433 0 0 0 0 0
106 1 3 31.1018 -2554.06969365 0 0 0 0 0
107 1 3 31.1018 -2549.82705296 0 0 0 0 0
108 1 3 31.1018 -2545.58441227 0 0 0 0 0
109 1 3 31.1018 -2541.34177158 0 0 0 0 0
110 1 3 31.1018 -2537.0991309 0 0 0 0 0
111 1 3 31.1018 -2532.85649021 0 0 0 0 0
112 1 3 31.1018 -2528.61384952 0 0 0 0 0
113 1 3 31.1018 -2524.37120884 0 0 0 0 0
114 1 3 31.1018 -2520.12856815 0 0 0 0 0
115 1 3 31.1018 -2515.88592746 0 0 0 0 0
116 1 3 31.1018 -2511.64328677 0 0 0 0 0
117 1 3 31.1018 -2507.40064609 0 0 0 0 0
118 1 3 31.1018 -2503.1580054 0 0 0 0 0
119 1 3 31.1018 -2498.91536471 0 0 0 0 0
120 1 3 31.1018 -2494.67272403 0 0 0 0 0
121 1 3 31.1018 -2490.43008334 0 0 0 0 0
122 1 3 31.1018 -2486.18744265 0 0 0 0 0
123 1 3 31.1018 -2481.94480196 0 0 0 0 0
124 1 3 31.1018 -2477.70216128 0 0 0 0 0
125 1 3 31.1018 -2473.45952059 0 0 0 0 0
126 1 3 31.1018 -2469.2168799 0 0 0 0 0
127 1 3 31.1018 -2464.97423922 0 0 0 0 0
128 1 3 31.1018 -2460.73159853 0 0 0 0 0
129 1 3 31.1018 -2456.48895784 0 0 0 0 0
130 1 3 31.1018 -2452.24631715 0 0 0 0 0
131 1 3 31.1018 -2448.00367647 0 0 0 0 0
132 1 3 31.1018 -2443.76103578 0 0 0 0 0
133 1 3 31.1018 -2439.51839509 0 0 0 0 0
134 1 3 31.1018 -2435.27575441 0 0 0 0 0
135 1 3 31.1018 -2431.03311372 0 0 0 0 0
136 1 3 31.1018 -2426.79047303 0 0 0 0 0
137 1 3 31.1018 -2422.54783235 0 0 0 0 0
138 1 3 31.1018 -2418.30519166 0 0 0 0 0
139 1 3 31.1018 -2414.06255097 0 0 0 0 0
140 1 3 31.1018 -2409.81991028 0 0 0 0 0
141 1 3 31.1018 -2405.5772696 0 0 0 0 0
142 1 3 31.1018 -2401.33462891 0 0 0 0 0
143 1 3 31.1018 -2397.09198822 0 0 0 0 0
144 1 3 31.1018 -2392.84934754 0 0 0 0 0
145 1 3 31.1018 -2388.60670685 0 0 0 0 0
146 1 3 31.1018 -2384.36406616 0 0 0 0 0
147 1 3 31.1018 -2380.12142547 0 0 0 0 0
148 1 3 31.1018 -2375.87878479 0 0 0 0 0
149 1 3 31.1018 -2371.6361441 0 0 0 0 0
150 1 3 31.1018 -2367.39350341 0 0 0 0 0
151 1 3 31.1018 -2363.15086273 0 0 0 0 0
152 1 3 31.1018 -2358.90822204 0 0 0 0 0
153 1 3 31.1018 -2354.66558135 0 0 0 0 0
154 1 3 31.1018 -2350.42294066 0 0 0 0 0
155 1 3 31.1018 -2346.18029998 0 0 0 0 0
156 1 3 31.1018 -2341.93765929 0 0 0 0 0
157 1 3 31.1018 -2337.6950186 0 0 0 0 0
158 1 3 31.1018 -2333.45237792 0 0 0 0 0
159 1 3 31.1018 -2329.20973723 0 0 0 0 0
160 1 3 31.1018 -2324.96709654 0 0 0 0 0
161 1 3 31.1018 -2320.72445585 0 0 0 0 0
162 1 3 31.1018 -2316.48181517 0 0 0 0 0
163 1 3 31.1018 -2312.23917448 0 0 0 0 0
164 1 3 31.1018 -2307.99653379 0 0 0 0 0
165 1 3 31.1018 -2303.75389311 0 0 0 0 0
166 1 3 31.1018 -2299.51125242 0 0 0 0 0
167 1 3 31.1018 -2295.26861173 0 0 0 0 0
168 1 3 31.1018 -2291.02597104 0 0 0 0 0
169 1 3 31.1018 -2286.78333036 0 0 0 0 0
170 1 3 31.1018 -2282.54068967 0 0 0 0 0
171 1 3 31.1018 -2278.29804898 0 0 0 0 0
172 1 3 31.1018 -2274.0554083 0 0 0 0 0
173 1 3 31.1018 -2269.81276761 0 0 0 0 0
174 1 3 31.1018 -2265.57012692 0 0 0 0 0
175 1 3 31.1018 -2261.32748623 0 0 0 0 0
176 1 3 31.1018 -2257.08484555 0 0 0 0 0
177 1 3 31.1018 -2252.84220486 0 0 0 0 0
178 1 3 31.1018 -2248.59956417 0 0 0 0 0
179 1 3 31.1018 -2244.35692349 0 0 0 0 0
180 1 3 31.1018 -2240.1142828 0 0 0 0 0
181 1 3 31.1018 -2235.87164211 0 0 0 0 0
182 1 3 31.1018 -2231.62900142 0 0 0 0 0
183 1 3 31.1018 -2227.38636074 0 0 0 0 0
184 1 3 31.1018 -2223.14372005 0 0 0 0 0
185 1 3 31.1018 -2218.90107936 0 0 0 0 0
186 1 3 31.1018 -2214.65843868 0 0 0 0 0
187 1 3 31.1018 -2210.41579799 0 0 0 0 0
188 1 3 31.1018 -2206.1731573 0 0 0 0 0
189 1 3 31.1018 -2201.93051661 0 0 0 0 0
190 1 3 31.1018 -2197.68787593 0 0 0 0 0
191 1 3 31.1018 -2193.44523524 0 0 0 0 0
192 1 3 31.1018 -2189.20259455 0 0 0 0 0
193 1 3 31.1018 -2184.95995387 0 0 0 0 0
194 1 3 31.1018 -2180.71731318 0 0 0 0 0
195 1 3 31.1018 -2176.47467249 0 0 0 0 0
196 1 3 31.1018 -2172.23203181 0 0 0 0 0
197 1 3 31.1018 -2167.98939112 0 0 0 0 0
198 1 3 31.1018 -2163.74675043 0 0 0 0 0
199 1 3 31.1018 -2159.50410974 0 0 0 0 0
200 1 3 31.1018 -2155.26146906 0 0 0 0 0
201 1 3 31.1018 -2151.01882837 0 0 0 0 0
202 1 3 31.1018 -2146.77618768 0 0 0 0 0
203 1 3 31.1018 -2142.533547 0 0 0 0 0
204 1 3 31.1018 -2138.29090631 0 0 0 0 0
205 1 3 31.1018 -2134.04826562 0 0 0 0 0
206 1 3 31.1018 -2129.80562493 0 0 0 0 0
207 1 3 31.1018 -2125.56298425 0 0 0 0 0
208 1 3 31.1018 -2121.32034356 0 0 0 0 0
209 1 3 31.1018 -2117.07770287 0 0 0 0 0
210 1 3 31.1018 -2112.83506219 0 0 0 0 0
211 1 3 31.1018 -2108.5924215 0 0 0 0 0
212 1 3 31.1018 -2104.34978081 0 0 0 0 0
213 1 3 31.1018 -2100.10714012 0 0 0 0 0
214 1 3 31.1018 -2095.86449944 0 0 0 0 0
215 1 3 31.1018 -2091.62185875 0 0 0 0 0
216 1 3 31.1018 -2087.37921806 0 0 0 0 0
217 1 3 31.1018 -2083.13657738 0 0 0 0 0
218 1 3 31.1018 -2078.89393669 0 0 0 0 0
219 1 3 31.1018 -2074.651296 0 0 0 0 0
220 1 3 31.1018 -2070.40865531 0 0 0 0 0
221 1 3 31.1018 -2066.16601463 0 0 0 0 0
222 1 3 31.1018 -2061.92337394 0 0 0 0 0
223 1 3 31.1018 -2057.68073325 0 0 0 0 0
224 1 3 31.1018 -2053.43809257 0 0 0 0 0
225 1 3 31.1018 -2049.19545188 0 0 0 0 0
226 1 3 31.1018 -2044.95281119 0 0 0 0 0
227 1 3 31.1018 -2040.7101705 0 0 0 0 0
228 1 3 31.1018 -2036.46752982 0 0 0 0 0
229 1 3 31.1018 -2032.22488913 0 0 0 0 0
230 1 3 31.1018 -2027.98224844 0 0 0 0 0
231 1 3 31.1018 -2023.73960776 0 0 0 0 0
232 1 3 31.1018 -2019.49696707 0 0 0 0 0
233 1 3 31.1018 -2015.25432638 0 0 0 0 0
234 1 3 31.1018 -2011.01168569 0 0 0 0 0
235 1 3 31.1018 -2006.76904501 0 0 0 0 0
236 1 3 31.1018 -2002.52640432 0 0 0 0 0
237 1 3 31.1018 -1998.28376363 0 0 0 0 0
238 1 3 31.1018 -1994.04112295 0 0 0 0 0
239 1 3 31.1018 -1989.79848226 0 0 0 0 0
240 1 3 31.1018 -1985.55584157 0 0 0 0 0
241 1 3 31.1018 -1981.31320088 0 0 0 0 0
242 1 3 31.1018 -1977.0705602 0 0 0 0 0
243 1 3 31.1018 -1972.82791951 0 0 0 0 0
244 1 3 31.1018 -1968.58527882 0 0 0 0 0
245 1 3 31.1018 -1964.34263814 0 0 0 0 0
246 1 3 31.1018 -1960.09999745 0 0 0 0 0
247 1 3 31.1018 -1955.85735676 0 0 0 0 0
248 1 3 31.1018 -1951.61471607 0 0 0 0 0
249 1 3 31.1018 -1947.37207539 0 0 0 0 0
250 1 3 31.1018 -1943.1294347 0 0 0 0 0
251 1 3 31.1018 -1938.88679401 0 0 0 0 0
252 1 3 31.1018 -1934.64415333 0 0 0 0 0
253 1 3 31.1018 -1930.40151264 0 0 0 0 0
254 1 3 31.1018 -1926.15887195 0 0 0 0 0
255 1 3 31.1018 -1921.91623127 0 0 0 0 0
256 1 3 31.1018 -1917.67359058 0 0 0 0 0
257 1 3 31.1018 -1913.43094989 0 0 0 0 0
258 1 3 31.1018 -1909.1883092 0 0 0 0 0
259 1 3 31.1018 -1904.94566852 0 0 0 0 0
260 1 3 31.1018 -1900.70302783 0 0 0 0 0
261 1 3 31.1018 -1896.46038714 0 0 0 0 0
262 1 3 31.1018 -1892.21774646 0 0 0 0 0
263 1 3 31.1018 -1887.97510577 0 0 0 0 0
264 1 3 31.1018 -1883.73246508 0 0 0 0 0
265 1 3 31.1018 -1879.48982439 0 0 0 0 0
266 1 3 31.1018 -1875.24718371 0 0 0 0 0
267 1 3 31.1018 -1871.00454302 0 0 0 0 0
268 1 3 31.1018 -1866.76190233 0 0 0 0 0
269 1 3 31.1018 -1862.51926165 0 0 0 0 0
270 1 3 31.1018 -1858.27662096 0 0 0 0 0
271 1 3 31.1018 -1854.03398027 0 0 0 0 0
272 1 3 31.1018 -1849.79133958 0 0 0 0 0
273 1 3 31.1018 -1845.5486989 0 0 0 0 0
274 1 3 31.1018 -1841.30605821 0 0 0 0 0
275 1 3 31.1018 -1837.06341752 0 0 0 0 0
276 1 3 31.1018 -1832.82077684 0 0 0 0 0
277 1 3 31.1018 -1828.57813615 0 0 0 0 0
278 1 3 31.1018 -1824.33549546 0 0 0 0 0
279 1 3 31.1018 -1820.09285477 0 0 0 0 0
280 1 3 31.1018 -1815.85021409 0 0 0 0 0
281 1 3 31.1018 -1811.6075734 0 0 0 0 0
282 1 3 31.1018 -1807.36493271 0 0 0 0 0
283 1 3 31.1018 -1803.12229203 0 0 0 0 0
284 1 3 31.1018 -1798.87965134 0 0 0 0 0
285 1 3 31.1018 -1794.63701065 0 0 0 0 0
286 1 3 31.1018 -1790.39436996 0 0 0 0 0
287 1 3 31.1018 -1786.15172928 0 0 0 0 0
288 1 3 31.1018 -1781.90908859 0 0 0 0 0
289 1 3 31.1018 -1777.6664479 0 0 0 0 0
290 1 3 31.1018 -1773.42380722 0 0 0 0 0
291 1 3 31.1018 -1769.18116653 0 0 0 0 0
292 1 3 31.1018 -1764.93852584 0 0 0 0 0
293 1 3 31.1018 -1760.69588515 0 0 0 0 0
294 1 3 31.1018 -1756.45324447 0 0 0 0 0
295 1 3 31.1018 -1752.21060378 0 0 0 0 0
296 1 3 31.1018 -1747.96796309 0 0 0 0 0
297 1 3 31.1018 -1743.72532241 0 0 0 0 0
298 1 3 31.1018 -1739.48268172 0 0 0 0 0
299 1 3 31.1018 -1735.24004103 0 0 0 0 0
300 1 3 31.1018 -1730.99740034 0 0 0 0 0
301 1 3 31.1018 -1726.75475966 0 0 0 0 0
302 1 3 31.1018 -1722.51211897 0 0 0 0 0
303 1 3 31.1018 -1718.26947828 0 0 0 0 0
304 1 3 31.1018 -1714.0268376 0 0 0 0 0
305 1 3 31.1018 -1709.78419691 0 0 0 0 0
306 1 3 31.1018 -1705.54155622 0 0 0 0 0
307 1 3 31.1018 -1701.29891553 0 0 0 0 0
308 1 3 31.1018 -1697.05627485 0 0 0 0 0
309 1 3 31.1018 -1692.81363416 0 0 0 0 0
310 1 3 31.1018 -1688.57099347 0 0 0 0 0
311 1 3 31.1018 -1684.32835279 0 0 0 0 0
312 1 3 31.1018 -1680.0857121 0 0 0 0 0
313 1 3 31.1018 -1675.84307141 0 0 0 0 0
314 1 3 31.1018 -1671.60043073 0 0 0 0 0
315 1 3 31.1018 -1667.35779004 0 0 0 0 0
316 1 3 31.1018 -1663.11514935 0 0 0 0 0
317 1 3 31.1018 -1658.87250866 0 0 0 0 0
318 1 3 31.1018 -1654.62986798 0 0 0 0 0
319 1 3 31.1018 -1650.38722729 0 0 0 0 0
320 1 3 31.1018 -1646.1445866 0 0 0 0 0
321 1 3 31.1018 -1641.90194592 0 0 0 0 0
322 1 3 31.1018 -1637.65930523 0 0 0 0 0
323 1 3 31.1018 -1633.41666454 0 0 0 0 0
324 1 3 31.1018 -1629.17402385 0 0 0 0 0
325 1 3 31.1018 -1624.93138317 0 0 0 0 0
326 1 3 31.1018 -1620.68874248 0 0 0 0 0
327 1 3 31.1018 -1616.44610179 0 0 0 0 0
328 1 3 31.1018 -1612.20346111 0 0 0 0 0
329 1 3 31.1018 -1607.96082042 0 0 0 0 0
330 1 3 31.1018 -1603.71817973 0 0 0 0 0
331 1 3 31.1018 -1599.47553904 0 0 0 0 0
332 1 3 31.1018 -1595.23289836 0 0 0 0 0
333 1 3 31.1018 -1590.99025767 0 0 0 0 0
334 1 3 31.1018 -1586.74761698 0 0 0 0 0
335 1 3 31.1018 -1582.5049763 0 0 0 0 0
336 1 3 31.1018 -1578.26233561 0 0 0 0 0
337 1 3 31.1018 -1574.01969492 0 0 0 0 0
338 1 3 31.1018 -1569.77705423 0 0 0 0 0
339 1 3 31.1018 -1565.53441355 0 0 0 0 0
340 1 3 31.1018 -1561.29177286 0 0 0 0 0
341 1 3 31.1018 -1557.04913217 0 0 0 0 0
342 1 3 31.1018 -1552.80649149 0 0 0 0 0
343 1 3 31.1018 -1548.5638508 0 0 0 0 0
344 1 3 31.1018 -1544.32121011 0 0 0 0 0
345 1 3 31.1018 -1540.07856942 0 0 0 0 0
346 1 3 31.1018 -1535.83592874 0 0 0 0 0
347 1 3 31.1018 -1531.59328805 0 0 0 0 0
348 1 3 31.1018 -1527.35064736 0 0 0 0 0
349 1 3 31.1018 -1523.10800668 0 0 0 0 0
350 1 3 31.1018 -1518.86536599 0 0 0 0 0
351 1 3 31.1018 -1514.6227253 0 0 0 0 0
352 1 3 31.1018 -1510.38008461 0 0 0 0 0
353 1 3 31.1018 -1506.13744393 0 0 0 0 0
354 1 3 31.1018 -1501.89480324 0 0 0 0 0
1416 2 3 31.1018 -2121 0 2.99477388733 0 0 -1000
1417 2 3 31.1018 -2118 0 2.99477388733 0 0 -1000
1418 2 3 31.1018 -2115 0 2.99477388733 0 0 -1000
1419 2 3 31.1018 -2112 0 2.99477388733 0 0 -1000
1420 2 3 31.1018 -2109 0 2.99477388733 0 0 -1000
1421 2 3 31.1018 -2106 0 2.99477388733 0 0 -1000
1422 2 3 31.1018 -2103 0 2.99477388733 0 0 -1000
1423 2 3 31.1018 -2100 0 2.99477388733 342.506 0 9265.06
1424 2 3 31.1018 -2097 0 2.99477388733 0 0 -1000
1425 2 3 31.1018 -2094 0 2.99477388733 0 0 -1000
1426 2 3 31.1018 -2091 0 2.99477388733 0 0 -1000
1427 2 3 31.1018 -2088 0 2.99477388733 0 0 -1000
1428 2 3 31.1018 -2085 0 2.99477388733 0 0 -1000
1429 2 3 31.1018 -2082 0 2.99477388733 0 0 -1000
1430 2 3 31.1018 -2079 0 2.99477388733 -342.793 0 9443.95
1431 2 3 31.1018 -2076 0 2.99477388733 0 0 -1000
1432 2 3 31.1018 -2073 0 2.99477388733 0 0 -1000
1433 2 3 31.1018 -2070 0 2.99477388733 0 0 -1000
1434 2 3 31.1018 -2067 0 2.99477388733 0 0 -1000
1435 2 3 31.1018 -2064 0 2.99477388733 0 0 -1000
1436 2 3 31.1018 -2061 0 2.99477388733 0 0 -1000
1437 2 3 31.1018 -2058 0 2.99477388733 0 0 -1000
1438 2 3 31.1018 -2055 0 2.99477388733 0 0 -1000
1439 2 3 31.1018 -2052 0 2.99477388733 0 0 -1000
1440 2 3 31.1018 -2049 0 2.99477388733 0 0 -1000
1441 2 3 31.1018 -2046 0 2.99477388733 0 0 -1000
1442 2 3 31.1018 -2043 0 2.99477388733 0 0 -1000
1443 2 3 31.1018 -2040 0 2.99477388733 0 0 -1000
1444 2 3 31.1018 -2037 0 2.99477388733 0 0 -1000
1445 2 3 31.1018 -2034 0 2.99477388733 0 0 -1000
1446 2 3 31.1018 -2031 0 2.99477388733 0 0 -1000
1447 2 3 31.1018 -2028 0 2.99477388733 27.8725 0 19068
1448 2 3 31.1018 -2025 0 2.99477388733 0 0 -1000
1449 2 3 31.1018 -2022 0 2.99477388733 0 0 -1000
1450 2 3 31.1018 -2019 0 2.99477388733 0 0 -1000
1451 2 3 31.1018 -2016 0 2.99477388733 0 0 -1000
1452 2 3 31.1018 -2013 0 2.99477388733 0 0 -1000
1453 2 3 31.1018 -2010 0 2.99477388733 0 0 -1000
1454 2 3 31.1018 -2007 0 2.99477388733 0 0 -1000
1455 2 3 31.1018 -2004 0 2.99477388733 0 0 -1000
1456 2 3 31.1018 -2001 0 2.99477388733 0 0 -1000
1457 2 3 31.1018 -1998 0 2.99477388733 0 0 -1000
1458 2 3 31.1018 -1995 0 2.99477388733 0 0 -1000
1459 2 3 31.1018 -1992 0 2.99477388733 0 0 -1000
1460 2 3 31.1018 -1989 0 2.99477388733 0 0 -1000
1461 2 3 31.1018 -1986 0 2.99477388733 0 0 -1000
1462 2 3 31.1018 -1983 0 2.99477388733 0 0 -1000
1463 2 3 31.1018 -1980 0 2.99477388733 0 0 -1000
1464 2 3 31.1018 -1977 0 2.99477388733 310.844 0 14709.8
1465 2 3 31.1018 -1974 0 2.99477388733 0 0 -1000
1466 2 3 31.1018 -1971 0 2.99477388733 0 0 -1000
1467 2 3 31.1018 -1968 0 2.99477388733 0 0 -1000
1468 2 3 31.1018 -1965 0 2.99477388733 0 0 -1000
1469 2 3 31.1018 -1962 0 2.99477388733 0 0 -1000
1470 2 3 31.1018 -1959 0 2.99477388733 0 0 -1000
1471 2 3 31.1018 -1956 0 2.99477388733 -193.419 0 3220.58
1472 2 3 31.1018 -1953 0 2.99477388733 0 0 -1000
1473 2 3 31.1018 -1950 0 2.99477388733 0 0 -1000
1474 2 3 31.1018 -1947 0 2.99477388733 0 0 -1000
1475 2 3 31.1018 -1944 0 2.99477388733 0 0 -1000
1476 2 3 31.1018 -1941 0 2.99477388733 0 0 -1000
1477 2 3 31.1018 -1938 0 2.99477388733 0 0 -1000
1478 2 3 31.1018 -1935 0 2.99477388733 0 0 -1000
1479 2 3 31.1018 -1932 0 2.99477388733 0 0 -1000
1480 2 3 31.1018 -1929 0 2.99477388733 0 0 -1000
1481 2 3 31.1018 -1926 0 2.99477388733 89.4376 0 741.627
1482 2 3 31.1018 -1923 0 2.99477388733 0 0 -1000
1483 2 3 31.1018 -1920 0 2.99477388733 0 0 -1000
1484 2 3 31.1018 -1917 0 2.99477388733 0 0 -1000
1485 2 3 31.1018 -1914 0 2.99477388733 0 0 -1000
1486 2 3 31.1018 -1911 0 2.99477388733 0 0 -1000
1487 2 3 31.1018 -1908 0 2.99477388733 0 0 -1000
1488 2 3 31.1018 -1905 0 2.99477388733 -229.785 0 16560.3
1489 2 3 31.1018 -1902 0 2.99477388733 0 0 -1000
1490 2 3 31.1018 -1899 0 2.99477388733 0 0 -1000
1491 2 3 31.1018 -1896 0 2.99477388733 0 0 -1000
1492 2 3 31.1018 -1893 0 2.99477388733 0 0 -1000
1493 2 3 31.1018 -1890 0 2.99477388733 0 0 -1000
1494 2 3 31.1018 -1887 0 2.99477388733 0 0 -1000
1495 2 3 31.1018 -1884 0 2.99477388733 0 0 -1000
1496 2 3 31.1018 -1881 0 2.99477388733 0 0 -1000
1497 2 3 31.1018 -1878 0 2.99477388733 0 0 -1000
1498 2 3 31.1018 -1875 0 2.99477388733 0 0 -1000
1499 2 3 31.1018 -1872 0 2.99477388733 0 0 -1000
1500 2 3 31.1018 -1869 0 2.99477388733 0 0 -1000
1501 2 3 31.1018 -1866 0 2.99477388733 0 0 -1000
1502 2 3 31.1018 -1863 0 2.99477388733 0 0 -1000
1503 2 3 31.1018 -1860 0 2.99477388733 0 0 -1000
1504 2 3 31.1018 -1857 0 2.99477388733 0 0 -1000
1505 2 3 31.1018 -1854 0 2.99477388733 70.7449 0 18258
1506 2 3 31.1018 -1851 0 2.99477388733 0 0 -1000
1507 2 3 31.1018 -1848 0 2.99477388733 0 0 -1000
1508 2 3 31.1018 -1845 0 2.99477388733 0 0 -1000
1509 2 3 31.1018 -1842 0 2.99477388733 0 0 -1000
1510 2 3 31.1018 -1839 0 2.99477388733 0 0 -1000
1511 2 3 31.1018 -1836 0 2.99477388733 0 0 -1000
1512 2 3 31.1018 -1833 0 2.99477388733 0 0 -1000
1513 2 3 31.1018 -1830 0 2.99477388733 0 0 -1000
1514 2 3 31.1018 -1827 0 2.99477388733 0 0 -1000
1515 2 3 31.1018 -1824 0 2.99477388733 0 0 -1000
1516 2 3 31.1018 -1821 0 2.99477388733 0 0 -1000
1517 2 3 31.1018 -1818 0 2.99477388733 0 0 -1000
1518 2 3 31.1018 -1815 0 2.99477388733 0 0 -1000
1519 2 3 31.1018 -1812 0 2.99477388733 0 0 -1000
1520 2 3 31.1018 -1809 0 2.99477388733 0 0 -1000
1521 2 3 31.1018 -1806 0 2.99477388733 0 0 -1000
1522 2 3 31.1018 -1803 0 2.99477388733 296.828 0 6687.71
1523 2 3 31.1018 -1800 0 2.99477388733 0 0 -1000
1524 2 3 31.1018 -1797 0 2.99477388733 0 0 -1000
1525 2 3 31.1018 -1794 0 2.99477388733 0 0 -1000
1526 2 3 31.1018 -1791 0 2.99477388733 0 0 -1000
1527 2 3 31.1018 -1788 0 2.99477388733 0 0 -1000
1528 2 3 31.1018 -1785 0 2.99477388733 0 0 -1000
1529 2 3 31.1018 -1782 0 2.99477388733 -351.114 0 11860.7
1530 2 3 31.1018 -1779 0 2.99477388733 0 0 -1000
1531 2 3 31.1018 -1776 0 2.99477388733 0 0 -1000
1532 2 3 31.1018 -1773 0 2.99477388733 0 0 -1000
1533 2 3 31.1018 -1770 0 2.99477388733 0 0 -1000
1534 2 3 31.1018 -1767 0 2.99477388733 0 0 -1000
1535 2 3 31.1018 -1764 0 2.99477388733 0 0 -1000
1536 2 3 31.1018 -1761 0 2.99477388733 0 0 -1000
1537 2 3 31.1018 -1758 0 2.99477388733 0 0 -1000
1538 2 3 31.1018 -1755 0 2.99477388733 0 0 -1000
1539 2 3 31.1018 -1752 0 2.99477388733 0 0 -1000
1540 2 3 31.1018 -1749 0 2.99477388733 0 0 -1000
1541 2 3 31.1018 -1746 0 2.99477388733 0 0 -1000
1542 2 3 31.1018 -1743 0 2.99477388733 0 0 -1000
1543 2 3 31.1018 -1740 0 2.99477388733 0 0 -1000
1544 2 3 31.1018 -1737 0 2.99477388733 0 0 -1000
1545 2 3 31.1018 -1734 0 2.99477388733 0 0 -1000
1546 2 3 31.1018 -1731 0 2.99477388733 4.14198 0 19367.8
1547 2 3 31.1018 -1728 0 2.99477388733 0 0 -1000
1548 2 3 31.1018 -1725 0 2.99477388733 0 0 -1000
1549 2 3 31.1018 -1722 0 2.99477388733 0 0 -1000
1550 2 3 31.1018 -1719 0 2.99477388733 0 0 -1000
1551 2 3 31.1018 -1716 0 2.99477388733 0 0 -1000
1552 2 3 31.1018 -1713 0 2.99477388733 0 0 -1000
1553 2 3 31.1018 -1710 0 2.99477388733 0 0 -1000
1554 2 3 31.1018 -1707 0 2.99477388733 0 0 -1000
1555 2 3 31.1018 -1704 0 2.99477388733 0 0 -1000
1556 2 3 31.1018 -1701 0 2.99477388733 0 0 -1000
1557 2 3 31.1018 -1698 0 2.99477388733 0 0 -1000
1558 2 3 31.1018 -1695 0 2.99477388733 0 0 -1000
1559 2 3 31.1018 -1692 0 2.99477388733 0 0 -1000
1560 2 3 31.1018 -1689 0 2.99477388733 0 0 -1000
1561 2 3 31.1018 -1686 0 2.99477388733 0 0 -1000
1562 2 3 31.1018 -1683 0 2.99477388733 0 0 -1000
1563 2 3 31.1018 -1680 0 2.99477388733 347.797 0 12637.5
1564 2 3 31.1018 -1677 0 2.99477388733 0 0 -1000
1565 2 3 31.1018 -1674 0 2.99477388733 0 0 -1000
1566 2 3 31.1018 -1671 0 2.99477388733 0 0 -1000
1567 2 3 31.1018 -1668 0 2.99477388733 0 0 -1000
1568 2 3 31.1018 -1665 0 2.99477388733 0 0 -1000
1569 2 3 31.1018 -1662 0 2.99477388733 0 0 -1000
1570 2 3 31.1018 -1659 0 2.99477388733 -275.15 0 5790.59
1571 2 3 31.1018 -1656 0 2.99477388733 0 0 -1000
1572 2 3 31.1018 -1653 0 2.99477388733 0 0 -1000
1573 2 3 31.1018 -1650 0 2.99477388733 0 0 -1000
1574 2 3 31.1018 -1647 0 2.99477388733 0 0 -1000
1575 2 3 31.1018 -1644 0 2.99477388733 0 0 -1000
1576 2 3 31.1018 -1641 0 2.99477388733 0 0 -1000
1577 2 3 31.1018 -1638 0 2.99477388733 0 0 -1000
1578 2 3 31.1018 -1635 0 2.99477388733 0 0 -1000
1579 2 3 31.1018 -1632 0 2.99477388733 0 0 -1000
1580 2 3 31.1018 -1629 0 2.99477388733 7.02699 0 -876.228
1581 2 3 31.1018 -1626 0 2.99477388733 0 0 -1000
1582 2 3 31.1018 -1623 0 2.99477388733 0 0 -1000
1583 2 3 31.1018 -1620 0 2.99477388733 0 0 -1000
1584 2 3 31.1018 -1617 0 2.99477388733 0 0 -1000
1585 2 3 31.1018 -1614 0 2.99477388733 0 0 -1000
1586 2 3 31.1018 -1611 0 2.99477388733 0 0 -1000
1587 2 3 31.1018 -1608 0 2.99477388733 -119.505 0 17894.3
1588 2 3 31.1018 -1605 0 2.99477388733 0 0 -1000
1589 2 3 31.1018 -1602 0 2.99477388733 0 0 -1000
1590 2 3 31.1018 -1599 0 2.99477388733 0 0 -1000
1591 2 3 31.1018 -1596 0 2.99477388733 0 0 -1000
1592 2 3 31.1018 -1593 0 2.99477388733 0 0 -1000
1593 2 3 31.1018 -1590 0 2.99477388733 0 0 -1000
1594 2 3 31.1018 -1587 0 2.99477388733 0 0 -1000
1595 2 3 31.1018 -1584 0 2.99477388733 0 0 -1000
1596 2 3 31.1018 -1581 0 2.99477388733 0 0 -1000
1597 2 3 31.1018 -1578 0 2.99477388733 0 0 -1000
1598 2 3 31.1018 -1575 0 2.99477388733 0 0 -1000
1599 2 3 31.1018 -1572 0 2.99477388733 0 0 -1000
1600 2 3 31.1018 -1569 0 2.99477388733 0 0 -1000
1601 2 3 31.1018 -1566 0 2.99477388733 0 0 -1000
1602 2 3 31.1018 -1563 0 2.99477388733 0 0 -1000
1603 2 3 31.1018 -1560 0 2.99477388733 0 0 -1000
1604 2 3 31.1018 -1557 0 2.99477388733 196.576 0 17062.9
1605 2 3 31.1018 -1554 0 2.99477388733 0 0 -1000
1606 2 3 31.1018 -1551 0 2.99477388733 0 0 -1000
1607 2 3 31.1018 -1548 0 2.99477388733 0 0 -1000
1608 2 3 31.1018 -1545 0 2.99477388733 0 0 -1000
1609 2 3 31.1018 -1542 0 2.99477388733 0 0 -1000
1610 2 3 31.1018 -1539 0 2.99477388733 0 0 -1000
1611 2 3 31.1018 -1536 0 2.99477388733 -57.1691 0 73.2742
1612 2 3 31.1018 -1533 0 2.99477388733 0 0 -1000
1613 2 3 31.1018 -1530 0 2.99477388733 0 0 -1000
1614 2 3 31.1018 -1527 0 2.99477388733 0 0 -1000
1615 2 3 31.1018 -1524 0 2.99477388733 0 0 -1000
1616 2 3 31.1018 -1521 0 2.99477388733 0 0 -1000
1617 2 3 31.1018 -1518 0 2.99477388733 0 0 -1000
1618 2 3 31.1018 -1515 0 2.99477388733 0 0 -1000
1619 2 3 31.1018 -1512 0 2.99477388733 0 0 -1000
1620 2 3 31.1018 -1509 0 2.99477388733 0 0 -1000
1621 2 3 31.1018 -1506 0 2.99477388733 223.339 0 4088.05
1622 2 3 31.1018 -1503 0 2.99477388733 0 0 -1000
355 1 3 31.1018 -1497.65216255 0 0 0 0 0
356 1 3 31.1018 -1493.40952187 0 0 0 0 0
357 1 3 31.1018 -1489.16688118 0 0 0 0 0
358 1 3 31.1018 -1484.92424049 0 0 0 0 0
359 1 3 31.1018 -1480.6815998 0 0 0 0 0
360 1 3 31.1018 -1476.43895912 0 0 0 0 0
361 1 3 31.1018 -1472.19631843 0 0 0 0 0
362 1 3 31.1018 -1467.95367774 0 0 0 0 0
363 1 3 31.1018 -1463.71103706 0 0 0 0 0
364 1 3 31.1018 -1459.46839637 0 0 0 0 0
365 1 3 31.1018 -1455.22575568 0 0 0 0 0
366 1 3 31.1018 -1450.98311499 0 0 0 0 0
367 1 3 31.1018 -1446.74047431 0 0 0 0 0
368 1 3 31.1018 -1442.49783362 0 0 0 0 0
369 1 3 31.1018 -1438.25519293 0 0 0 0 0
370 1 3 31.1018 -1434.01255225 0 0 0 0 0
371 1 3 31.1018 -1429.76991156 0 0 0 0 0
372 1 3 31.1018 -1425.52727087 0 0 0 0 0
373 1 3 31.1018 -1421.28463018 0 0 0 0 0
374 1 3 31.1018 -1417.0419895 0 0 0 0 0
375 1 3 31.1018 -1412.79934881 0 0 0 0 0
376 1 3 31.1018 -1408.55670812 0 0 0 0 0
377 1 3 31.1018 -1404.31406744 0 0 0 0 0
378 1 3 31.1018 -1400.07142675 0 0 0 0 0
379 1 3 31.1018 -1395.82878606 0 0 0 0 0
380 1 3 31.1018 -1391.58614538 0 0 0 0 0
381 1 3 31.1018 -1387.34350469 0 0 0 0 0
382 1 3 31.1018 -1383.100864 0 0 0 0 0
383 1 3 31.1018 -1378.85822331 0 0 0 0 0
384 1 3 31.1018 -1374.61558263 0 0 0 0 0
385 1 3 31.1018 -1370.37294194 0 0 0 0 0
386 1 3 31.1018 -1366.13030125 0 0 0 0 0
387 1 3 31.1018 -1361.88766057 0 0 0 0 0
388 1 3 31.1018 -1357.64501988 0 0 0 0 0
389 1 3 31.1018 -1353.40237919 0 0 0 0 0
390 1 3 31.1018 -1349.1597385 0 0 0 0 0
391 1 3 31.1018 -1344.91709782 0 0 0 0 0
392 1 3 31.1018 -1340.67445713 0 0 0 0 0
393 1 3 31.1018 -1336.43181644 0 0 0 0 0
394 1 3 31.1018 -1332.18917576 0 0 0 0 0
395 1 3 31.1018 -1327.94653507 0 0 0 0 0
396 1 3 31.1018 -1323.70389438 0 0 0 0 0
397 1 3 31.1018 -1319.46125369 0 0 0 0 0
398 1 3 31.1018 -1315.21861301 0 0 0 0 0
399 1 3 31.1018 -1310.97597232 0 0 0 0 0
400 1 3 31.1018 -1306.73333163 0 0 0 0 0
401 1 3 31.1018 -1302.49069095 0 0 0 0 0
402 1 3 31.1018 -1298.24805026 0 0 0 0 0
403 1 3 31.1018 -1294.00540957 0 0 0 0 0
404 1 3 31.1018 -1289.76276888 0 0 0 0 0
405 1 3 31.1018 -1285.5201282 0 0 0 0 0
406 1 3 31.1018 -1281.27748751 0 0 0 0 0
407 1 3 31.1018 -1277.03484682 0 0 0 0 0
408 1 3 31.1018 -1272.79220614 0 0 0 0 0
409 1 3 31.1018 -1268.54956545 0 0 0 0 0
410 1 3 31.1018 -1264.30692476 0 0 0 0 0
411 1 3 31.1018 -1260.06428407 0 0 0 0 0
412 1 3 31.1018 -1255.82164339 0 0 0 0 0
413 1 3 31.1018 -1251.5790027 0 0 0 0 0
414 1 3 31.1018 -1247.33636201 0 0 0 0 0
415 1 3 31.1018 -1243.09372133 0 0 0 0 0
416 1 3 31.1018 -1238.85108064 0 0 0 0 0
417 1 3 31.1018 -1234.60843995 0 0 0 0 0
418 1 3 31.1018 -1230.36579926 0 0 0 0 0
419 1 3 31.1018 -1226.12315858 0 0 0 0 0
420 1 3 31.1018 -1221.88051789 0 0 0 0 0
421 1 3 31.1018 -1217.6378772 0 0 0 0 0
422 1 3 31.1018 -1213.39523652 0 0 0 0 0
423 1 3 31.1018 -1209.15259583 0 0 0 0 0
424 1 3 31.1018 -1204.90995514 0 0 0 0 0
425 1 3 31.1018 -1200.66731445 0 0 0 0 0
426 1 3 31.1018 -1196.42467377 0 0 0 0 0
427 1 3 31.1018 -1192.18203308 0 0 0 0 0
428 1 3 31.1018 -1187.93939239 0 0 0 0 0
429 1 3 31.1018 -1183.69675171 0 0 0 0 0
430 1 3 31.1018 -1179.45411102 0 0 0 0 0
431 1 3 31.1018 -1175.21147033 0 0 0 0 0
432 1 3 31.1018 -1170.96882964 0 0 0 0 0
433 1 3 31.1018 -1166.72618896 0 0 0 0 0
434 1 3 31.1018 -1162.48354827 0 0 0 0 0
435 1 3 31.1018 -1158.24090758 0 0 0 0 0
436 1 3 31.1018 -1153.9982669 0 0 0 0 0
437 1 3 31.1018 -1149.75562621 0 0 0 0 0
438 1 3 31.1018 -1145.51298552 0 0 0 0 0
439 1 3 31.1018 -1141.27034484 0 0 0 0 0
440 1 3 31.1018 -1137.02770415 0 0 0 0 0
441 1 3 31.1018 -1132.78506346 0 0 0 0 0
442 1 3 31.1018 -1128.54242277 0 0 0 0 0
443 1 3 31.1018 -1124.29978209 0 0 0 0 0
444 1 3 31.1018 -1120.0571414 0 0 0 0 0
445 1 3 31.1018 -1115.81450071 0 0 0 0 0
446 1 3 31.1018 -1111.57186003 0 0 0 0 0
447 1 3 31.1018 -1107.32921934 0 0 0 0 0
448 1 3 31.1018 -1103.08657865 0 0 0 0 0
449 1 3 31.1018 -1098.84393796 0 0 0 0 0
450 1 3 31.1018 -1094.60129728 0 0 0 0 0
451 1 3 31.1018 -1090.35865659 0 0 0 0 0
452 1 3 31.1018 -1086.1160159 0 0 0 0 0
453 1 3 31.1018 -1081.87337522 0 0 0 0 0
454 1 3 31.1018 -1077.63073453 0 0 0 0 0
455 1 3 31.1018 -1073.38809384 0 0 0 0 0
456 1 3 31.1018 -1069.14545315 0 0 0 0 0
457 1 3 31.1018 -1064.90281247 0 0 0 0 0
458 1 3 31.1018 -1060.66017178 0 0 0 0 0
459 1 3 31.1018 -1056.41753109 0 0 0 0 0
460 1 3 31.1018 -1052.17489041 0 0 0 0 0
461 1 3 31.1018 -1047.93224972 0 0 0 0 0
462 1 3 31.1018 -1043.68960903 0 0 0 0 0
463 1 3 31.1018 -1039.44696834 0 0 0 0 0
464 1 3 31.1018 -1035.20432766 0 0 0 0 0
465 1 3 31.1018 -1030.96168697 0 0 0 0 0
466 1 3 31.1018 -1026.71904628 0 0 0 0 0
467 1 3 31.1018 -1022.4764056 0 0 0 0 0
468 1 3 31.1018 -1018.23376491 0 0 0 0 0
469 1 3 31.1018 -1013.99112422 0 0 0 0 0
470 1 3 31.1018 -1009.74848353 0 0 0 0 0
471 1 3 31.1018 -1005.50584285 0 0 0 0 0
472 1 3 31.1018 -1001.26320216 0 0 0 0 0
473 1 3 31.1018 -997.020561473 0 0 0 0 0
474 1 3 31.1018 -992.777920786 0 0 0 0 0
475 1 3 31.1018 -988.535280099 0 0 0 0 0
476 1 3 31.1018 -984.292639412 0 0 0 0 0
477 1 3 31.1018 -980.049998725 0 0 0 0 0
478 1 3 31.1018 -975.807358037 0 0 0 0 0