LAMMPS (23 Jun 2022 - Update 1)
  using 1 OpenMP thread(s) per MPI task
variable num index 1 2 3 4 5 6 7 8 9 10 11 12 13 14 15 16 17 18 19 20 21 22 23 24 25 26 27 28 29 30 31 32 33 34 35 36 37 38 39 40

label startloop

include granular.in
### Simulation of contact between two chain

##################### Simulation setup ####################

units micro                              # units
dimension	3                            # dimension
boundary	p p p                        # boundary condition p: periodic
atom_style	sphere                       # atom style
#processors * * 1

####################### Parameter ##################################

variable ind equal ${num}
variable ind equal 1

variable lat1 equal 3*(2^(1/2))
variable lat2 equal 3
variable d1 equal 3                      # Diamter of particle at bottom chain
variable d2 equal 3                      # Diamter of particle at upper chain

variable n2e1 equal 500*v_lat1              # Half length of top chain. 1500 is number of particles
variable n1e1 equal v_n2e1*(v_lat1/v_lat2)              # Half length of bottom chain, which is 1.5 time larger than top chain
variable n1e2 equal -v_n1e1
variable n2e2 equal -v_n2e1
#variable x_shift equal -0.25*v_d1

variable den equal 2.2 #grams/cm^3      # micrometer^3=10^-12 cm^3 Density of materials

variable V1 equal (1/6)*PI*(v_d1^3)     # Volume of particle 1
variable V2 equal (1/6)*PI*(v_d2^3)     # Volume of particle 2

variable mass1 equal v_den*v_V1  # Mass of particle 1 (picograms)
variable mass2 equal v_den*v_V2  # Mass of particle 2 (picograms)

# E GPa to picogram/(micrometer-microsecond^2)= 10^3 Pa= 10^-6 GPa
# Force unit(picogram-micrometer/microsecond^2)=10^-9 N= 1nN
# Spring stiffness (force/distance) 10^-3 N/m


variable E equal (10+(5*v_ind))*(10^6)                    # Young's Modulus using for Hertz/material model
variable PR equal 0.3                          # Poisson's ratio using for Hertz/material model
variable Fn equal -1000                        # Force apply to each particles in top chain
variable dt equal 0.00001                      # Time step units microsecond
variable lgv equal 0.5                         #damping for langevin thermostat for slider



################### Creating the model #################################
lattice sc ${lat1}                                                               # Bottom chain type1
lattice sc 4.24264068711929                                                               
Lattice spacing in x,y,z = 4.2426407 4.2426407 4.2426407

region box block ${n1e2} ${n1e1} -50 50 -50 50 units box
region box block -3000.00000000001 ${n1e1} -50 50 -50 50 units box
region box block -3000.00000000001 3000.00000000001 -50 50 -50 50 units box
region substrate block ${n1e2} ${n1e1} -0.1 0.1 0 0.1 units box
region substrate block -3000.00000000001 ${n1e1} -0.1 0.1 0 0.1 units box
region substrate block -3000.00000000001 3000.00000000001 -0.1 0.1 0 0.1 units box

create_box 2 box
Created orthogonal box = (-3000 -50 -50) to (3000 50 50)
  4 by 1 by 1 MPI processor grid
create_atoms 1 region substrate
Created 1415 atoms
  using lattice units in orthogonal box = (-3000 -50 -50) to (3000 50 50)
  create_atoms CPU = 0.004 seconds

lattice sc ${lat2}                                                             # Top chain type2
lattice sc 3                                                             
Lattice spacing in x,y,z = 3 3 3

region slider1 block ${n2e2} ${n2e1} -0.1 0.1 5.9 6.1 units box
region slider1 block -2121.32034355965 ${n2e1} -0.1 0.1 5.9 6.1 units box
region slider1 block -2121.32034355965 2121.32034355965 -0.1 0.1 5.9 6.1 units box

create_atoms 2 region slider1
Created 1415 atoms
  using lattice units in orthogonal box = (-3000 -50 -50) to (3000 50 50)
  create_atoms CPU = 0.001 seconds


set type 1 diameter ${d1}                    # Set mass and diameter for each particles type
set type 1 diameter 3                    
Setting atom values ...
  1415 settings made for diameter
set type 1 mass ${mass1}
set type 1 mass 31.101767270539
Setting atom values ...
  1415 settings made for mass
set type 2 diameter ${d2}                    # Set mass and diameter for each particles type
set type 2 diameter 3                    
Setting atom values ...
  1415 settings made for diameter
set type 2 mass ${mass2}
set type 2 mass 31.101767270539
Setting atom values ...
  1415 settings made for mass


group substrate region substrate           # Define gorup
1415 atoms in group substrate
group slider1 region slider1
1415 atoms in group slider1
#displace_atoms slider1 move ${x_shift} 0.0 0.0
#group substrate_slider union substrate slider1

########################## Potential ###################################
pair_style granular
pair_coeff 1 1 hertz/material 0.00000001 0.001 ${PR} tangential mindlin NULL 0.1 0.01 damping viscoelastic
pair_coeff 1 1 hertz/material 0.00000001 0.001 0.3 tangential mindlin NULL 0.1 0.01 damping viscoelastic
pair_coeff 2 2 hertz/material 0.00000001 0.001 ${PR} tangential mindlin NULL 0.1 0.01 damping viscoelastic
pair_coeff 2 2 hertz/material 0.00000001 0.001 0.3 tangential mindlin NULL 0.1 0.01 damping viscoelastic
pair_coeff 1 2 hertz/material ${E} 0.001 ${PR} tangential mindlin NULL 0.1 0.01 damping viscoelastic
pair_coeff 1 2 hertz/material 15000000 0.001 ${PR} tangential mindlin NULL 0.1 0.01 damping viscoelastic
pair_coeff 1 2 hertz/material 15000000 0.001 0.3 tangential mindlin NULL 0.1 0.01 damping viscoelastic

comm_modify     vel yes
neigh_modify    delay 0 every 1 check yes

### Compute properties ###

compute 1 slider1 com                      # Compute the center of mass of top chain

variable p0 equal "step"

variable slider_z equal "c_1[3]"          # output the position of top chain in z-direction


thermo 100000
thermo_style custom step lx ly lz press pxx pyy pzz ke pe temp c_1[1] c_1[2] c_1[3]

############### Fix ##################


############## Equilibrium the system with apply force ########################

fix force_slider1 slider1 setforce NULL 0 NULL                                # Fix top chain not to move in y-direction

fix f_sub substrate freeze                                                    # Freeze the bottom chain

#fix nve_slider1 slider1 nve                   # Integrate motion for slider1 group
#fix lan_slider slider1 langevin 0 0 ${lgv} 6987532
fix rigid_top slider1 rigid/nve group 1 slider1 langevin 0 0 ${lgv} 6987532   # NVE+langevin
fix rigid_top slider1 rigid/nve group 1 slider1 langevin 0 0 0.5 6987532   
  1 rigid bodies with 1415 atoms

fix add slider1 addforce 0 0 ${Fn} every 1                                    # Add force to top layer
fix add slider1 addforce 0 0 -1000 every 1                                    

timestep ${dt}
timestep 1e-05

dump 		D1 all custom 100000 Equi_${num}_*.dump id type diameter mass xu yu zu fx fy fz
dump 		D1 all custom 100000 Equi_1_*.dump id type diameter mass xu yu zu fx fy fz
dump_modify D1 format 5 %.12g
dump_modify D1 format 7 %.12g

run 3000000
Generated 0 of 1 mixed pair_coeff terms from geometric mixing rule
Neighbor list info ...
  update every 1 steps, delay 0 steps, check yes
  max neighbors/atom: 2000, page size: 100000
  master list distance cutoff = 3.1
  ghost atom cutoff = 3.1
  binsize = 1.55, bins = 3871 65 65
  1 neighbor lists, perpetual/occasional/extra = 1 0 0
  (1) pair granular, perpetual
      attributes: half, newton on, size, history
      pair build: half/size/bin/newton
      stencil: half/bin/3d
      bin: standard
Per MPI rank memory allocation (min/avg/max) = 30.95 | 30.95 | 30.96 Mbytes
   Step           Lx             Ly             Lz           Press           Pxx            Pyy            Pzz           KinEng         PotEng          Temp          c_1[1]         c_1[2]         c_1[3]    
         0   6000           100            100            9.6767651e-17  2.9030295e-16  0              0              0              0              0              1.6929675e-13  0              6            
    100000   6000           100            100            0.018377269    2.9030295e-16  0              0.055131806    777245.31      0              3.7530394e+13  1.6929675e-13  0              3.3519811    
    200000   6000           100            100            0.0050312124   2.9030295e-16  0              0.015093637    125556.71      0              6.062684e+12   1.6929675e-13  0              3.1133307    
    300000   6000           100            100            0.0033672167   0.0033397099   0              0.0067619401   53680.218      0              2.5920256e+12  1.6929675e-13  0              2.9949022    
    400000   6000           100            100            0.069911631    0.041410761    0              0.16832413     3703.4565      0              1.7882666e+11  1.6929675e-13  0              2.9806158    
    500000   6000           100            100            0.034541091    0.018950284    0              0.08467299     1177.7465      0              5.6869165e+10  1.6929675e-13  0              2.986266     
    600000   6000           100            100            0.023787293    0.013494492    0              0.057867386    25.429348      0              1.2278922e+09  1.6929675e-13  0              2.9887366    
    700000   6000           100            100            0.029935564    0.014172131    0              0.075634562    0.1476061      0              7127370.1      1.6929675e-13  0              2.987101     
    800000   6000           100            100            0.027708514    0.0143041      0              0.068821443    0.75259653     0              36340193       1.6929675e-13  0              2.9876943    
    900000   6000           100            100            0.028399604    0.014337397    0              0.070861415    0.27510752     0              13283957       1.6929675e-13  0              2.9875164    
   1000000   6000           100            100            0.02823631     0.014303054    0              0.070405877    0.053478001    0              2582261.3      1.6929675e-13  0              2.9875548    
   1100000   6000           100            100            0.028245905    0.014301943    0              0.070435774    0.0069749996   0              336797.77      1.6929675e-13  0              2.987553     
   1200000   6000           100            100            0.028260115    0.014303526    0              0.070476818    0.0006031006   0              29121.569      1.6929675e-13  0              2.987549     
   1300000   6000           100            100            0.028249331    0.014302378    0              0.070445617    2.6507302e-05  0              1279.9427      1.6929675e-13  0              2.9875519    
   1400000   6000           100            100            0.028254592    0.014302929    0              0.070460847    1.9304233e-08  0              0.93213231     1.6929675e-13  0              2.9875505    
   1500000   6000           100            100            0.02825254     0.014302716    0              0.070454904    3.5408598e-07  0              17.097545      1.6929675e-13  0              2.987551     
   1600000   6000           100            100            0.0282532      0.014302784    0              0.070456815    1.7094492e-07  0              8.2543185      1.6929675e-13  0              2.9875509    
   1700000   6000           100            100            0.028253036    0.014302767    0              0.07045634     3.8009251e-08  0              1.8353307      1.6929675e-13  0              2.9875509    
   1800000   6000           100            100            0.028253056    0.014302769    0              0.0704564      5.5049489e-09  0              0.26581428     1.6929675e-13  0              2.9875509    
   1900000   6000           100            100            0.028253065    0.01430277     0              0.070456424    5.3896871e-10  0              0.02602487     1.6929675e-13  0              2.9875509    
   2000000   6000           100            100            0.028253056    0.014302769    0              0.0704564      3.0281591e-11  0              0.0014621897   1.6929675e-13  0              2.9875509    
   2100000   6000           100            100            0.028253061    0.01430277     0              0.070456413    3.0615847e-13  0              1.4783297e-05  1.6929675e-13  0              2.9875509    
   2200000   6000           100            100            0.028253059    0.014302769    0              0.070456408    1.3485706e-13  0              6.5117649e-06  1.6929675e-13  0              2.9875509    
   2300000   6000           100            100            0.02825306     0.014302769    0              0.070456409    1.0094821e-13  0              4.8744277e-06  1.6929675e-13  0              2.9875509    
   2400000   6000           100            100            0.028253059    0.014302769    0              0.070456409    2.6245812e-14  0              1.2673163e-06  1.6929675e-13  0              2.9875509    
   2500000   6000           100            100            0.028253059    0.014302769    0              0.070456409    4.213142e-15   0              2.0343755e-07  1.6929675e-13  0              2.9875509    
   2600000   6000           100            100            0.02825306     0.014302769    0              0.070456409    4.8499911e-16  0              2.3418871e-08  1.6929675e-13  0              2.9875509    
   2700000   6000           100            100            0.028253059    0.014302769    0              0.070456409    9.0119065e-18  0              4.3515271e-10  1.6929675e-13  0              2.9875509    
   2800000   6000           100            100            0.028253059    0.014302769    0              0.070456409    2.6804645e-18  0              1.2943004e-10  1.6929675e-13  0              2.9875509    
   2900000   6000           100            100            0.028253059    0.014302769    0              0.070456409    1.6243517e-18  0              7.8434131e-11  1.6929675e-13  0              2.9875509    
   3000000   6000           100            100            0.028253059    0.014302769    0              0.070456409    4.0632482e-18  0              1.9619971e-10  1.6929675e-13  0              2.9875509    
Loop time of 310.438 on 4 procs for 3000000 steps with 2830 atoms

Performance: 8349495.106 ns/day, 0.000 hours/ns, 9663.767 timesteps/s
100.0% CPU use with 4 MPI tasks x 1 OpenMP threads

MPI task timing breakdown:
Section |  min time  |  avg time  |  max time  |%varavg| %total
---------------------------------------------------------------
Pair    | 40.648     | 59.189     | 78.217     | 239.2 | 19.07
Neigh   | 0.91455    | 0.92651    | 0.93902    |   0.9 |  0.30
Comm    | 23.269     | 41.656     | 60.21      | 278.7 | 13.42
Output  | 0.27117    | 0.27142    | 0.2717     |   0.0 |  0.09
Modify  | 145.02     | 166.21     | 188.02     | 157.7 | 53.54
Other   |            | 42.19      |            |       | 13.59

Nlocal:          707.5 ave         854 max         561 min
Histogram: 2 0 0 0 0 0 0 0 0 2
Nghost:              4 ave           4 max           4 min
Histogram: 4 0 0 0 0 0 0 0 0 0
Neighs:            485 ave         686 max         284 min
Histogram: 2 0 0 0 0 0 0 0 0 2

Total # of neighbors = 1940
Ave neighs/atom = 0.68551237
Neighbor list builds = 164
Dangerous builds = 0

undump D1


clear
  using 1 OpenMP thread(s) per MPI task

next num

jump SELF startloop

include granular.in
### Simulation of contact between two chain

##################### Simulation setup ####################

units micro                              # units
dimension	3                            # dimension
boundary	p p p                        # boundary condition p: periodic
atom_style	sphere                       # atom style
#processors * * 1

####################### Parameter ##################################

variable ind equal ${num}
variable ind equal 2

variable lat1 equal 3*(2^(1/2))
variable lat2 equal 3
variable d1 equal 3                      # Diamter of particle at bottom chain
variable d2 equal 3                      # Diamter of particle at upper chain

variable n2e1 equal 500*v_lat1              # Half length of top chain. 1500 is number of particles
variable n1e1 equal v_n2e1*(v_lat1/v_lat2)              # Half length of bottom chain, which is 1.5 time larger than top chain
variable n1e2 equal -v_n1e1
variable n2e2 equal -v_n2e1
#variable x_shift equal -0.25*v_d1

variable den equal 2.2 #grams/cm^3      # micrometer^3=10^-12 cm^3 Density of materials

variable V1 equal (1/6)*PI*(v_d1^3)     # Volume of particle 1
variable V2 equal (1/6)*PI*(v_d2^3)     # Volume of particle 2

variable mass1 equal v_den*v_V1  # Mass of particle 1 (picograms)
variable mass2 equal v_den*v_V2  # Mass of particle 2 (picograms)

# E GPa to picogram/(micrometer-microsecond^2)= 10^3 Pa= 10^-6 GPa
# Force unit(picogram-micrometer/microsecond^2)=10^-9 N= 1nN
# Spring stiffness (force/distance) 10^-3 N/m


variable E equal (10+(5*v_ind))*(10^6)                    # Young's Modulus using for Hertz/material model
variable PR equal 0.3                          # Poisson's ratio using for Hertz/material model
variable Fn equal -1000                        # Force apply to each particles in top chain
variable dt equal 0.00001                      # Time step units microsecond
variable lgv equal 0.5                         #damping for langevin thermostat for slider



################### Creating the model #################################
lattice sc ${lat1}                                                               # Bottom chain type1
lattice sc 4.24264068711929                                                               
Lattice spacing in x,y,z = 4.2426407 4.2426407 4.2426407

region box block ${n1e2} ${n1e1} -50 50 -50 50 units box
region box block -3000.00000000001 ${n1e1} -50 50 -50 50 units box
region box block -3000.00000000001 3000.00000000001 -50 50 -50 50 units box
region substrate block ${n1e2} ${n1e1} -0.1 0.1 0 0.1 units box
region substrate block -3000.00000000001 ${n1e1} -0.1 0.1 0 0.1 units box
region substrate block -3000.00000000001 3000.00000000001 -0.1 0.1 0 0.1 units box

create_box 2 box
Created orthogonal box = (-3000 -50 -50) to (3000 50 50)
  4 by 1 by 1 MPI processor grid
create_atoms 1 region substrate
Created 1415 atoms
  using lattice units in orthogonal box = (-3000 -50 -50) to (3000 50 50)
  create_atoms CPU = 0.001 seconds

lattice sc ${lat2}                                                             # Top chain type2
lattice sc 3                                                             
Lattice spacing in x,y,z = 3 3 3

region slider1 block ${n2e2} ${n2e1} -0.1 0.1 5.9 6.1 units box
region slider1 block -2121.32034355965 ${n2e1} -0.1 0.1 5.9 6.1 units box
region slider1 block -2121.32034355965 2121.32034355965 -0.1 0.1 5.9 6.1 units box

create_atoms 2 region slider1
Created 1415 atoms
  using lattice units in orthogonal box = (-3000 -50 -50) to (3000 50 50)
  create_atoms CPU = 0.001 seconds


set type 1 diameter ${d1}                    # Set mass and diameter for each particles type
set type 1 diameter 3                    
Setting atom values ...
  1415 settings made for diameter
set type 1 mass ${mass1}
set type 1 mass 31.101767270539
Setting atom values ...
  1415 settings made for mass
set type 2 diameter ${d2}                    # Set mass and diameter for each particles type
set type 2 diameter 3                    
Setting atom values ...
  1415 settings made for diameter
set type 2 mass ${mass2}
set type 2 mass 31.101767270539
Setting atom values ...
  1415 settings made for mass


group substrate region substrate           # Define gorup
1415 atoms in group substrate
group slider1 region slider1
1415 atoms in group slider1
#displace_atoms slider1 move ${x_shift} 0.0 0.0
#group substrate_slider union substrate slider1

########################## Potential ###################################
pair_style granular
pair_coeff 1 1 hertz/material 0.00000001 0.001 ${PR} tangential mindlin NULL 0.1 0.01 damping viscoelastic
pair_coeff 1 1 hertz/material 0.00000001 0.001 0.3 tangential mindlin NULL 0.1 0.01 damping viscoelastic
pair_coeff 2 2 hertz/material 0.00000001 0.001 ${PR} tangential mindlin NULL 0.1 0.01 damping viscoelastic
pair_coeff 2 2 hertz/material 0.00000001 0.001 0.3 tangential mindlin NULL 0.1 0.01 damping viscoelastic
pair_coeff 1 2 hertz/material ${E} 0.001 ${PR} tangential mindlin NULL 0.1 0.01 damping viscoelastic
pair_coeff 1 2 hertz/material 20000000 0.001 ${PR} tangential mindlin NULL 0.1 0.01 damping viscoelastic
pair_coeff 1 2 hertz/material 20000000 0.001 0.3 tangential mindlin NULL 0.1 0.01 damping viscoelastic

comm_modify     vel yes
neigh_modify    delay 0 every 1 check yes

### Compute properties ###

compute 1 slider1 com                      # Compute the center of mass of top chain

variable p0 equal "step"

variable slider_z equal "c_1[3]"          # output the position of top chain in z-direction


thermo 100000
thermo_style custom step lx ly lz press pxx pyy pzz ke pe temp c_1[1] c_1[2] c_1[3]

############### Fix ##################


############## Equilibrium the system with apply force ########################

fix force_slider1 slider1 setforce NULL 0 NULL                                # Fix top chain not to move in y-direction

fix f_sub substrate freeze                                                    # Freeze the bottom chain

#fix nve_slider1 slider1 nve                   # Integrate motion for slider1 group
#fix lan_slider slider1 langevin 0 0 ${lgv} 6987532
fix rigid_top slider1 rigid/nve group 1 slider1 langevin 0 0 ${lgv} 6987532   # NVE+langevin
fix rigid_top slider1 rigid/nve group 1 slider1 langevin 0 0 0.5 6987532   
  1 rigid bodies with 1415 atoms

fix add slider1 addforce 0 0 ${Fn} every 1                                    # Add force to top layer
fix add slider1 addforce 0 0 -1000 every 1                                    

timestep ${dt}
timestep 1e-05

dump 		D1 all custom 100000 Equi_${num}_*.dump id type diameter mass xu yu zu fx fy fz
dump 		D1 all custom 100000 Equi_2_*.dump id type diameter mass xu yu zu fx fy fz
dump_modify D1 format 5 %.12g
dump_modify D1 format 7 %.12g

run 3000000
Generated 0 of 1 mixed pair_coeff terms from geometric mixing rule
Neighbor list info ...
  update every 1 steps, delay 0 steps, check yes
  max neighbors/atom: 2000, page size: 100000
  master list distance cutoff = 3.1
  ghost atom cutoff = 3.1
  binsize = 1.55, bins = 3871 65 65
  1 neighbor lists, perpetual/occasional/extra = 1 0 0
  (1) pair granular, perpetual
      attributes: half, newton on, size, history
      pair build: half/size/bin/newton
      stencil: half/bin/3d
      bin: standard
Per MPI rank memory allocation (min/avg/max) = 30.95 | 30.95 | 30.96 Mbytes
   Step           Lx             Ly             Lz           Press           Pxx            Pyy            Pzz           KinEng         PotEng          Temp          c_1[1]         c_1[2]         c_1[3]    
         0   6000           100            100            9.6767651e-17  2.9030295e-16  0              0              0              0              0              1.6929675e-13  0              6            
    100000   6000           100            100            0.018526002    2.9030295e-16  0              0.055578006    786593.65      0              3.7981792e+13  1.6929675e-13  0              3.3473472    
    200000   6000           100            100            0.0053573988   2.9030295e-16  0              0.016072196    138789.13      0              6.7016302e+12  1.6929675e-13  0              3.1070811    
    300000   6000           100            100           -0.0014040339   2.9030295e-16  0             -0.0042121018   30956.656      0              1.4947861e+12  1.6929675e-13  0              3.0129701    
    400000   6000           100            100           -0.00017971826  0.0001871962   0             -0.00072635097  1513.7969      0              7.3095834e+10  1.6929675e-13  0              2.9992059    
    500000   6000           100            100            0.028474416    0.015771385    0              0.069651862    1465.7832      0              7.0777427e+10  1.6929675e-13  0              2.9892028    
    600000   6000           100            100            0.022916515    0.013169482    0              0.055580063    9.054435       0              4.3720626e+08  1.6929675e-13  0              2.9904262    
    700000   6000           100            100            0.028420485    0.015058146    0              0.070203308    25.396726      0              1.226317e+09   1.6929675e-13  0              2.9892568    
    800000   6000           100            100            0.029114002    0.014775828    0              0.072566177    0.10690368     0              5161996.3      1.6929675e-13  0              2.9890644    
    900000   6000           100            100            0.028264289    0.014621183    0              0.070171685    0.37684907     0              18196693       1.6929675e-13  0              2.9892462    
   1000000   6000           100            100            0.028297426    0.014614059    0              0.070278218    0.023322159    0              1126143.6      1.6929675e-13  0              2.9892397    
   1100000   6000           100            100            0.028399713    0.014621018    0              0.07057812     0.0029933179   0              144536.61      1.6929675e-13  0              2.9892165    
   1200000   6000           100            100            0.028376034    0.014617952    0              0.07051015     0.00091592474  0              44226.728      1.6929675e-13  0              2.9892215    
   1300000   6000           100            100            0.028366291    0.014616615    0              0.070482259    3.5134843e-06  0              169.65358      1.6929675e-13  0              2.9892237    
   1400000   6000           100            100            0.028371208    0.014617262    0              0.070496361    1.9219838e-05  0              928.05719      1.6929675e-13  0              2.9892227    
   1500000   6000           100            100            0.028371627    0.014617324    0              0.070497556    2.8887272e-07  0              13.94863       1.6929675e-13  0              2.9892226    
   1600000   6000           100            100            0.028370894    0.014617227    0              0.070495455    2.3975442e-07  0              11.576883      1.6929675e-13  0              2.9892227    
   1700000   6000           100            100            0.02837097     0.014617236    0              0.070495673    2.556829e-08   0              1.2346012      1.6929675e-13  0              2.9892227    
   1800000   6000           100            100            0.028371054    0.014617247    0              0.070495915    1.3494066e-09  0              0.065158016    1.6929675e-13  0              2.9892227    
   1900000   6000           100            100            0.028371029    0.014617244    0              0.070495843    7.8326146e-10  0              0.037820893    1.6929675e-13  0              2.9892227    
   2000000   6000           100            100            0.028371022    0.014617243    0              0.070495823    1.4149682e-14  0              6.8323748e-07  1.6929675e-13  0              2.9892227    
   2100000   6000           100            100            0.028371027    0.014617244    0              0.070495836    1.384656e-11   0              0.00066860085  1.6929675e-13  0              2.9892227    
   2200000   6000           100            100            0.028371027    0.014617244    0              0.070495837    4.6889079e-13  0              2.2641058e-05  1.6929675e-13  0              2.9892227    
   2300000   6000           100            100            0.028371026    0.014617244    0              0.070495835    1.399145e-13   0              6.7559705e-06  1.6929675e-13  0              2.9892227    
   2400000   6000           100            100            0.028371026    0.014617244    0              0.070495835    2.527698e-14   0              1.2205349e-06  1.6929675e-13  0              2.9892227    
   2500000   6000           100            100            0.028371026    0.014617244    0              0.070495835    4.5566408e-16  0              2.2002388e-08  1.6929675e-13  0              2.9892227    
   2600000   6000           100            100            0.028371026    0.014617244    0              0.070495835    6.3075553e-16  0              3.0456927e-08  1.6929675e-13  0              2.9892227    
   2700000   6000           100            100            0.028371026    0.014617244    0              0.070495835    1.3979798e-18  0              6.7503441e-11  1.6929675e-13  0              2.9892227    
   2800000   6000           100            100            0.028371026    0.014617244    0              0.070495835    1.3233916e-17  0              6.3901844e-10  1.6929675e-13  0              2.9892227    
   2900000   6000           100            100            0.028371026    0.014617244    0              0.070495835    7.4747708e-18  0              3.6092993e-10  1.6929675e-13  0              2.9892227    
   3000000   6000           100            100            0.028371026    0.014617244    0              0.070495835    2.7944402e-18  0              1.3493352e-10  1.6929675e-13  0              2.9892227    
Loop time of 305.185 on 4 procs for 3000000 steps with 2830 atoms

Performance: 8493207.030 ns/day, 0.000 hours/ns, 9830.101 timesteps/s
100.0% CPU use with 4 MPI tasks x 1 OpenMP threads

MPI task timing breakdown:
Section |  min time  |  avg time  |  max time  |%varavg| %total
---------------------------------------------------------------
Pair    | 39.931     | 59.413     | 77.845     | 229.9 | 19.47
Neigh   | 0.91568    | 0.92699    | 0.93859    |   0.9 |  0.30
Comm    | 23.027     | 40.962     | 58.294     | 270.1 | 13.42
Output  | 0.27253    | 0.27275    | 0.27302    |   0.0 |  0.09
Modify  | 138.94     | 161.11     | 183.04     | 162.2 | 52.79
Other   |            | 42.5       |            |       | 13.93

Nlocal:          707.5 ave         854 max         561 min
Histogram: 2 0 0 0 0 0 0 0 0 2
Nghost:              4 ave           4 max           4 min
Histogram: 4 0 0 0 0 0 0 0 0 0
Neighs:          485.5 ave         687 max         284 min
Histogram: 2 0 0 0 0 0 0 0 0 2

Total # of neighbors = 1942
Ave neighs/atom = 0.68621908
Neighbor list builds = 164
Dangerous builds = 0

undump D1


clear
  using 1 OpenMP thread(s) per MPI task

next num

jump SELF startloop

include granular.in
### Simulation of contact between two chain

##################### Simulation setup ####################

units micro                              # units
dimension	3                            # dimension
boundary	p p p                        # boundary condition p: periodic
atom_style	sphere                       # atom style
#processors * * 1

####################### Parameter ##################################

variable ind equal ${num}
variable ind equal 3

variable lat1 equal 3*(2^(1/2))
variable lat2 equal 3
variable d1 equal 3                      # Diamter of particle at bottom chain
variable d2 equal 3                      # Diamter of particle at upper chain

variable n2e1 equal 500*v_lat1              # Half length of top chain. 1500 is number of particles
variable n1e1 equal v_n2e1*(v_lat1/v_lat2)              # Half length of bottom chain, which is 1.5 time larger than top chain
variable n1e2 equal -v_n1e1
variable n2e2 equal -v_n2e1
#variable x_shift equal -0.25*v_d1

variable den equal 2.2 #grams/cm^3      # micrometer^3=10^-12 cm^3 Density of materials

variable V1 equal (1/6)*PI*(v_d1^3)     # Volume of particle 1
variable V2 equal (1/6)*PI*(v_d2^3)     # Volume of particle 2

variable mass1 equal v_den*v_V1  # Mass of particle 1 (picograms)
variable mass2 equal v_den*v_V2  # Mass of particle 2 (picograms)

# E GPa to picogram/(micrometer-microsecond^2)= 10^3 Pa= 10^-6 GPa
# Force unit(picogram-micrometer/microsecond^2)=10^-9 N= 1nN
# Spring stiffness (force/distance) 10^-3 N/m


variable E equal (10+(5*v_ind))*(10^6)                    # Young's Modulus using for Hertz/material model
variable PR equal 0.3                          # Poisson's ratio using for Hertz/material model
variable Fn equal -1000                        # Force apply to each particles in top chain
variable dt equal 0.00001                      # Time step units microsecond
variable lgv equal 0.5                         #damping for langevin thermostat for slider



################### Creating the model #################################
lattice sc ${lat1}                                                               # Bottom chain type1
lattice sc 4.24264068711929                                                               
Lattice spacing in x,y,z = 4.2426407 4.2426407 4.2426407

region box block ${n1e2} ${n1e1} -50 50 -50 50 units box
region box block -3000.00000000001 ${n1e1} -50 50 -50 50 units box
region box block -3000.00000000001 3000.00000000001 -50 50 -50 50 units box
region substrate block ${n1e2} ${n1e1} -0.1 0.1 0 0.1 units box
region substrate block -3000.00000000001 ${n1e1} -0.1 0.1 0 0.1 units box
region substrate block -3000.00000000001 3000.00000000001 -0.1 0.1 0 0.1 units box

create_box 2 box
Created orthogonal box = (-3000 -50 -50) to (3000 50 50)
  4 by 1 by 1 MPI processor grid
create_atoms 1 region substrate
Created 1415 atoms
  using lattice units in orthogonal box = (-3000 -50 -50) to (3000 50 50)
  create_atoms CPU = 0.001 seconds

lattice sc ${lat2}                                                             # Top chain type2
lattice sc 3                                                             
Lattice spacing in x,y,z = 3 3 3

region slider1 block ${n2e2} ${n2e1} -0.1 0.1 5.9 6.1 units box
region slider1 block -2121.32034355965 ${n2e1} -0.1 0.1 5.9 6.1 units box
region slider1 block -2121.32034355965 2121.32034355965 -0.1 0.1 5.9 6.1 units box

create_atoms 2 region slider1
Created 1415 atoms
  using lattice units in orthogonal box = (-3000 -50 -50) to (3000 50 50)
  create_atoms CPU = 0.001 seconds


set type 1 diameter ${d1}                    # Set mass and diameter for each particles type
set type 1 diameter 3                    
Setting atom values ...
  1415 settings made for diameter
set type 1 mass ${mass1}
set type 1 mass 31.101767270539
Setting atom values ...
  1415 settings made for mass
set type 2 diameter ${d2}                    # Set mass and diameter for each particles type
set type 2 diameter 3                    
Setting atom values ...
  1415 settings made for diameter
set type 2 mass ${mass2}
set type 2 mass 31.101767270539
Setting atom values ...
  1415 settings made for mass


group substrate region substrate           # Define gorup
1415 atoms in group substrate
group slider1 region slider1
1415 atoms in group slider1
#displace_atoms slider1 move ${x_shift} 0.0 0.0
#group substrate_slider union substrate slider1

########################## Potential ###################################
pair_style granular
pair_coeff 1 1 hertz/material 0.00000001 0.001 ${PR} tangential mindlin NULL 0.1 0.01 damping viscoelastic
pair_coeff 1 1 hertz/material 0.00000001 0.001 0.3 tangential mindlin NULL 0.1 0.01 damping viscoelastic
pair_coeff 2 2 hertz/material 0.00000001 0.001 ${PR} tangential mindlin NULL 0.1 0.01 damping viscoelastic
pair_coeff 2 2 hertz/material 0.00000001 0.001 0.3 tangential mindlin NULL 0.1 0.01 damping viscoelastic
pair_coeff 1 2 hertz/material ${E} 0.001 ${PR} tangential mindlin NULL 0.1 0.01 damping viscoelastic
pair_coeff 1 2 hertz/material 25000000 0.001 ${PR} tangential mindlin NULL 0.1 0.01 damping viscoelastic
pair_coeff 1 2 hertz/material 25000000 0.001 0.3 tangential mindlin NULL 0.1 0.01 damping viscoelastic

comm_modify     vel yes
neigh_modify    delay 0 every 1 check yes

### Compute properties ###

compute 1 slider1 com                      # Compute the center of mass of top chain

variable p0 equal "step"

variable slider_z equal "c_1[3]"          # output the position of top chain in z-direction


thermo 100000
thermo_style custom step lx ly lz press pxx pyy pzz ke pe temp c_1[1] c_1[2] c_1[3]

############### Fix ##################


############## Equilibrium the system with apply force ########################

fix force_slider1 slider1 setforce NULL 0 NULL                                # Fix top chain not to move in y-direction

fix f_sub substrate freeze                                                    # Freeze the bottom chain

#fix nve_slider1 slider1 nve                   # Integrate motion for slider1 group
#fix lan_slider slider1 langevin 0 0 ${lgv} 6987532
fix rigid_top slider1 rigid/nve group 1 slider1 langevin 0 0 ${lgv} 6987532   # NVE+langevin
fix rigid_top slider1 rigid/nve group 1 slider1 langevin 0 0 0.5 6987532   
  1 rigid bodies with 1415 atoms

fix add slider1 addforce 0 0 ${Fn} every 1                                    # Add force to top layer
fix add slider1 addforce 0 0 -1000 every 1                                    

timestep ${dt}
timestep 1e-05

dump 		D1 all custom 100000 Equi_${num}_*.dump id type diameter mass xu yu zu fx fy fz
dump 		D1 all custom 100000 Equi_3_*.dump id type diameter mass xu yu zu fx fy fz
dump_modify D1 format 5 %.12g
dump_modify D1 format 7 %.12g

run 3000000
Generated 0 of 1 mixed pair_coeff terms from geometric mixing rule
Neighbor list info ...
  update every 1 steps, delay 0 steps, check yes
  max neighbors/atom: 2000, page size: 100000
  master list distance cutoff = 3.1
  ghost atom cutoff = 3.1
  binsize = 1.55, bins = 3871 65 65
  1 neighbor lists, perpetual/occasional/extra = 1 0 0
  (1) pair granular, perpetual
      attributes: half, newton on, size, history
      pair build: half/size/bin/newton
      stencil: half/bin/3d
      bin: standard
Per MPI rank memory allocation (min/avg/max) = 30.95 | 30.95 | 30.96 Mbytes
   Step           Lx             Ly             Lz           Press           Pxx            Pyy            Pzz           KinEng         PotEng          Temp          c_1[1]         c_1[2]         c_1[3]    
         0   6000           100            100            9.6767651e-17  2.9030295e-16  0              0              0              0              0              1.6929675e-13  0              6            
    100000   6000           100            100            0.018631592    2.9030295e-16  0              0.055894775    793258.31      0              3.8303605e+13  1.6929675e-13  0              3.3439973    
    200000   6000           100            100            0.0055910327   2.9030295e-16  0              0.016773098    148523.31      0              7.171659e+12   1.6929675e-13  0              3.1023029    
    300000   6000           100            100           -0.0011567183   2.9030295e-16  0             -0.0034701549   18747.036      0              9.0522727e+11  1.6929675e-13  0              3.0232202    
    400000   6000           100            100            0.0007679594   1.6538194e-05  0              0.00228734     3414.5281      0              1.6487534e+11  1.6929675e-13  0              2.999234     
    500000   6000           100            100            0.047103569    0.021248786    0              0.12006192     142.30723      0              6.8715069e+09  1.6929675e-13  0              2.9873942    
    600000   6000           100            100            0.034869862    0.016499253    0              0.088110334    8.7115774      0              4.206509e+08   1.6929675e-13  0              2.9892296    
    700000   6000           100            100            0.030369737    0.014466653    0              0.076642556    2.2783078      0              1.1001133e+08  1.6929675e-13  0              2.9899553    
    800000   6000           100            100            0.029195628    0.014869585    0              0.072717299    0.36734453     0              17737753       1.6929675e-13  0              2.9902148    
    900000   6000           100            100            0.028760604    0.014967137    0              0.071314676    0.057976606    0              2799482.8      1.6929675e-13  0              2.9903092    
   1000000   6000           100            100            0.028593462    0.014971651    0              0.070808734    0.0091556604   0              442094.08      1.6929675e-13  0              2.9903434    
   1100000   6000           100            100            0.028530118    0.014964371    0              0.070625984    0.0014244294   0              68780.6        1.6929675e-13  0              2.9903558    
   1200000   6000           100            100            0.02850726     0.014961812    0              0.070559967    0.0002189451   0              10572.075      1.6929675e-13  0              2.9903603    
   1300000   6000           100            100            0.028499013    0.014960898    0              0.07053614     3.3295927e-05  0              1607.7411      1.6929675e-13  0              2.9903619    
   1400000   6000           100            100            0.02849604     0.01496057     0              0.07052755     5.0156526e-06  0              242.18791      1.6929675e-13  0              2.9903625    
   1500000   6000           100            100            0.02849497     0.014960452    0              0.070524457    7.4918268e-07  0              36.17535       1.6929675e-13  0              2.9903627    
   1600000   6000           100            100            0.028494585    0.01496041     0              0.070523345    1.1105768e-07  0              5.3625778      1.6929675e-13  0              2.9903627    
   1700000   6000           100            100            0.028494447    0.014960395    0              0.070522945    1.6350424e-08  0              0.78950345     1.6929675e-13  0              2.9903628    
   1800000   6000           100            100            0.028494397    0.014960389    0              0.070522802    2.3921702e-09  0              0.11550934     1.6929675e-13  0              2.9903628    
   1900000   6000           100            100            0.028494379    0.014960387    0              0.070522751    3.4800158e-10  0              0.016803751    1.6929675e-13  0              2.9903628    
   2000000   6000           100            100            0.028494373    0.014960386    0              0.070522732    5.0356363e-11  0              0.0024315285   1.6929675e-13  0              2.9903628    
   2100000   6000           100            100            0.028494371    0.014960386    0              0.070522726    7.2520771e-12  0              0.00035017685  1.6929675e-13  0              2.9903628    
   2200000   6000           100            100            0.02849437     0.014960386    0              0.070522723    1.0383663e-12  0              5.0138993e-05  1.6929675e-13  0              2.9903628    
   2300000   6000           100            100            0.02849437     0.014960386    0              0.070522723    1.4818051e-13  0              7.1551064e-06  1.6929675e-13  0              2.9903628    
   2400000   6000           100            100            0.028494369    0.014960386    0              0.070522722    2.104281e-14   0              1.016082e-06   1.6929675e-13  0              2.9903628    
   2500000   6000           100            100            0.028494369    0.014960386    0              0.070522722    2.9813622e-15  0              1.4395931e-07  1.6929675e-13  0              2.9903628    
   2600000   6000           100            100            0.028494369    0.014960386    0              0.070522722    4.442419e-16   0              2.1450852e-08  1.6929675e-13  0              2.9903628    
   2700000   6000           100            100            0.028494369    0.014960386    0              0.070522722    3.9343236e-17  0              1.8997441e-09  1.6929675e-13  0              2.9903628    
   2800000   6000           100            100            0.028494369    0.014960386    0              0.070522722    5.3911702e-18  0              2.6032031e-10  1.6929675e-13  0              2.9903628    
   2900000   6000           100            100            0.028494369    0.014960386    0              0.070522722    9.7998657e-19  0              4.7320044e-11  1.6929675e-13  0              2.9903628    
   3000000   6000           100            100            0.028494369    0.014960386    0              0.070522722    3.1160322e-18  0              1.5046204e-10  1.6929675e-13  0              2.9903628    
Loop time of 303.638 on 4 procs for 3000000 steps with 2830 atoms

Performance: 8536492.150 ns/day, 0.000 hours/ns, 9880.199 timesteps/s
100.0% CPU use with 4 MPI tasks x 1 OpenMP threads

MPI task timing breakdown:
Section |  min time  |  avg time  |  max time  |%varavg| %total
---------------------------------------------------------------
Pair    | 38.999     | 57.079     | 75.576     | 223.5 | 18.80
Neigh   | 0.91846    | 0.92728    | 0.93781    |   0.7 |  0.31
Comm    | 22.909     | 40.311     | 60.439     | 257.9 | 13.28
Output  | 0.27163    | 0.27184    | 0.27214    |   0.0 |  0.09
Modify  | 141.6      | 162.8      | 183.93     | 155.6 | 53.62
Other   |            | 42.25      |            |       | 13.92

Nlocal:          707.5 ave         854 max         561 min
Histogram: 2 0 0 0 0 0 0 0 0 2
Nghost:              4 ave           4 max           4 min
Histogram: 4 0 0 0 0 0 0 0 0 0
Neighs:          485.5 ave         687 max         284 min
Histogram: 2 0 0 0 0 0 0 0 0 2

Total # of neighbors = 1942
Ave neighs/atom = 0.68621908
Neighbor list builds = 164
Dangerous builds = 0

undump D1


clear
  using 1 OpenMP thread(s) per MPI task

next num

jump SELF startloop

include granular.in
### Simulation of contact between two chain

##################### Simulation setup ####################

units micro                              # units
dimension	3                            # dimension
boundary	p p p                        # boundary condition p: periodic
atom_style	sphere                       # atom style
#processors * * 1

####################### Parameter ##################################

variable ind equal ${num}
variable ind equal 4

variable lat1 equal 3*(2^(1/2))
variable lat2 equal 3
variable d1 equal 3                      # Diamter of particle at bottom chain
variable d2 equal 3                      # Diamter of particle at upper chain

variable n2e1 equal 500*v_lat1              # Half length of top chain. 1500 is number of particles
variable n1e1 equal v_n2e1*(v_lat1/v_lat2)              # Half length of bottom chain, which is 1.5 time larger than top chain
variable n1e2 equal -v_n1e1
variable n2e2 equal -v_n2e1
#variable x_shift equal -0.25*v_d1

variable den equal 2.2 #grams/cm^3      # micrometer^3=10^-12 cm^3 Density of materials

variable V1 equal (1/6)*PI*(v_d1^3)     # Volume of particle 1
variable V2 equal (1/6)*PI*(v_d2^3)     # Volume of particle 2

variable mass1 equal v_den*v_V1  # Mass of particle 1 (picograms)
variable mass2 equal v_den*v_V2  # Mass of particle 2 (picograms)

# E GPa to picogram/(micrometer-microsecond^2)= 10^3 Pa= 10^-6 GPa
# Force unit(picogram-micrometer/microsecond^2)=10^-9 N= 1nN
# Spring stiffness (force/distance) 10^-3 N/m


variable E equal (10+(5*v_ind))*(10^6)                    # Young's Modulus using for Hertz/material model
variable PR equal 0.3                          # Poisson's ratio using for Hertz/material model
variable Fn equal -1000                        # Force apply to each particles in top chain
variable dt equal 0.00001                      # Time step units microsecond
variable lgv equal 0.5                         #damping for langevin thermostat for slider



################### Creating the model #################################
lattice sc ${lat1}                                                               # Bottom chain type1
lattice sc 4.24264068711929                                                               
Lattice spacing in x,y,z = 4.2426407 4.2426407 4.2426407

region box block ${n1e2} ${n1e1} -50 50 -50 50 units box
region box block -3000.00000000001 ${n1e1} -50 50 -50 50 units box
region box block -3000.00000000001 3000.00000000001 -50 50 -50 50 units box
region substrate block ${n1e2} ${n1e1} -0.1 0.1 0 0.1 units box
region substrate block -3000.00000000001 ${n1e1} -0.1 0.1 0 0.1 units box
region substrate block -3000.00000000001 3000.00000000001 -0.1 0.1 0 0.1 units box

create_box 2 box
Created orthogonal box = (-3000 -50 -50) to (3000 50 50)
  4 by 1 by 1 MPI processor grid
create_atoms 1 region substrate
Created 1415 atoms
  using lattice units in orthogonal box = (-3000 -50 -50) to (3000 50 50)
  create_atoms CPU = 0.001 seconds

lattice sc ${lat2}                                                             # Top chain type2
lattice sc 3                                                             
Lattice spacing in x,y,z = 3 3 3

region slider1 block ${n2e2} ${n2e1} -0.1 0.1 5.9 6.1 units box
region slider1 block -2121.32034355965 ${n2e1} -0.1 0.1 5.9 6.1 units box
region slider1 block -2121.32034355965 2121.32034355965 -0.1 0.1 5.9 6.1 units box

create_atoms 2 region slider1
Created 1415 atoms
  using lattice units in orthogonal box = (-3000 -50 -50) to (3000 50 50)
  create_atoms CPU = 0.001 seconds


set type 1 diameter ${d1}                    # Set mass and diameter for each particles type
set type 1 diameter 3                    
Setting atom values ...
  1415 settings made for diameter
set type 1 mass ${mass1}
set type 1 mass 31.101767270539
Setting atom values ...
  1415 settings made for mass
set type 2 diameter ${d2}                    # Set mass and diameter for each particles type
set type 2 diameter 3                    
Setting atom values ...
  1415 settings made for diameter
set type 2 mass ${mass2}
set type 2 mass 31.101767270539
Setting atom values ...
  1415 settings made for mass


group substrate region substrate           # Define gorup
1415 atoms in group substrate
group slider1 region slider1
1415 atoms in group slider1
#displace_atoms slider1 move ${x_shift} 0.0 0.0
#group substrate_slider union substrate slider1

########################## Potential ###################################
pair_style granular
pair_coeff 1 1 hertz/material 0.00000001 0.001 ${PR} tangential mindlin NULL 0.1 0.01 damping viscoelastic
pair_coeff 1 1 hertz/material 0.00000001 0.001 0.3 tangential mindlin NULL 0.1 0.01 damping viscoelastic
pair_coeff 2 2 hertz/material 0.00000001 0.001 ${PR} tangential mindlin NULL 0.1 0.01 damping viscoelastic
pair_coeff 2 2 hertz/material 0.00000001 0.001 0.3 tangential mindlin NULL 0.1 0.01 damping viscoelastic
pair_coeff 1 2 hertz/material ${E} 0.001 ${PR} tangential mindlin NULL 0.1 0.01 damping viscoelastic
pair_coeff 1 2 hertz/material 30000000 0.001 ${PR} tangential mindlin NULL 0.1 0.01 damping viscoelastic
pair_coeff 1 2 hertz/material 30000000 0.001 0.3 tangential mindlin NULL 0.1 0.01 damping viscoelastic

comm_modify     vel yes
neigh_modify    delay 0 every 1 check yes

### Compute properties ###

compute 1 slider1 com                      # Compute the center of mass of top chain

variable p0 equal "step"

variable slider_z equal "c_1[3]"          # output the position of top chain in z-direction


thermo 100000
thermo_style custom step lx ly lz press pxx pyy pzz ke pe temp c_1[1] c_1[2] c_1[3]

############### Fix ##################


############## Equilibrium the system with apply force ########################

fix force_slider1 slider1 setforce NULL 0 NULL                                # Fix top chain not to move in y-direction

fix f_sub substrate freeze                                                    # Freeze the bottom chain

#fix nve_slider1 slider1 nve                   # Integrate motion for slider1 group
#fix lan_slider slider1 langevin 0 0 ${lgv} 6987532
fix rigid_top slider1 rigid/nve group 1 slider1 langevin 0 0 ${lgv} 6987532   # NVE+langevin
fix rigid_top slider1 rigid/nve group 1 slider1 langevin 0 0 0.5 6987532   
  1 rigid bodies with 1415 atoms

fix add slider1 addforce 0 0 ${Fn} every 1                                    # Add force to top layer
fix add slider1 addforce 0 0 -1000 every 1                                    

timestep ${dt}
timestep 1e-05

dump 		D1 all custom 100000 Equi_${num}_*.dump id type diameter mass xu yu zu fx fy fz
dump 		D1 all custom 100000 Equi_4_*.dump id type diameter mass xu yu zu fx fy fz
dump_modify D1 format 5 %.12g
dump_modify D1 format 7 %.12g

run 3000000
Generated 0 of 1 mixed pair_coeff terms from geometric mixing rule
Neighbor list info ...
  update every 1 steps, delay 0 steps, check yes
  max neighbors/atom: 2000, page size: 100000
  master list distance cutoff = 3.1
  ghost atom cutoff = 3.1
  binsize = 1.55, bins = 3871 65 65
  1 neighbor lists, perpetual/occasional/extra = 1 0 0
  (1) pair granular, perpetual
      attributes: half, newton on, size, history
      pair build: half/size/bin/newton
      stencil: half/bin/3d
      bin: standard
Per MPI rank memory allocation (min/avg/max) = 30.95 | 30.95 | 30.96 Mbytes
   Step           Lx             Ly             Lz           Press           Pxx            Pyy            Pzz           KinEng         PotEng          Temp          c_1[1]         c_1[2]         c_1[3]    
         0   6000           100            100            9.6767651e-17  2.9030295e-16  0              0              0              0              0              1.6929675e-13  0              6            
    100000   6000           100            100            0.018712033    2.9030295e-16  0              0.056136099    798351.37      0              3.8549531e+13  1.6929675e-13  0              3.3414113    
    200000   6000           100            100            0.0057700794   2.9030295e-16  0              0.017310238    156123.65      0              7.5386524e+12  1.6929675e-13  0              3.0984741    
    300000   6000           100            100           -0.00094810427  2.9030295e-16  0             -0.0028443128   11624.43       0              5.6130214e+11  1.6929675e-13  0              3.0296543    
    400000   6000           100            100            0.027247545    0.010010992    0              0.071731643    11686.09       0              5.6427946e+11  1.6929675e-13  0              2.9913566    
    500000   6000           100            100            0.018697958    0.0058521885   0              0.050241687    1325.1471      0              6.3986611e+10  1.6929675e-13  0              2.9926636    
    600000   6000           100            100            0.029936189    0.016337801    0              0.073470765    209.7182       0              1.0126541e+10  1.6929675e-13  0              2.9909964    
    700000   6000           100            100            0.028710023    0.013140615    0              0.072989453    25.115256      0              1.2127258e+09  1.6929675e-13  0              2.9910613    
    800000   6000           100            100            0.027296944    0.013459894    0              0.068430937    1.0308277      0              49774982       1.6929675e-13  0              2.9913346    
    900000   6000           100            100            0.028399425    0.013758205    0              0.07144007     0.0063762206   0              307884.87      1.6929675e-13  0              2.9911476    
   1000000   6000           100            100            0.027985534    0.013646334    0              0.070310269    0.03377058     0              1630660.4      1.6929675e-13  0              2.9912185    
   1100000   6000           100            100            0.028073472    0.013664449    0              0.070555967    0.0090353983   0              436287.05      1.6929675e-13  0              2.9912026    
   1200000   6000           100            100            0.028076964    0.013664936    0              0.070565958    0.00089878934  0              43399.321      1.6929675e-13  0              2.9912022    
   1300000   6000           100            100            0.028063106    0.013662017    0              0.070527301    2.0121211e-05  0              971.58125      1.6929675e-13  0              2.9912046    
   1400000   6000           100            100            0.028070603    0.01366363     0              0.070548178    2.0743394e-06  0              100.16242      1.6929675e-13  0              2.9912033    
   1500000   6000           100            100            0.028068153    0.013663095    0              0.070541363    2.0412077e-06  0              98.562614      1.6929675e-13  0              2.9912037    
   1600000   6000           100            100            0.028068556    0.013663186    0              0.070542481    3.9422928e-07  0              19.035921      1.6929675e-13  0              2.9912036    
   1700000   6000           100            100            0.028068652    0.013663205    0              0.070542752    2.86574e-08    0              1.3837633      1.6929675e-13  0              2.9912036    
   1800000   6000           100            100            0.028068543    0.013663182    0              0.070542447    1.7210036e-10  0              0.0083101107   1.6929675e-13  0              2.9912036    
   1900000   6000           100            100            0.028068593    0.013663193    0              0.070542586    2.2952725e-10  0              0.01108305     1.6929675e-13  0              2.9912036    
   2000000   6000           100            100            0.028068579    0.01366319     0              0.070542547    1.0947032e-10  0              0.00528593     1.6929675e-13  0              2.9912036    
   2100000   6000           100            100            0.02806858     0.01366319     0              0.07054255     1.5850789e-11  0              0.00076537785  1.6929675e-13  0              2.9912036    
   2200000   6000           100            100            0.028068581    0.01366319     0              0.070542554    7.8417806e-13  0              3.7865152e-05  1.6929675e-13  0              2.9912036    
   2300000   6000           100            100            0.02806858     0.01366319     0              0.070542551    6.0884015e-16  0              2.9398712e-08  1.6929675e-13  0              2.9912036    
   2400000   6000           100            100            0.028068581    0.01366319     0              0.070542552    1.7782603e-14  0              8.5865828e-07  1.6929675e-13  0              2.9912036    
   2500000   6000           100            100            0.028068581    0.01366319     0              0.070542552    5.3530232e-15  0              2.5847833e-07  1.6929675e-13  0              2.9912036    
   2600000   6000           100            100            0.028068581    0.01366319     0              0.070542552    6.2407495e-16  0              3.0134346e-08  1.6929675e-13  0              2.9912036    
   2700000   6000           100            100            0.028068581    0.01366319     0              0.070542552    1.9734332e-19  0              9.5290028e-12  1.6929675e-13  0              2.9912036    
   2800000   6000           100            100            0.028068581    0.01366319     0              0.070542552    2.8154671e-18  0              1.3594883e-10  1.6929675e-13  0              2.9912036    
   2900000   6000           100            100            0.028068581    0.01366319     0              0.070542552    3.4009786e-19  0              1.6422109e-11  1.6929675e-13  0              2.9912036    
   3000000   6000           100            100            0.028068581    0.01366319     0              0.070542552    7.5174315e-18  0              3.6298986e-10  1.6929675e-13  0              2.9912036    
Loop time of 299.935 on 4 procs for 3000000 steps with 2830 atoms

Performance: 8641881.856 ns/day, 0.000 hours/ns, 10002.178 timesteps/s
100.0% CPU use with 4 MPI tasks x 1 OpenMP threads

MPI task timing breakdown:
Section |  min time  |  avg time  |  max time  |%varavg| %total
---------------------------------------------------------------
Pair    | 39.177     | 56.269     | 75.035     | 228.3 | 18.76
Neigh   | 0.92049    | 0.93203    | 0.9434     |   0.8 |  0.31
Comm    | 22.155     | 39.924     | 58.718     | 263.2 | 13.31
Output  | 0.27206    | 0.27225    | 0.27248    |   0.0 |  0.09
Modify  | 138.85     | 160.77     | 181.12     | 157.0 | 53.60
Other   |            | 41.77      |            |       | 13.93

Nlocal:          707.5 ave         855 max         561 min
Histogram: 2 0 0 0 0 0 0 0 0 2
Nghost:              4 ave           5 max           3 min
Histogram: 1 0 0 0 0 2 0 0 0 1
Neighs:          485.5 ave         688 max         284 min
Histogram: 2 0 0 0 0 0 0 0 0 2

Total # of neighbors = 1942
Ave neighs/atom = 0.68621908
Neighbor list builds = 166
Dangerous builds = 0

undump D1


clear
  using 1 OpenMP thread(s) per MPI task

next num

jump SELF startloop

include granular.in
### Simulation of contact between two chain

##################### Simulation setup ####################

units micro                              # units
dimension	3                            # dimension
boundary	p p p                        # boundary condition p: periodic
atom_style	sphere                       # atom style
#processors * * 1

####################### Parameter ##################################

variable ind equal ${num}
variable ind equal 5

variable lat1 equal 3*(2^(1/2))
variable lat2 equal 3
variable d1 equal 3                      # Diamter of particle at bottom chain
variable d2 equal 3                      # Diamter of particle at upper chain

variable n2e1 equal 500*v_lat1              # Half length of top chain. 1500 is number of particles
variable n1e1 equal v_n2e1*(v_lat1/v_lat2)              # Half length of bottom chain, which is 1.5 time larger than top chain
variable n1e2 equal -v_n1e1
variable n2e2 equal -v_n2e1
#variable x_shift equal -0.25*v_d1

variable den equal 2.2 #grams/cm^3      # micrometer^3=10^-12 cm^3 Density of materials

variable V1 equal (1/6)*PI*(v_d1^3)     # Volume of particle 1
variable V2 equal (1/6)*PI*(v_d2^3)     # Volume of particle 2

variable mass1 equal v_den*v_V1  # Mass of particle 1 (picograms)
variable mass2 equal v_den*v_V2  # Mass of particle 2 (picograms)

# E GPa to picogram/(micrometer-microsecond^2)= 10^3 Pa= 10^-6 GPa
# Force unit(picogram-micrometer/microsecond^2)=10^-9 N= 1nN
# Spring stiffness (force/distance) 10^-3 N/m


variable E equal (10+(5*v_ind))*(10^6)                    # Young's Modulus using for Hertz/material model
variable PR equal 0.3                          # Poisson's ratio using for Hertz/material model
variable Fn equal -1000                        # Force apply to each particles in top chain
variable dt equal 0.00001                      # Time step units microsecond
variable lgv equal 0.5                         #damping for langevin thermostat for slider



################### Creating the model #################################
lattice sc ${lat1}                                                               # Bottom chain type1
lattice sc 4.24264068711929                                                               
Lattice spacing in x,y,z = 4.2426407 4.2426407 4.2426407

region box block ${n1e2} ${n1e1} -50 50 -50 50 units box
region box block -3000.00000000001 ${n1e1} -50 50 -50 50 units box
region box block -3000.00000000001 3000.00000000001 -50 50 -50 50 units box
region substrate block ${n1e2} ${n1e1} -0.1 0.1 0 0.1 units box
region substrate block -3000.00000000001 ${n1e1} -0.1 0.1 0 0.1 units box
region substrate block -3000.00000000001 3000.00000000001 -0.1 0.1 0 0.1 units box

create_box 2 box
Created orthogonal box = (-3000 -50 -50) to (3000 50 50)
  4 by 1 by 1 MPI processor grid
create_atoms 1 region substrate
Created 1415 atoms
  using lattice units in orthogonal box = (-3000 -50 -50) to (3000 50 50)
  create_atoms CPU = 0.001 seconds

lattice sc ${lat2}                                                             # Top chain type2
lattice sc 3                                                             
Lattice spacing in x,y,z = 3 3 3

region slider1 block ${n2e2} ${n2e1} -0.1 0.1 5.9 6.1 units box
region slider1 block -2121.32034355965 ${n2e1} -0.1 0.1 5.9 6.1 units box
region slider1 block -2121.32034355965 2121.32034355965 -0.1 0.1 5.9 6.1 units box

create_atoms 2 region slider1
Created 1415 atoms
  using lattice units in orthogonal box = (-3000 -50 -50) to (3000 50 50)
  create_atoms CPU = 0.001 seconds


set type 1 diameter ${d1}                    # Set mass and diameter for each particles type
set type 1 diameter 3                    
Setting atom values ...
  1415 settings made for diameter
set type 1 mass ${mass1}
set type 1 mass 31.101767270539
Setting atom values ...
  1415 settings made for mass
set type 2 diameter ${d2}                    # Set mass and diameter for each particles type
set type 2 diameter 3                    
Setting atom values ...
  1415 settings made for diameter
set type 2 mass ${mass2}
set type 2 mass 31.101767270539
Setting atom values ...
  1415 settings made for mass


group substrate region substrate           # Define gorup
1415 atoms in group substrate
group slider1 region slider1
1415 atoms in group slider1
#displace_atoms slider1 move ${x_shift} 0.0 0.0
#group substrate_slider union substrate slider1

########################## Potential ###################################
pair_style granular
pair_coeff 1 1 hertz/material 0.00000001 0.001 ${PR} tangential mindlin NULL 0.1 0.01 damping viscoelastic
pair_coeff 1 1 hertz/material 0.00000001 0.001 0.3 tangential mindlin NULL 0.1 0.01 damping viscoelastic
pair_coeff 2 2 hertz/material 0.00000001 0.001 ${PR} tangential mindlin NULL 0.1 0.01 damping viscoelastic
pair_coeff 2 2 hertz/material 0.00000001 0.001 0.3 tangential mindlin NULL 0.1 0.01 damping viscoelastic
pair_coeff 1 2 hertz/material ${E} 0.001 ${PR} tangential mindlin NULL 0.1 0.01 damping viscoelastic
pair_coeff 1 2 hertz/material 35000000 0.001 ${PR} tangential mindlin NULL 0.1 0.01 damping viscoelastic
pair_coeff 1 2 hertz/material 35000000 0.001 0.3 tangential mindlin NULL 0.1 0.01 damping viscoelastic

comm_modify     vel yes
neigh_modify    delay 0 every 1 check yes

### Compute properties ###

compute 1 slider1 com                      # Compute the center of mass of top chain

variable p0 equal "step"

variable slider_z equal "c_1[3]"          # output the position of top chain in z-direction


thermo 100000
thermo_style custom step lx ly lz press pxx pyy pzz ke pe temp c_1[1] c_1[2] c_1[3]

############### Fix ##################


############## Equilibrium the system with apply force ########################

fix force_slider1 slider1 setforce NULL 0 NULL                                # Fix top chain not to move in y-direction

fix f_sub substrate freeze                                                    # Freeze the bottom chain

#fix nve_slider1 slider1 nve                   # Integrate motion for slider1 group
#fix lan_slider slider1 langevin 0 0 ${lgv} 6987532
fix rigid_top slider1 rigid/nve group 1 slider1 langevin 0 0 ${lgv} 6987532   # NVE+langevin
fix rigid_top slider1 rigid/nve group 1 slider1 langevin 0 0 0.5 6987532   
  1 rigid bodies with 1415 atoms

fix add slider1 addforce 0 0 ${Fn} every 1                                    # Add force to top layer
fix add slider1 addforce 0 0 -1000 every 1                                    

timestep ${dt}
timestep 1e-05

dump 		D1 all custom 100000 Equi_${num}_*.dump id type diameter mass xu yu zu fx fy fz
dump 		D1 all custom 100000 Equi_5_*.dump id type diameter mass xu yu zu fx fy fz
dump_modify D1 format 5 %.12g
dump_modify D1 format 7 %.12g

run 3000000
Generated 0 of 1 mixed pair_coeff terms from geometric mixing rule
Neighbor list info ...
  update every 1 steps, delay 0 steps, check yes
  max neighbors/atom: 2000, page size: 100000
  master list distance cutoff = 3.1
  ghost atom cutoff = 3.1
  binsize = 1.55, bins = 3871 65 65
  1 neighbor lists, perpetual/occasional/extra = 1 0 0
  (1) pair granular, perpetual
      attributes: half, newton on, size, history
      pair build: half/size/bin/newton
      stencil: half/bin/3d
      bin: standard
Per MPI rank memory allocation (min/avg/max) = 30.95 | 30.95 | 30.96 Mbytes
   Step           Lx             Ly             Lz           Press           Pxx            Pyy            Pzz           KinEng         PotEng          Temp          c_1[1]         c_1[2]         c_1[3]    
         0   6000           100            100            9.6767651e-17  2.9030295e-16  0              0              0              0              0              1.6929675e-13  0              6            
    100000   6000           100            100            0.018776221    2.9030295e-16  0              0.056328663    802425.22      0              3.8746242e+13  1.6929675e-13  0              3.3393264    
    200000   6000           100            100            0.0059135734   2.9030295e-16  0              0.01774072     162300.97      0              7.8369332e+12  1.6929675e-13  0              3.0953023    
    300000   6000           100            100           -0.00077008686  2.9030295e-16  0             -0.0023102606   7220.1111      0              3.4863333e+11  1.6929675e-13  0              3.0339631    
    400000   6000           100            100            0.091360245    0.039392896    0              0.23468784     2003.2897      0              9.6731691e+10  1.6929675e-13  0              2.9851583    
    500000   6000           100            100            0.026141923    0.012276935    0              0.066148833    1686.5965      0              8.143971e+10   1.6929675e-13  0              2.9920461    
    600000   6000           100            100            0.025512623    0.01109692     0              0.065440949    210.74649      0              1.0176194e+10  1.6929675e-13  0              2.9921326    
    700000   6000           100            100            0.024948212    0.010363411    0              0.064481226    8.1094676      0              3.9157717e+08  1.6929675e-13  0              2.9922108    
    800000   6000           100            100            0.026573109    0.011623402    0              0.068095924    0.40061057     0              19344051       1.6929675e-13  0              2.9920016    
    900000   6000           100            100            0.027342349    0.011792813    0              0.070234235    0.4694094      0              22666100       1.6929675e-13  0              2.9918769    
   1000000   6000           100            100            0.027517908    0.011810634    0              0.07074309     0.052483348    0              2534233.1      1.6929675e-13  0              2.9918466    
   1100000   6000           100            100            0.02749776     0.011807487    0              0.070685794    0.00015711994  0              7586.7598      1.6929675e-13  0              2.9918496    
   1200000   6000           100            100            0.02746405     0.01180075     0              0.0705914      0.00062502524  0              30180.232      1.6929675e-13  0              2.991855     
   1300000   6000           100            100            0.027451409    0.011798157    0              0.070556069    0.00017110542  0              8262.0684      1.6929675e-13  0              2.991857     
   1400000   6000           100            100            0.027450165    0.011797883    0              0.070552613    6.8249441e-06  0              329.55213      1.6929675e-13  0              2.9918573    
   1500000   6000           100            100            0.027451294    0.011798106    0              0.070555775    3.1693743e-07  0              15.303774      1.6929675e-13  0              2.9918571    
   1600000   6000           100            100            0.027451975    0.011798245    0              0.07055768     3.6858373e-07  0              17.797589      1.6929675e-13  0              2.991857     
   1700000   6000           100            100            0.027452134    0.011798278    0              0.070558125    4.0544593e-08  0              1.9577533      1.6929675e-13  0              2.9918569    
   1800000   6000           100            100            0.027452116    0.011798275    0              0.070558073    1.0818149e-10  0              0.0052236971   1.6929675e-13  0              2.9918569    
   1900000   6000           100            100            0.027452086    0.011798269    0              0.070557989    4.9558657e-10  0              0.023930102    1.6929675e-13  0              2.9918569    
   2000000   6000           100            100            0.027452075    0.011798266    0              0.070557958    1.333282e-10   0              0.0064379417   1.6929675e-13  0              2.9918569    
   2100000   6000           100            100            0.027452074    0.011798266    0              0.070557955    5.1978038e-12  0              0.00025098335  1.6929675e-13  0              2.9918569    
   2200000   6000           100            100            0.027452075    0.011798266    0              0.070557958    2.5848315e-13  0              1.2481226e-05  1.6929675e-13  0              2.9918569    
   2300000   6000           100            100            0.027452075    0.011798266    0              0.070557959    2.8912916e-13  0              1.3961012e-05  1.6929675e-13  0              2.9918569    
   2400000   6000           100            100            0.027452075    0.011798267    0              0.07055796     3.1591836e-14  0              1.5254567e-06  1.6929675e-13  0              2.9918569    
   2500000   6000           100            100            0.027452075    0.011798267    0              0.07055796     4.8826026e-17  0              2.3576341e-09  1.6929675e-13  0              2.9918569    
   2600000   6000           100            100            0.027452075    0.011798267    0              0.07055796     3.9364684e-16  0              1.9007797e-08  1.6929675e-13  0              2.9918569    
   2700000   6000           100            100            0.027452075    0.011798267    0              0.07055796     6.9772071e-17  0              3.3690436e-09  1.6929675e-13  0              2.9918569    
   2800000   6000           100            100            0.027452075    0.011798267    0              0.07055796     4.2780297e-21  0              2.0657074e-13  1.6929675e-13  0              2.9918569    
   2900000   6000           100            100            0.027452075    0.011798266    0              0.07055796     4.4394692e-20  0              2.1436608e-12  1.6929675e-13  0              2.9918569    
   3000000   6000           100            100            0.027452075    0.011798267    0              0.07055796     9.3799532e-18  0              4.5292437e-10  1.6929675e-13  0              2.9918569    
Loop time of 303.392 on 4 procs for 3000000 steps with 2830 atoms

Performance: 8543400.169 ns/day, 0.000 hours/ns, 9888.195 timesteps/s
100.0% CPU use with 4 MPI tasks x 1 OpenMP threads

MPI task timing breakdown:
Section |  min time  |  avg time  |  max time  |%varavg| %total
---------------------------------------------------------------
Pair    | 39.293     | 56.489     | 74.507     | 228.5 | 18.62
Neigh   | 0.91821    | 0.9287     | 0.93915    |   0.8 |  0.31
Comm    | 23.022     | 40.114     | 57.081     | 261.3 | 13.22
Output  | 0.27068    | 0.27088    | 0.27113    |   0.0 |  0.09
Modify  | 141.08     | 162.65     | 184.99     | 163.1 | 53.61
Other   |            | 42.94      |            |       | 14.15

Nlocal:          707.5 ave         855 max         561 min
Histogram: 2 0 0 0 0 0 0 0 0 2
Nghost:              4 ave           5 max           3 min
Histogram: 1 0 0 0 0 2 0 0 0 1
Neighs:            485 ave         687 max         284 min
Histogram: 2 0 0 0 0 0 0 0 0 2

Total # of neighbors = 1940
Ave neighs/atom = 0.68551237
Neighbor list builds = 166
Dangerous builds = 0

undump D1


clear
  using 1 OpenMP thread(s) per MPI task

next num

jump SELF startloop

include granular.in
### Simulation of contact between two chain

##################### Simulation setup ####################

units micro                              # units
dimension	3                            # dimension
boundary	p p p                        # boundary condition p: periodic
atom_style	sphere                       # atom style
#processors * * 1

####################### Parameter ##################################

variable ind equal ${num}
variable ind equal 6

variable lat1 equal 3*(2^(1/2))
variable lat2 equal 3
variable d1 equal 3                      # Diamter of particle at bottom chain
variable d2 equal 3                      # Diamter of particle at upper chain

variable n2e1 equal 500*v_lat1              # Half length of top chain. 1500 is number of particles
variable n1e1 equal v_n2e1*(v_lat1/v_lat2)              # Half length of bottom chain, which is 1.5 time larger than top chain
variable n1e2 equal -v_n1e1
variable n2e2 equal -v_n2e1
#variable x_shift equal -0.25*v_d1

variable den equal 2.2 #grams/cm^3      # micrometer^3=10^-12 cm^3 Density of materials

variable V1 equal (1/6)*PI*(v_d1^3)     # Volume of particle 1
variable V2 equal (1/6)*PI*(v_d2^3)     # Volume of particle 2

variable mass1 equal v_den*v_V1  # Mass of particle 1 (picograms)
variable mass2 equal v_den*v_V2  # Mass of particle 2 (picograms)

# E GPa to picogram/(micrometer-microsecond^2)= 10^3 Pa= 10^-6 GPa
# Force unit(picogram-micrometer/microsecond^2)=10^-9 N= 1nN
# Spring stiffness (force/distance) 10^-3 N/m


variable E equal (10+(5*v_ind))*(10^6)                    # Young's Modulus using for Hertz/material model
variable PR equal 0.3                          # Poisson's ratio using for Hertz/material model
variable Fn equal -1000                        # Force apply to each particles in top chain
variable dt equal 0.00001                      # Time step units microsecond
variable lgv equal 0.5                         #damping for langevin thermostat for slider



################### Creating the model #################################
lattice sc ${lat1}                                                               # Bottom chain type1
lattice sc 4.24264068711929                                                               
Lattice spacing in x,y,z = 4.2426407 4.2426407 4.2426407

region box block ${n1e2} ${n1e1} -50 50 -50 50 units box
region box block -3000.00000000001 ${n1e1} -50 50 -50 50 units box
region box block -3000.00000000001 3000.00000000001 -50 50 -50 50 units box
region substrate block ${n1e2} ${n1e1} -0.1 0.1 0 0.1 units box
region substrate block -3000.00000000001 ${n1e1} -0.1 0.1 0 0.1 units box
region substrate block -3000.00000000001 3000.00000000001 -0.1 0.1 0 0.1 units box

create_box 2 box
Created orthogonal box = (-3000 -50 -50) to (3000 50 50)
  4 by 1 by 1 MPI processor grid
create_atoms 1 region substrate
Created 1415 atoms
  using lattice units in orthogonal box = (-3000 -50 -50) to (3000 50 50)
  create_atoms CPU = 0.001 seconds

lattice sc ${lat2}                                                             # Top chain type2
lattice sc 3                                                             
Lattice spacing in x,y,z = 3 3 3

region slider1 block ${n2e2} ${n2e1} -0.1 0.1 5.9 6.1 units box
region slider1 block -2121.32034355965 ${n2e1} -0.1 0.1 5.9 6.1 units box
region slider1 block -2121.32034355965 2121.32034355965 -0.1 0.1 5.9 6.1 units box

create_atoms 2 region slider1
Created 1415 atoms
  using lattice units in orthogonal box = (-3000 -50 -50) to (3000 50 50)
  create_atoms CPU = 0.001 seconds


[...]
   1400000   6000           100            100            0.027225412    0.011014285    0              0.07066195     2.1798822e-05  0              1052.5871      1.6929675e-13  0              2.9966283    
   1500000   6000           100            100            0.027226935    0.011014517    0              0.070666287    1.0873474e-06  0              52.504114      1.6929675e-13  0              2.9966282    
   1600000   6000           100            100            0.027227805    0.011014652    0              0.070668763    6.942186e-09   0              0.33521332     1.6929675e-13  0              2.9966282    
   1700000   6000           100            100            0.027228195    0.011014713    0              0.070669872    6.9949315e-09  0              0.33776021     1.6929675e-13  0              2.9966281    
   1800000   6000           100            100            0.027228344    0.011014736    0              0.070670296    4.679272e-09   0              0.2259453      1.6929675e-13  0              2.9966281    
   1900000   6000           100            100            0.027228393    0.011014744    0              0.070670436    1.2591683e-09  0              0.06080073     1.6929675e-13  0              2.9966281    
   2000000   6000           100            100            0.027228407    0.011014746    0              0.070670475    2.2602981e-10  0              0.01091417     1.6929675e-13  0              2.9966281    
   2100000   6000           100            100            0.02722841     0.011014746    0              0.070670482    3.0177443e-11  0              0.0014571607   1.6929675e-13  0              2.9966281    
   2200000   6000           100            100            0.02722841     0.011014746    0              0.070670482    2.9861554e-12  0              0.00014419076  1.6929675e-13  0              2.9966281    
   2300000   6000           100            100            0.027228409    0.011014746    0              0.070670481    1.9424561e-13  0              9.3794254e-06  1.6929675e-13  0              2.9966281    
   2400000   6000           100            100            0.027228409    0.011014746    0              0.07067048     4.6664225e-15  0              2.2532484e-07  1.6929675e-13  0              2.9966281    
   2500000   6000           100            100            0.027228409    0.011014746    0              0.07067048     1.9524297e-16  0              9.4275845e-09  1.6929675e-13  0              2.9966281    
   2600000   6000           100            100            0.027228409    0.011014746    0              0.07067048     3.491998e-16   0              1.6861609e-08  1.6929675e-13  0              2.9966281    
   2700000   6000           100            100            0.027228409    0.011014746    0              0.07067048     6.4985807e-17  0              3.137932e-09   1.6929675e-13  0              2.9966281    
   2800000   6000           100            100            0.027228409    0.011014746    0              0.07067048     1.0342455e-17  0              4.9940016e-10  1.6929675e-13  0              2.9966281    
   2900000   6000           100            100            0.027228409    0.011014746    0              0.07067048     3.1573252e-18  0              1.5245593e-10  1.6929675e-13  0              2.9966281    
   3000000   6000           100            100            0.027228409    0.011014746    0              0.07067048     2.2759266e-19  0              1.0989635e-11  1.6929675e-13  0              2.9966281    
Loop time of 289.095 on 4 procs for 3000000 steps with 2830 atoms

Performance: 8965908.879 ns/day, 0.000 hours/ns, 10377.209 timesteps/s
100.0% CPU use with 4 MPI tasks x 1 OpenMP threads

MPI task timing breakdown:
Section |  min time  |  avg time  |  max time  |%varavg| %total
---------------------------------------------------------------
Pair    | 34.134     | 49.251     | 64.34      | 214.6 | 17.04
Neigh   | 0.92698    | 0.93891    | 0.95139    |   0.9 |  0.32
Comm    | 22.759     | 37.396     | 52.08      | 237.5 | 12.94
Output  | 0.274      | 0.2742     | 0.27444    |   0.0 |  0.09
Modify  | 140.04     | 160.03     | 180.35     | 156.5 | 55.36
Other   |            | 41.2       |            |       | 14.25

Nlocal:          707.5 ave         855 max         561 min
Histogram: 2 0 0 0 0 0 0 0 0 2
Nghost:              4 ave           5 max           3 min
Histogram: 1 0 0 0 0 2 0 0 0 1
Neighs:          485.5 ave         688 max         284 min
Histogram: 2 0 0 0 0 0 0 0 0 2

Total # of neighbors = 1942
Ave neighs/atom = 0.68621908
Neighbor list builds = 166
Dangerous builds = 0

undump D1


clear
  using 1 OpenMP thread(s) per MPI task

next num

jump SELF startloop

include granular.in
### Simulation of contact between two chain

##################### Simulation setup ####################

units micro                              # units
dimension	3                            # dimension
boundary	p p p                        # boundary condition p: periodic
atom_style	sphere                       # atom style
#processors * * 1

####################### Parameter ##################################

variable ind equal ${num}
variable ind equal 40

variable lat1 equal 3*(2^(1/2))
variable lat2 equal 3
variable d1 equal 3                      # Diamter of particle at bottom chain
variable d2 equal 3                      # Diamter of particle at upper chain

variable n2e1 equal 500*v_lat1              # Half length of top chain. 1500 is number of particles
variable n1e1 equal v_n2e1*(v_lat1/v_lat2)              # Half length of bottom chain, which is 1.5 time larger than top chain
variable n1e2 equal -v_n1e1
variable n2e2 equal -v_n2e1
#variable x_shift equal -0.25*v_d1

variable den equal 2.2 #grams/cm^3      # micrometer^3=10^-12 cm^3 Density of materials

variable V1 equal (1/6)*PI*(v_d1^3)     # Volume of particle 1
variable V2 equal (1/6)*PI*(v_d2^3)     # Volume of particle 2

variable mass1 equal v_den*v_V1  # Mass of particle 1 (picograms)
variable mass2 equal v_den*v_V2  # Mass of particle 2 (picograms)

# E GPa to picogram/(micrometer-microsecond^2)= 10^3 Pa= 10^-6 GPa
# Force unit(picogram-micrometer/microsecond^2)=10^-9 N= 1nN
# Spring stiffness (force/distance) 10^-3 N/m


variable E equal (10+(5*v_ind))*(10^6)                    # Young's Modulus using for Hertz/material model
variable PR equal 0.3                          # Poisson's ratio using for Hertz/material model
variable Fn equal -1000                        # Force apply to each particles in top chain
variable dt equal 0.00001                      # Time step units microsecond
variable lgv equal 0.5                         #damping for langevin thermostat for slider



################### Creating the model #################################
lattice sc ${lat1}                                                               # Bottom chain type1
lattice sc 4.24264068711929                                                               
Lattice spacing in x,y,z = 4.2426407 4.2426407 4.2426407

region box block ${n1e2} ${n1e1} -50 50 -50 50 units box
region box block -3000.00000000001 ${n1e1} -50 50 -50 50 units box
region box block -3000.00000000001 3000.00000000001 -50 50 -50 50 units box
region substrate block ${n1e2} ${n1e1} -0.1 0.1 0 0.1 units box
region substrate block -3000.00000000001 ${n1e1} -0.1 0.1 0 0.1 units box
region substrate block -3000.00000000001 3000.00000000001 -0.1 0.1 0 0.1 units box

create_box 2 box
Created orthogonal box = (-3000 -50 -50) to (3000 50 50)
  4 by 1 by 1 MPI processor grid
create_atoms 1 region substrate
Created 1415 atoms
  using lattice units in orthogonal box = (-3000 -50 -50) to (3000 50 50)
  create_atoms CPU = 0.000 seconds

lattice sc ${lat2}                                                             # Top chain type2
lattice sc 3                                                             
Lattice spacing in x,y,z = 3 3 3

region slider1 block ${n2e2} ${n2e1} -0.1 0.1 5.9 6.1 units box
region slider1 block -2121.32034355965 ${n2e1} -0.1 0.1 5.9 6.1 units box
region slider1 block -2121.32034355965 2121.32034355965 -0.1 0.1 5.9 6.1 units box

create_atoms 2 region slider1
Created 1415 atoms
  using lattice units in orthogonal box = (-3000 -50 -50) to (3000 50 50)
  create_atoms CPU = 0.001 seconds


set type 1 diameter ${d1}                    # Set mass and diameter for each particles type
set type 1 diameter 3                    
Setting atom values ...
  1415 settings made for diameter
set type 1 mass ${mass1}
set type 1 mass 31.101767270539
Setting atom values ...
  1415 settings made for mass
set type 2 diameter ${d2}                    # Set mass and diameter for each particles type
set type 2 diameter 3                    
Setting atom values ...
  1415 settings made for diameter
set type 2 mass ${mass2}
set type 2 mass 31.101767270539
Setting atom values ...
  1415 settings made for mass


group substrate region substrate           # Define gorup
1415 atoms in group substrate
group slider1 region slider1
1415 atoms in group slider1
#displace_atoms slider1 move ${x_shift} 0.0 0.0
#group substrate_slider union substrate slider1

########################## Potential ###################################
pair_style granular
pair_coeff 1 1 hertz/material 0.00000001 0.001 ${PR} tangential mindlin NULL 0.1 0.01 damping viscoelastic
pair_coeff 1 1 hertz/material 0.00000001 0.001 0.3 tangential mindlin NULL 0.1 0.01 damping viscoelastic
pair_coeff 2 2 hertz/material 0.00000001 0.001 ${PR} tangential mindlin NULL 0.1 0.01 damping viscoelastic
pair_coeff 2 2 hertz/material 0.00000001 0.001 0.3 tangential mindlin NULL 0.1 0.01 damping viscoelastic
pair_coeff 1 2 hertz/material ${E} 0.001 ${PR} tangential mindlin NULL 0.1 0.01 damping viscoelastic
pair_coeff 1 2 hertz/material 210000000 0.001 ${PR} tangential mindlin NULL 0.1 0.01 damping viscoelastic
pair_coeff 1 2 hertz/material 210000000 0.001 0.3 tangential mindlin NULL 0.1 0.01 damping viscoelastic

comm_modify     vel yes
neigh_modify    delay 0 every 1 check yes

### Compute properties ###

compute 1 slider1 com                      # Compute the center of mass of top chain

variable p0 equal "step"

variable slider_z equal "c_1[3]"          # output the position of top chain in z-direction


thermo 100000
thermo_style custom step lx ly lz press pxx pyy pzz ke pe temp c_1[1] c_1[2] c_1[3]

############### Fix ##################


############## Equilibrium the system with apply force ########################

fix force_slider1 slider1 setforce NULL 0 NULL                                # Fix top chain not to move in y-direction

fix f_sub substrate freeze                                                    # Freeze the bottom chain

#fix nve_slider1 slider1 nve                   # Integrate motion for slider1 group
#fix lan_slider slider1 langevin 0 0 ${lgv} 6987532
fix rigid_top slider1 rigid/nve group 1 slider1 langevin 0 0 ${lgv} 6987532   # NVE+langevin
fix rigid_top slider1 rigid/nve group 1 slider1 langevin 0 0 0.5 6987532   
  1 rigid bodies with 1415 atoms

fix add slider1 addforce 0 0 ${Fn} every 1                                    # Add force to top layer
fix add slider1 addforce 0 0 -1000 every 1                                    

timestep ${dt}
timestep 1e-05

dump 		D1 all custom 100000 Equi_${num}_*.dump id type diameter mass xu yu zu fx fy fz
dump 		D1 all custom 100000 Equi_40_*.dump id type diameter mass xu yu zu fx fy fz
dump_modify D1 format 5 %.12g
dump_modify D1 format 7 %.12g

run 3000000
Generated 0 of 1 mixed pair_coeff terms from geometric mixing rule
Neighbor list info ...
  update every 1 steps, delay 0 steps, check yes
  max neighbors/atom: 2000, page size: 100000
  master list distance cutoff = 3.1
  ghost atom cutoff = 3.1
  binsize = 1.55, bins = 3871 65 65
  1 neighbor lists, perpetual/occasional/extra = 1 0 0
  (1) pair granular, perpetual
      attributes: half, newton on, size, history
      pair build: half/size/bin/newton
      stencil: half/bin/3d
      bin: standard
Per MPI rank memory allocation (min/avg/max) = 30.95 | 30.95 | 30.96 Mbytes
   Step           Lx             Ly             Lz           Press           Pxx            Pyy            Pzz           KinEng         PotEng          Temp          c_1[1]         c_1[2]         c_1[3]    
         0   6000           100            100            9.6767651e-17  2.9030295e-16  0              0              0              0              0              1.6929675e-13  0              6            
    100000   6000           100            100            0.019319043    2.9030295e-16  0              0.057957129    837224.3       0              4.0426565e+13  1.6929675e-13  0              3.3209624    
    200000   6000           100            100            0.0071483819   2.9030295e-16  0              0.021445146    218464.14      0              1.0548852e+13  1.6929675e-13  0              3.0643213    
    300000   6000           100            100            0.0010684958   2.9030295e-16  0              0.0032054875   9270.0827      0              4.4761912e+11  1.6929675e-13  0              3.0434838    
    400000   6000           100            100           -0.00093348203  2.9030295e-16  0             -0.0028004461   11502.881      0              5.5543297e+11  1.6929675e-13  0              3.0004543    
    500000   6000           100            100            0.0014279956   0.00082087928  0              0.0034631074   429.70884      0              2.0749102e+10  1.6929675e-13  0              2.99933      
    600000   6000           100            100            0.035019418    0.010401188    0              0.094657067    236.9135       0              1.1439705e+10  1.6929675e-13  0              2.9961385    
    700000   6000           100            100            0.026953053    0.01129892     0              0.069560238    48.172477      0              2.3260765e+09  1.6929675e-13  0              2.9966895    
    800000   6000           100            100            0.025355308    0.010275988    0              0.065789937    0.81822748     0              39509277       1.6929675e-13  0              2.9967839    
    900000   6000           100            100            0.026709357    0.010711353    0              0.069416717    0.49940901     0              24114674       1.6929675e-13  0              2.9966982    
   1000000   6000           100            100            0.027302015    0.01086752     0              0.071038524    0.087405392    0              4220493.6      1.6929675e-13  0              2.9966598    
   1100000   6000           100            100            0.027262306    0.010861258    0              0.070925659    0.00075528099  0              36469.816      1.6929675e-13  0              2.9966622    
   1200000   6000           100            100            0.027176091    0.010848209    0              0.070680065    0.0021280183   0              102754.39      1.6929675e-13  0              2.996668     
   1300000   6000           100            100            0.027161698    0.010845944    0              0.07063915     4.704384e-05   0              2271.5787      1.6929675e-13  0              2.996669     
   1400000   6000           100            100            0.027170023    0.010847201    0              0.070662867    2.1614428e-05  0              1043.6834      1.6929675e-13  0              2.9966684    
   1500000   6000           100            100            0.02717387     0.010847793    0              0.070673818    3.9574398e-06  0              191.0906       1.6929675e-13  0              2.9966682    
   1600000   6000           100            100            0.027173629    0.01084776     0              0.070673127    2.9378058e-08  0              1.4185613      1.6929675e-13  0              2.9966682    
   1700000   6000           100            100            0.027173055    0.010847672    0              0.070671492    9.4535854e-08  0              4.5647981      1.6929675e-13  0              2.9966682    
   1800000   6000           100            100            0.027172956    0.010847657    0              0.070671211    2.2360273e-09  0              0.10796975     1.6929675e-13  0              2.9966682    
   1900000   6000           100            100            0.027173011    0.010847665    0              0.070671367    9.3819048e-10  0              0.045301861    1.6929675e-13  0              2.9966682    
   2000000   6000           100            100            0.027173037    0.010847669    0              0.070671441    1.7925642e-10  0              0.0086556511   1.6929675e-13  0              2.9966682    
   2100000   6000           100            100            0.027173035    0.010847669    0              0.070671437    1.1332745e-12  0              5.4721769e-05  1.6929675e-13  0              2.9966682    
   2200000   6000           100            100            0.027173031    0.010847668    0              0.070671426    4.1953078e-12  0              0.0002025764   1.6929675e-13  0              2.9966682    
   2300000   6000           100            100            0.027173031    0.010847668    0              0.070671424    1.0609694e-13  0              5.1230418e-06  1.6929675e-13  0              2.9966682    
   2400000   6000           100            100            0.027173031    0.010847668    0              0.070671425    4.0778477e-14  0              1.9690467e-06  1.6929675e-13  0              2.9966682    
   2500000   6000           100            100            0.027173031    0.010847668    0              0.070671425    8.1089033e-15  0              3.9154992e-07  1.6929675e-13  0              2.9966682    
   2600000   6000           100            100            0.027173031    0.010847668    0              0.070671425    5.1152074e-17  0              2.4699506e-09  1.6929675e-13  0              2.9966682    
   2700000   6000           100            100            0.027173031    0.010847668    0              0.070671425    1.5930898e-16  0              7.6924607e-09  1.6929675e-13  0              2.9966682    
   2800000   6000           100            100            0.027173031    0.010847668    0              0.070671425    1.5091956e-17  0              7.2873652e-10  1.6929675e-13  0              2.9966682    
   2900000   6000           100            100            0.027173031    0.010847668    0              0.070671425    9.851823e-18   0              4.7570928e-10  1.6929675e-13  0              2.9966682    
   3000000   6000           100            100            0.027173031    0.010847668    0              0.070671425    5.872809e-19   0              2.8357693e-11  1.6929675e-13  0              2.9966682    
Loop time of 287.393 on 4 procs for 3000000 steps with 2830 atoms

Performance: 9019009.810 ns/day, 0.000 hours/ns, 10438.669 timesteps/s
100.0% CPU use with 4 MPI tasks x 1 OpenMP threads

MPI task timing breakdown:
Section |  min time  |  avg time  |  max time  |%varavg| %total
---------------------------------------------------------------
Pair    | 34.062     | 49.022     | 63.942     | 211.6 | 17.06
Neigh   | 0.93579    | 0.94705    | 0.95851    |   0.8 |  0.33
Comm    | 22.41      | 37.063     | 52.192     | 236.8 | 12.90
Output  | 0.26478    | 0.26498    | 0.26521    |   0.0 |  0.09
Modify  | 138.48     | 158.78     | 179.63     | 157.7 | 55.25
Other   |            | 41.31      |            |       | 14.37

Nlocal:          707.5 ave         855 max         561 min
Histogram: 2 0 0 0 0 0 0 0 0 2
Nghost:              4 ave           5 max           3 min
Histogram: 1 0 0 0 0 2 0 0 0 1
Neighs:            485 ave         687 max         284 min
Histogram: 2 0 0 0 0 0 0 0 0 2

Total # of neighbors = 1940
Ave neighs/atom = 0.68551237
Neighbor list builds = 168
Dangerous builds = 0

undump D1


clear
  using 1 OpenMP thread(s) per MPI task

next num

jump SELF startloop
Total wall time: 3:15:36
