ITEM: TIMESTEP
1700000
ITEM: NUMBER OF ATOMS
40
ITEM: BOX BOUNDS pp pp pp
-3.0000000000000000e+01 3.0000000000000000e+01
-5.0000000000000000e+01 5.0000000000000000e+01
-5.0000000000000000e+01 5.0000000000000000e+01
ITEM: ATOMS id type diameter mass xu yu zu fx fy fz
1 1 3 31.1018 -30 0 0 0 0 0
2 1 3 31.1018 -27 0 0 0 0 0
3 1 3 31.1018 -24 0 0 0 0 0
4 1 3 31.1018 -21 0 0 0 0 0
5 1 3 31.1018 -18 0 0 0 0 0
6 1 3 31.1018 -15 0 0 0 0 0
7 1 3 31.1018 -12 0 0 0 0 0
8 1 3 31.1018 -9 0 0 0 0 0
9 1 3 31.1018 -6 0 0 0 0 0
10 1 3 31.1018 -3 0 0 0 0 0
11 1 3 31.1018 0 0 0 0 0 0
12 1 3 31.1018 3 0 0 0 0 0
13 1 3 31.1018 6 0 0 0 0 0
14 1 3 31.1018 9 0 0 0 0 0
15 1 3 31.1018 12 0 0 0 0 0
16 1 3 31.1018 15 0 0 0 0 0
17 1 3 31.1018 18 0 0 0 0 0
18 1 3 31.1018 21 0 0 0 0 0
19 1 3 31.1018 24 0 0 0 0 0
20 1 3 31.1018 27 0 0 0 0 0
21 2 3 31.1018 -30 0 2.99873421915 -1.79565e-15 0 0.00875983
22 2 3 31.1018 -27 0 2.99873421915 -1.79565e-15 0 0.00875983
23 2 3 31.1018 -24 0 2.99873421915 -1.79565e-15 0 0.00875983
24 2 3 31.1018 -21 0 2.99873421915 -1.79565e-15 0 0.00875983
25 2 3 31.1018 -18 0 2.99873421915 -1.79565e-15 0 0.00875983
26 2 3 31.1018 -15 0 2.99873421915 -1.79565e-15 0 0.00875983
27 2 3 31.1018 -12 0 2.99873421915 -1.79565e-15 0 0.00875983
28 2 3 31.1018 -9 0 2.99873421915 -1.79565e-15 0 0.00875983
29 2 3 31.1018 -6 0 2.99873421915 -1.79565e-15 0 0.00875983
30 2 3 31.1018 -3 0 2.99873421915 -1.79565e-15 0 0.00875983
31 2 3 31.1018 0 0 2.99873421915 -1.79565e-15 0 0.00875983
32 2 3 31.1018 3 0 2.99873421915 3.30349e-14 0 0.00875983
33 2 3 31.1018 6 0 2.99873421915 -1.79565e-15 0 0.00875983
34 2 3 31.1018 9 0 2.99873421915 -1.79565e-15 0 0.00875983
35 2 3 31.1018 12 0 2.99873421915 -1.79565e-15 0 0.00875983
36 2 3 31.1018 15 0 2.99873421915 -1.79565e-15 0 0.00875983
37 2 3 31.1018 18 0 2.99873421915 -1.79565e-15 0 0.00875983
38 2 3 31.1018 21 0 2.99873421915 -1.79565e-15 0 0.00875983
39 2 3 31.1018 24 0 2.99873421915 -1.79565e-15 0 0.00875983
40 2 3 31.1018 27 0 2.99873421915 -1.79565e-15 0 0.00875983
