LAMMPS (23 Jun 2022 - Update 1)
  using 1 OpenMP thread(s) per MPI task
Lattice spacing in x,y,z = 3 3 3
Created orthogonal box = (-30 -50 -50) to (30 50 50)
  1 by 2 by 2 MPI processor grid
Created 20 atoms
  using lattice units in orthogonal box = (-30 -50 -50) to (30 50 50)
  create_atoms CPU = 0.002 seconds
Lattice spacing in x,y,z = 3 3 3
Created 20 atoms
  using lattice units in orthogonal box = (-30 -50 -50) to (30 50 50)
  create_atoms CPU = 0.003 seconds
Setting atom values ...
  20 settings made for diameter
Setting atom values ...
  20 settings made for mass
Setting atom values ...
  20 settings made for diameter
Setting atom values ...
  20 settings made for mass
20 atoms in group substrate
20 atoms in group slider1
  1 rigid bodies with 20 atoms
Generated 0 of 1 mixed pair_coeff terms from geometric mixing rule
Neighbor list info ...
  update every 1 steps, delay 0 steps, check yes
  max neighbors/atom: 2000, page size: 100000
  master list distance cutoff = 3.1
  ghost atom cutoff = 3.1
  binsize = 1.55, bins = 39 65 65
  1 neighbor lists, perpetual/occasional/extra = 1 0 0
  (1) pair granular, perpetual
      attributes: half, newton on, size, history
      pair build: half/size/bin/newton
      stencil: half/bin/3d
      bin: standard
Setting up Verlet run ...
  Unit style    : micro
  Current step  : 0
  Time step     : 1e-05
Per MPI rank memory allocation (min/avg/max) = 12.89 | 16.36 | 17.52 Mbytes
   Step           Lx             Ly             Lz           Press           Pxx            Pyy            Pzz           KinEng         PotEng          Temp          c_1[1]         c_1[2]         c_1[3]    
         0   60             100            100            0              0              0              0              0              0              0             -1.5            0              6            
    100000   60             100            100            0.027055765    1.6523576e-21  0              0.081167296    11660.013      0              5.6302028e+11 -1.5            0              3.3320057    
    200000   60             100            100            0.0094733749  -8.0468233e-21  0              0.028420125    2787.4442      0              1.3459571e+11 -1.5            0              3.0818796    
    300000   60             100            100            0.00070467758 -1.4808549e-20  0              0.0021140327   31.473073      0              1.5197221e+09 -1.5            0              3.049059     
    400000   60             100            100            0.19591248    -1.5406556e-18  0              0.58773745     1.8818763      0              90869074      -1.5            0              2.9927403    
    500000   60             100            100           -6.8418672e-05 -9.7251882e-21  0             -0.00020525602  0.33558414     0              16204157      -1.5            0              3.0006499    
    600000   60             100            100            0.040504731   -3.2074694e-19  0              0.12151419     4.9334059      0              2.3821652e+08 -1.5            0              2.9974522    
    700000   60             100            100            0.026113468   -2.0806898e-19  0              0.078340405    0.029535646    0              1426170.6     -1.5            0              2.9981078    
    800000   60             100            100            0.035944225   -2.8467183e-19  0              0.10783268     0.012112565    0              584872.4      -1.5            0              2.9976578    
    900000   60             100            100            0.032624326   -2.5847707e-19  0              0.097872977    0.0077429001   0              373876.94     -1.5            0              2.9978034    
   1000000   60             100            100            0.033399087   -2.6459473e-19  0              0.10019726     0.0017824015   0              86065.792     -1.5            0              2.9977694    
   1100000   60             100            100            0.033341875   -2.6397745e-19  0              0.10002563     0.0002393833   0              11558.963     -1.5            0              2.9977717    
   1200000   60             100            100            0.033274653   -2.6350912e-19  0              0.09982396     1.8823511e-05  0              908.91998     -1.5            0              2.9977748    
   1300000   60             100            100            0.033326123   -2.6390534e-19  0              0.09997837     5.2703808e-07  0              25.448783     -1.5            0              2.9977725    
   1400000   60             100            100            0.033301796   -2.637102e-19   0              0.099905388    1.3296028e-08  0              0.64201763    -1.5            0              2.9977735    
   1500000   60             100            100            0.033310634   -2.6378563e-19  0              0.099931902    2.9945484e-08  0              1.4459602     -1.5            0              2.9977731    
   1600000   60             100            100            0.033308184   -2.6376642e-19  0              0.099924552    9.3673932e-09  0              0.45231789    -1.5            0              2.9977733    
   1700000   60             100            100            0.03330858    -2.6376728e-19  0              0.09992574     1.5565989e-09  0              0.075162588   -1.5            0              2.9977732    
   1800000   60             100            100            0.033308654   -2.6377147e-19  0              0.099925962    1.5710674e-10  0              0.0075861222  -1.5            0              2.9977732    
   1900000   60             100            100            0.033308552   -2.6376995e-19  0              0.099925657    7.8667561e-12  0              0.0003798575  -1.5            0              2.9977732    
   2000000   60             100            100            0.033308608   -2.6377082e-19  0              0.099925825    1.6023217e-14  0              7.7370383e-07 -1.5            0              2.9977732    
   2100000   60             100            100            0.033308586   -2.6376818e-19  0              0.099925757    8.8255644e-14  0              4.2615492e-06 -1.5            0              2.9977732    
   2200000   60             100            100            0.033308593   -2.637707e-19   0              0.099925779    4.4122486e-14  0              2.130517e-06  -1.5            0              2.9977732    
   2300000   60             100            100            0.033308591   -2.6376978e-19  0              0.099925774    9.2625923e-15  0              4.4725743e-07 -1.5            0              2.9977732    
   2400000   60             100            100            0.033308591   -2.6375793e-19  0              0.099925774    1.1659298e-15  0              5.6298578e-08 -1.5            0              2.9977732    
   2500000   60             100            100            0.033308592   -2.6377042e-19  0              0.099925775    8.4923675e-17  0              4.1006604e-09 -1.5            0              2.9977732    
   2600000   60             100            100            0.033308591   -2.6377083e-19  0              0.099925774    1.410147e-18   0              6.8090953e-11 -1.5            0              2.9977732    
   2700000   60             100            100            0.033308592   -2.6377037e-19  0              0.099925775    7.0585866e-19  0              3.4083389e-11 -1.5            0              2.9977732    
   2800000   60             100            100            0.033308592   -2.6376658e-19  0              0.099925775    1.226624e-19   0              5.9229281e-12 -1.5            0              2.9977732    
   2900000   60             100            100            0.033308592   -2.6377079e-19  0              0.099925775    3.8543051e-20  0              1.861106e-12  -1.5            0              2.9977732    
   3000000   60             100            100            0.033308592   -2.6377039e-19  0              0.099925775    1.276044e-22   0              6.1615599e-15 -1.5            0              2.9977732    
Loop time of 62.9136 on 4 procs for 3000000 steps with 40 atoms

Performance: 41199357.988 ns/day, 0.000 hours/ns, 47684.442 timesteps/s
99.9% CPU use with 4 MPI tasks x 1 OpenMP threads

MPI task timing breakdown:
Section |  min time  |  avg time  |  max time  |%varavg| %total
---------------------------------------------------------------
Pair    | 0.2238     | 2.3204     | 8.3438     | 228.3 |  3.69
Neigh   | 0.011676   | 0.012269   | 0.013699   |   0.8 |  0.02
Comm    | 26.34      | 31.87      | 38.247     |  76.5 | 50.66
Output  | 0.11391    | 0.11414    | 0.11435    |   0.1 |  0.18
Modify  | 14.675     | 20.337     | 27.629     | 127.6 | 32.33
Other   |            | 8.26       |            |       | 13.13

Nlocal:             10 ave          40 max           0 min
Histogram: 3 0 0 0 0 0 0 0 0 1
Nghost:             36 ave          46 max           6 min
Histogram: 1 0 0 0 0 0 0 0 0 3
Neighs:             15 ave          60 max           0 min
Histogram: 3 0 0 0 0 0 0 0 0 1

Total # of neighbors = 60
Ave neighs/atom = 1.5
Neighbor list builds = 168
Dangerous builds = 0
  using 1 OpenMP thread(s) per MPI task
Lattice spacing in x,y,z = 3 3 3
Created orthogonal box = (-30 -50 -50) to (30 50 50)
  1 by 2 by 2 MPI processor grid
Created 20 atoms
  using lattice units in orthogonal box = (-30 -50 -50) to (30 50 50)
  create_atoms CPU = 0.000 seconds
Lattice spacing in x,y,z = 3 3 3
Created 20 atoms
  using lattice units in orthogonal box = (-30 -50 -50) to (30 50 50)
  create_atoms CPU = 0.004 seconds
Setting atom values ...
  20 settings made for diameter
Setting atom values ...
  20 settings made for mass
Setting atom values ...
  20 settings made for diameter
Setting atom values ...
  20 settings made for mass
20 atoms in group substrate
20 atoms in group slider1
  1 rigid bodies with 20 atoms
Generated 0 of 1 mixed pair_coeff terms from geometric mixing rule
Neighbor list info ...
  update every 1 steps, delay 0 steps, check yes
  max neighbors/atom: 2000, page size: 100000
  master list distance cutoff = 3.1
  ghost atom cutoff = 3.1
  binsize = 1.55, bins = 39 65 65
  1 neighbor lists, perpetual/occasional/extra = 1 0 0
  (1) pair granular, perpetual
      attributes: half, newton on, size, history
      pair build: half/size/bin/newton
      stencil: half/bin/3d
      bin: standard
Setting up Verlet run ...
  Unit style    : micro
  Current step  : 0
  Time step     : 1e-05
Per MPI rank memory allocation (min/avg/max) = 12.89 | 16.36 | 17.52 Mbytes
   Step           Lx             Ly             Lz           Press           Pxx            Pyy            Pzz           KinEng         PotEng          Temp          c_1[1]         c_1[2]         c_1[3]    
         0   60             100            100            0              0              0              0              0              0              0             -1.5            0              6            
    100000   60             100            100            0.027184749    1.0244204e-21  0              0.081554247    11744.365      0              5.6709336e+11 -1.5            0              3.3283195    
    200000   60             100            100            0.0097758808  -7.0951586e-21  0              0.029327642    2928.3471      0              1.413994e+11  -1.5            0              3.0756359    
    300000   60             100            100            0.001164204   -1.1924096e-20  0              0.0034926121   80.973962      0              3.9099428e+09 -1.5            0              3.0479685    
    400000   60             100            100           -0.0013363442  -1.2922799e-20  0             -0.0040090326   167.23765      0              8.0753075e+09 -1.5            0              3.0020354    
    500000   60             100            100            0.018246636   -1.5771157e-19  0              0.054739909    40.390732      0              1.9503239e+09 -1.5            0              2.9987382    
    600000   60             100            100            0.044097304   -3.4826572e-19  0              0.13229191     4.988607       0              2.4088198e+08 -1.5            0              2.9977928    
    700000   60             100            100            0.024883133   -1.9881508e-19  0              0.074649398    0.00075242918  0              36332.112     -1.5            0              2.998487     
    800000   60             100            100            0.032853344   -2.5995326e-19  0              0.098560032    0.11111684     0              5365434.6     -1.5            0              2.9981774    
    900000   60             100            100            0.034438731   -2.7285417e-19  0              0.10331619     0.0013610504   0              65720.251     -1.5            0              2.9981205    
   1000000   60             100            100            0.033517169   -2.655026e-19   0              0.10055151     0.0016217405   0              78308.045     -1.5            0              2.9981545    
   1100000   60             100            100            0.033188938   -2.6290485e-19  0              0.099566814    0.00010847039  0              5237.6467     -1.5            0              2.9981665    
   1200000   60             100            100            0.03326838    -2.6349551e-19  0              0.099805139    1.6196481e-05  0              782.0701      -1.5            0              2.9981635    
   1300000   60             100            100            0.033323617   -2.6391879e-19  0              0.09997085     3.8289337e-06  0              184.88551     -1.5            0              2.9981614    
   1400000   60             100            100            0.033320389   -2.6389863e-19  0              0.099961166    7.7315856e-08  0              3.733306      -1.5            0              2.9981616    
   1500000   60             100            100            0.033312479   -2.6383531e-19  0              0.099937437    9.1473483e-08  0              4.4169271     -1.5            0              2.9981619    
   1600000   60             100            100            0.033311839   -2.638289e-19   0              0.099935518    1.26507e-11    0              0.00061085703 -1.5            0              2.9981619    
   1700000   60             100            100            0.033312822   -2.638255e-19   0              0.099938466    1.6334827e-09  0              0.078875033   -1.5            0              2.9981619    
   1800000   60             100            100            0.033313042   -2.6383867e-19  0              0.099939127    3.5773008e-11  0              0.0017273505  -1.5            0              2.9981618    
   1900000   60             100            100            0.033312939   -2.638383e-19   0              0.099938818    2.1639072e-11  0              0.0010448733  -1.5            0              2.9981618    
   2000000   60             100            100            0.033312896   -2.6383856e-19  0              0.099938687    2.0790303e-12  0              0.00010038893 -1.5            0              2.9981618    
   2100000   60             100            100            0.033312903   -2.638386e-19   0              0.09993871     1.873877e-13   0              9.0482816e-06 -1.5            0              2.9981618    
   2200000   60             100            100            0.03331291    -2.6383962e-19  0              0.099938731    6.4454928e-14  0              3.1122978e-06 -1.5            0              2.9981618    
   2300000   60             100            100            0.03331291    -2.6383874e-19  0              0.099938731    5.7527909e-16  0              2.7778169e-08 -1.5            0              2.9981618    
   2400000   60             100            100            0.033312909   -2.6383095e-19  0              0.099938728    1.413012e-15   0              6.8229295e-08 -1.5            0              2.9981618    
   2500000   60             100            100            0.033312909   -2.6383963e-19  0              0.099938728    3.8615293e-18  0              1.8645943e-10 -1.5            0              2.9981618    
   2600000   60             100            100            0.033312909   -2.6383779e-19  0              0.099938728    2.2790104e-17  0              1.1004526e-09 -1.5            0              2.9981618    
   2700000   60             100            100            0.033312909   -2.6383889e-19  0              0.099938728    6.9005738e-19  0              3.3320401e-11 -1.5            0              2.9981618    
   2800000   60             100            100            0.033312909   -2.6383856e-19  0              0.099938728    5.2063121e-21  0              2.5139418e-13 -1.5            0              2.9981618    
   2900000   60             100            100            0.033312909   -2.6383868e-19  0              0.099938728    2.4777542e-20  0              1.1964188e-12 -1.5            0              2.9981618    
   3000000   60             100            100            0.033312909   -2.638383e-19   0              0.099938728    1.1693868e-19  0              5.6465502e-12 -1.5            0              2.9981618    
Loop time of 62.5894 on 4 procs for 3000000 steps with 40 atoms

Performance: 41412733.149 ns/day, 0.000 hours/ns, 47931.404 timesteps/s
99.9% CPU use with 4 MPI tasks x 1 OpenMP threads

MPI task timing breakdown:
Section |  min time  |  avg time  |  max time  |%varavg| %total
---------------------------------------------------------------
Pair    | 0.22324    | 2.2288     | 7.9825     | 222.5 |  3.56
Neigh   | 0.011756   | 0.01243    | 0.013952   |   0.8 |  0.02
Comm    | 26.211     | 31.84      | 38.201     |  77.2 | 50.87
Output  | 0.11438    | 0.11458    | 0.11477    |   0.0 |  0.18
Modify  | 14.42      | 20.076     | 27.356     | 128.4 | 32.08
Other   |            | 8.318      |            |       | 13.29

Nlocal:             10 ave          40 max           0 min
Histogram: 3 0 0 0 0 0 0 0 0 1
Nghost:             36 ave          46 max           6 min
Histogram: 1 0 0 0 0 0 0 0 0 3
Neighs:             15 ave          60 max           0 min
Histogram: 3 0 0 0 0 0 0 0 0 1

Total # of neighbors = 60
Ave neighs/atom = 1.5
Neighbor list builds = 168
Dangerous builds = 0
  using 1 OpenMP thread(s) per MPI task
Lattice spacing in x,y,z = 3 3 3
Created orthogonal box = (-30 -50 -50) to (30 50 50)
  1 by 2 by 2 MPI processor grid
Created 20 atoms
  using lattice units in orthogonal box = (-30 -50 -50) to (30 50 50)
  create_atoms CPU = 0.001 seconds
Lattice spacing in x,y,z = 3 3 3
Created 20 atoms
  using lattice units in orthogonal box = (-30 -50 -50) to (30 50 50)
  create_atoms CPU = 0.003 seconds
Setting atom values ...
  20 settings made for diameter
Setting atom values ...
  20 settings made for mass
Setting atom values ...
  20 settings made for diameter
Setting atom values ...
  20 settings made for mass
20 atoms in group substrate
20 atoms in group slider1
  1 rigid bodies with 20 atoms
Generated 0 of 1 mixed pair_coeff terms from geometric mixing rule
Neighbor list info ...
  update every 1 steps, delay 0 steps, check yes
  max neighbors/atom: 2000, page size: 100000
  master list distance cutoff = 3.1
  ghost atom cutoff = 3.1
  binsize = 1.55, bins = 39 65 65
  1 neighbor lists, perpetual/occasional/extra = 1 0 0
  (1) pair granular, perpetual
      attributes: half, newton on, size, history
      pair build: half/size/bin/newton
      stencil: half/bin/3d
      bin: standard
Setting up Verlet run ...
  Unit style    : micro
  Current step  : 0
  Time step     : 1e-05
Per MPI rank memory allocation (min/avg/max) = 12.89 | 16.36 | 17.52 Mbytes
   Step           Lx             Ly             Lz           Press           Pxx            Pyy            Pzz           KinEng         PotEng          Temp          c_1[1]         c_1[2]         c_1[3]    
         0   60             100            100            0              0              0              0              0              0              0             -1.5            0              6            
    100000   60             100            100            0.027274858    8.5355265e-23  0              0.081824575    11803.443      0              5.6994601e+11 -1.5            0              3.3257258    
    200000   60             100            100            0.0099877515  -1.1738154e-20  0              0.029963255    3028.3425      0              1.4622782e+11 -1.5            0              3.0711518    
    300000   60             100            100            0.0014945695  -1.244456e-20   0              0.0044837086   128.34433      0              6.1972884e+09 -1.5            0              3.0465287    
    400000   60             100            100           -0.00080728328 -1.2607918e-20  0             -0.0024218498   54.043189      0              2.6095522e+09 -1.5            0              3.008093     
    500000   60             100            100            0.01189994    -9.7528833e-20  0              0.03569982     39.982916      0              1.9306319e+09 -1.5            0              2.9992383    
    600000   60             100            100            0.044291615   -3.5059828e-19  0              0.13287485     5.5740725      0              2.6915201e+08 -1.5            0              2.9980928    
    700000   60             100            100            0.024296704   -1.9323901e-19  0              0.072890113    0.074752249    0              3609518.6     -1.5            0              2.9987155    
    800000   60             100            100            0.034299952   -2.7209192e-19  0              0.10289986     0.11228775     0              5421973.6     -1.5            0              2.9983836    
    900000   60             100            100            0.03461589    -2.7476808e-19  0              0.10384767     0.00055214553  0              26661.132     -1.5            0              2.9983751    
   1000000   60             100            100            0.033289833   -2.6418716e-19  0              0.099869499    0.0022205017   0              107220.08     -1.5            0              2.9984169    
   1100000   60             100            100            0.033138433   -2.6291938e-19  0              0.099415298    1.4610654e-06  0              70.549618     -1.5            0              2.9984216    
   1200000   60             100            100            0.033302521   -2.6420785e-19  0              0.099907562    3.9184424e-05  0              1892.0756     -1.5            0              2.9984163    
   1300000   60             100            100            0.03333849    -2.6447704e-19  0              0.10001547     5.6237651e-07  0              27.155149     -1.5            0              2.9984152    
   1400000   60             100            100            0.033319649   -2.6433167e-19  0              0.099958947    6.0274502e-07  0              29.1044       -1.5            0              2.9984158    
   1500000   60             100            100            0.033313022   -2.6428115e-19  0              0.099939066    3.0323483e-08  0              1.4642125     -1.5            0              2.998416     
   1600000   60             100            100            0.033314949   -2.6429185e-19  0              0.099944847    7.8643013e-09  0              0.37973897    -1.5            0              2.998416     
   1700000   60             100            100            0.033316026   -2.6430079e-19  0              0.099948077    1.0149234e-09  0              0.04900702    -1.5            0              2.9984159    
   1800000   60             100            100            0.033315866   -2.6430306e-19  0              0.099947598    8.1160534e-11  0              0.0039189517  -1.5            0              2.9984159    
   1900000   60             100            100            0.033315705   -2.6430048e-19  0              0.099947116    2.6546182e-11  0              0.0012818201  -1.5            0              2.9984159    
   2000000   60             100            100            0.033315712   -2.6430172e-19  0              0.099947136    5.4139013e-13  0              2.6141792e-05 -1.5            0              2.9984159    
   2100000   60             100            100            0.033315734   -2.643011e-19   0              0.099947203    5.8621403e-13  0              2.8306178e-05 -1.5            0              2.9984159    
   2200000   60             100            100            0.033315735   -2.6430077e-19  0              0.099947206    7.6813432e-16  0              3.7090458e-08 -1.5            0              2.9984159    
   2300000   60             100            100            0.033315733   -2.6429783e-19  0              0.099947198    1.127446e-14   0              5.4440334e-07 -1.5            0              2.9984159    
   2400000   60             100            100            0.033315732   -2.6430203e-19  0              0.099947196    3.5918286e-17  0              1.7343655e-09 -1.5            0              2.9984159    
   2500000   60             100            100            0.033315733   -2.6430078e-19  0              0.099947198    1.9120394e-16  0              9.2325539e-09 -1.5            0              2.9984159    
   2600000   60             100            100            0.033315733   -2.6430114e-19  0              0.099947198    4.4377025e-18  0              2.1428077e-10 -1.5            0              2.9984159    
   2700000   60             100            100            0.033315733   -2.6430192e-19  0              0.099947198    2.0619167e-18  0              9.9562579e-11 -1.5            0              2.9984159    
   2800000   60             100            100            0.033315733   -2.6430181e-19  0              0.099947198    2.8828727e-19  0              1.392036e-11  -1.5            0              2.9984159    
   2900000   60             100            100            0.033315733   -2.6429887e-19  0              0.099947198    1.4757836e-20  0              7.1260309e-13 -1.5            0              2.9984159    
   3000000   60             100            100            0.033315733   -2.6429774e-19  0              0.099947198    3.4644094e-20  0              1.6728393e-12 -1.5            0              2.9984159    
Loop time of 62.5771 on 4 procs for 3000000 steps with 40 atoms

Performance: 41420885.760 ns/day, 0.000 hours/ns, 47940.840 timesteps/s
99.9% CPU use with 4 MPI tasks x 1 OpenMP threads

MPI task timing breakdown:
Section |  min time  |  avg time  |  max time  |%varavg| %total
---------------------------------------------------------------
Pair    | 0.22453    | 2.2485     | 8.0375     | 222.9 |  3.59
Neigh   | 0.011383   | 0.011984   | 0.013404   |   0.8 |  0.02
Comm    | 26.206     | 31.796     | 38.2       |  77.4 | 50.81
Output  | 0.11172    | 0.1119     | 0.11207    |   0.0 |  0.18
Modify  | 14.421     | 20.132     | 27.408     | 128.3 | 32.17
Other   |            | 8.277      |            |       | 13.23

Nlocal:             10 ave          40 max           0 min
Histogram: 3 0 0 0 0 0 0 0 0 1
Nghost:             36 ave          46 max           6 min
Histogram: 1 0 0 0 0 0 0 0 0 3
Neighs:             15 ave          60 max           0 min
Histogram: 3 0 0 0 0 0 0 0 0 1

Total # of neighbors = 60
Ave neighs/atom = 1.5
Neighbor list builds = 168
Dangerous builds = 0
  using 1 OpenMP thread(s) per MPI task
Lattice spacing in x,y,z = 3 3 3
Created orthogonal box = (-30 -50 -50) to (30 50 50)
  1 by 2 by 2 MPI processor grid
Created 20 atoms
  using lattice units in orthogonal box = (-30 -50 -50) to (30 50 50)
  create_atoms CPU = 0.001 seconds
Lattice spacing in x,y,z = 3 3 3
Created 20 atoms
  using lattice units in orthogonal box = (-30 -50 -50) to (30 50 50)
  create_atoms CPU = 0.003 seconds
Setting atom values ...
  20 settings made for diameter
Setting atom values ...
  20 settings made for mass
Setting atom values ...
  20 settings made for diameter
Setting atom values ...
  20 settings made for mass
20 atoms in group substrate
20 atoms in group slider1
  1 rigid bodies with 20 atoms
Generated 0 of 1 mixed pair_coeff terms from geometric mixing rule
Neighbor list info ...
  update every 1 steps, delay 0 steps, check yes
  max neighbors/atom: 2000, page size: 100000
  master list distance cutoff = 3.1
  ghost atom cutoff = 3.1
  binsize = 1.55, bins = 39 65 65
  1 neighbor lists, perpetual/occasional/extra = 1 0 0
  (1) pair granular, perpetual
      attributes: half, newton on, size, history
      pair build: half/size/bin/newton
      stencil: half/bin/3d
      bin: standard
Setting up Verlet run ...
  Unit style    : micro
  Current step  : 0
  Time step     : 1e-05
Per MPI rank memory allocation (min/avg/max) = 12.89 | 16.36 | 17.52 Mbytes
   Step           Lx             Ly             Lz           Press           Pxx            Pyy            Pzz           KinEng         PotEng          Temp          c_1[1]         c_1[2]         c_1[3]    
         0   60             100            100            0              0              0              0              0              0              0             -1.5            0              6            
    100000   60             100            100            0.02734263    -1.3874136e-21  0              0.082027891    11847.956      0              5.720954e+11  -1.5            0              3.3237651    
    200000   60             100            100            0.010147372   -6.6006722e-21  0              0.030442117    3104.3812      0              1.4989946e+11 -1.5            0              3.0677133    
    300000   60             100            100            0.0017477318  -9.3326658e-21  0              0.0052431954   170.61687      0              8.2384783e+09 -1.5            0              3.045087     
    400000   60             100            100           -0.00037568283 -1.1370267e-20  0             -0.0011270485   10.755727      0              5.1935556e+08 -1.5            0              3.0106673    
    500000   60             100            100            0.041247107   -3.4045088e-19  0              0.12374132     46.679523      0              2.2539871e+09 -1.5            0              2.998363     
    600000   60             100            100            0.010919537   -8.8504808e-20  0              0.032758612    1.8184227      0              87805124      -1.5            0              2.9993269    
    700000   60             100            100            0.031482375   -2.5076322e-19  0              0.094447126    0.92476705     0              44653691      -1.5            0              2.9986525    
    800000   60             100            100            0.034150874   -2.7039578e-19  0              0.10245262     0.12318754     0              5948285.3     -1.5            0              2.9985728    
    900000   60             100            100            0.033051562   -2.6211989e-19  0              0.099154685    0.016856133    0              813922.36     -1.5            0              2.9986051    
   1000000   60             100            100            0.033379515   -2.64359e-19    0              0.10013854     0.0023301722   0              112515.68     -1.5            0              2.9985953    
   1100000   60             100            100            0.03330722    -2.6384376e-19  0              0.099921659    0.00031877314  0              15392.414     -1.5            0              2.9985976    
   1200000   60             100            100            0.033316865   -2.6388586e-19  0              0.099950596    4.3263051e-05  0              2089.0179     -1.5            0              2.9985972    
   1300000   60             100            100            0.033319787   -2.6390957e-19  0              0.099959361    5.8210121e-06  0              281.07584     -1.5            0              2.9985972    
   1400000   60             100            100            0.033316364   -2.6387804e-19  0              0.099949093    7.7644326e-07  0              37.491666     -1.5            0              2.9985973    
   1500000   60             100            100            0.033318485   -2.6389544e-19  0              0.099955455    1.0266695e-07  0              4.9574195     -1.5            0              2.9985972    
   1600000   60             100            100            0.033317392   -2.6388782e-19  0              0.099952176    1.3453936e-08  0              0.64964244    -1.5            0              2.9985972    
   1700000   60             100            100            0.033317908   -2.6388848e-19  0              0.099953723    1.7468417e-09  0              0.084348734   -1.5            0              2.9985972    
   1800000   60             100            100            0.033317677   -2.6388801e-19  0              0.099953031    2.2463286e-10  0              0.010846717   -1.5            0              2.9985972    
   1900000   60             100            100            0.033317777   -2.6388996e-19  0              0.09995333     2.8595063e-11  0              0.0013807533  -1.5            0              2.9985972    
   2000000   60             100            100            0.033317735   -2.6388973e-19  0              0.099953204    3.6010487e-12  0              0.00017388175 -1.5            0              2.9985972    
   2100000   60             100            100            0.033317752   -2.6389009e-19  0              0.099953256    4.4826942e-13  0              2.1645326e-05 -1.5            0              2.9985972    
   2200000   60             100            100            0.033317745   -2.6389032e-19  0              0.099953235    5.5117092e-14  0              2.6614071e-06 -1.5            0              2.9985972    
   2300000   60             100            100            0.033317748   -2.6389011e-19  0              0.099953243    6.6691723e-15  0              3.2203046e-07 -1.5            0              2.9985972    
   2400000   60             100            100            0.033317747   -2.6388631e-19  0              0.09995324     7.9643939e-16  0              3.8457208e-08 -1.5            0              2.9985972    
   2500000   60             100            100            0.033317747   -2.6388666e-19  0              0.099953241    9.3610044e-17  0              4.520094e-09  -1.5            0              2.9985972    
   2600000   60             100            100            0.033317747   -2.6389045e-19  0              0.099953241    1.1238707e-17  0              5.4267694e-10 -1.5            0              2.9985972    
   2700000   60             100            100            0.033317747   -2.6389072e-19  0              0.099953241    2.6399346e-19  0              1.2747299e-11 -1.5            0              2.9985972    
   2800000   60             100            100            0.033317747   -2.6389053e-19  0              0.099953241    1.4981743e-19  0              7.2341476e-12 -1.5            0              2.9985972    
   2900000   60             100            100            0.033317747   -2.6388988e-19  0              0.099953241    1.9656981e-22  0              9.4916528e-15 -1.5            0              2.9985972    
   3000000   60             100            100            0.033317747   -2.6389143e-19  0              0.099953241    1.1449188e-19  0              5.5284032e-12 -1.5            0              2.9985972    
Loop time of 62.514 on 4 procs for 3000000 steps with 40 atoms

Performance: 41462693.721 ns/day, 0.000 hours/ns, 47989.229 timesteps/s
99.9% CPU use with 4 MPI tasks x 1 OpenMP threads

MPI task timing breakdown:
Section |  min time  |  avg time  |  max time  |%varavg| %total
---------------------------------------------------------------
Pair    | 0.2235     | 2.2543     | 8.0481     | 222.8 |  3.61
Neigh   | 0.011727   | 0.01236    | 0.013842   |   0.8 |  0.02
Comm    | 26.185     | 31.773     | 38.16      |  77.2 | 50.83
Output  | 0.11047    | 0.11066    | 0.11084    |   0.0 |  0.18
Modify  | 14.455     | 20.061     | 27.328     | 127.6 | 32.09
Other   |            | 8.302      |            |       | 13.28

Nlocal:             10 ave          40 max           0 min
Histogram: 3 0 0 0 0 0 0 0 0 1
Nghost:             36 ave          46 max           6 min
Histogram: 1 0 0 0 0 0 0 0 0 3
Neighs:             15 ave          60 max           0 min
Histogram: 3 0 0 0 0 0 0 0 0 1

Total # of neighbors = 60
Ave neighs/atom = 1.5
Neighbor list builds = 168
Dangerous builds = 0
  using 1 OpenMP thread(s) per MPI task
Lattice spacing in x,y,z = 3 3 3
Created orthogonal box = (-30 -50 -50) to (30 50 50)
  1 by 2 by 2 MPI processor grid
Created 20 atoms
  using lattice units in orthogonal box = (-30 -50 -50) to (30 50 50)
  create_atoms CPU = 0.001 seconds
Lattice spacing in x,y,z = 3 3 3
Created 20 atoms
  using lattice units in orthogonal box = (-30 -50 -50) to (30 50 50)
  create_atoms CPU = 0.003 seconds
Setting atom values ...
  20 settings made for diameter
Setting atom values ...
  20 settings made for mass
Setting atom values ...
  20 settings made for diameter
Setting atom values ...
  20 settings made for mass
20 atoms in group substrate
20 atoms in group slider1
  1 rigid bodies with 20 atoms
Generated 0 of 1 mixed pair_coeff terms from geometric mixing rule
Neighbor list info ...
  update every 1 steps, delay 0 steps, check yes
  max neighbors/atom: 2000, page size: 100000
  master list distance cutoff = 3.1
  ghost atom cutoff = 3.1
  binsize = 1.55, bins = 39 65 65
  1 neighbor lists, perpetual/occasional/extra = 1 0 0
  (1) pair granular, perpetual
      attributes: half, newton on, size, history
      pair build: half/size/bin/newton
      stencil: half/bin/3d
      bin: standard
Setting up Verlet run ...
  Unit style    : micro
  Current step  : 0
  Time step     : 1e-05
Per MPI rank memory allocation (min/avg/max) = 12.89 | 16.36 | 17.52 Mbytes
   Step           Lx             Ly             Lz           Press           Pxx            Pyy            Pzz           KinEng         PotEng          Temp          c_1[1]         c_1[2]         c_1[3]    
         0   60             100            100            0              0              0              0              0              0              0             -1.5            0              6            
    100000   60             100            100            0.027396131   -8.6963837e-21  0              0.082188394    11883.145      0              5.7379456e+11 -1.5            0              3.3222111    
    200000   60             100            100            0.010273543   -9.8241005e-21  0              0.030820628    3164.9089      0              1.5282212e+11 -1.5            0              3.0649589    
    300000   60             100            100            0.0019502786  -1.5956754e-20  0              0.0058508359   207.8953       0              1.003852e+10  -1.5            0              3.0437347    
    400000   60             100            100           -1.6936876e-05 -1.2768478e-20  0             -5.0810628e-05  0.019046619    0              919693.07     -1.5            0              3.0115577    
    500000   60             100            100           -3.5841877e-05 -1.0751257e-20  0             -0.00010752563  0.089912995    0              4341576.7     -1.5            0              3.0016756    
    600000   60             100            100            0.020231289   -1.6571964e-19  0              0.060693868    5.8887212      0              2.8434527e+08 -1.5            0              2.9991012    
    700000   60             100            100            0.022444342   -1.7954757e-19  0              0.067333025    0.024675861    0              1191509       -1.5            0              2.9990279    
    800000   60             100            100            0.029465592   -2.3415914e-19  0              0.088396776    0.01945609     0              939464.95     -1.5            0              2.9988343    
    900000   60             100            100            0.032225478   -2.5565497e-19  0              0.096676434    0.009133384    0              441018.43     -1.5            0              2.9987624    
   1000000   60             100            100            0.033113803   -2.6245537e-19  0              0.09934141     0.002157802    0              104192.54     -1.5            0              2.9987396    
   1100000   60             100            100            0.033329881   -2.6411707e-19  0              0.099989643    0.00033579956  0              16214.559     -1.5            0              2.998734     
   1200000   60             100            100            0.033354201   -2.6426344e-19  0              0.1000626      3.6419626e-05  0              1758.5734     -1.5            0              2.9987334    
   1300000   60             100            100            0.03334131    -2.6415471e-19  0              0.10002393     2.4922754e-06  0              120.34306     -1.5            0              2.9987337    
   1400000   60             100            100            0.033329361   -2.640579e-19   0              0.099988084    6.0124526e-08  0              2.9031982     -1.5            0              2.998734     
   1500000   60             100            100            0.033323073   -2.6401014e-19  0              0.09996922     2.3670486e-09  0              0.11429631    -1.5            0              2.9987341    
   1600000   60             100            100            0.033320462   -2.6398973e-19  0              0.099961386    4.3391464e-09  0              0.20952185    -1.5            0              2.9987342    
   1700000   60             100            100            0.033319557   -2.6398144e-19  0              0.09995867     1.4218267e-09  0              0.068654923   -1.5            0              2.9987342    
   1800000   60             100            100            0.033319301   -2.6398028e-19  0              0.099957903    2.7034483e-10  0              0.013053984   -1.5            0              2.9987342    
   1900000   60             100            100            0.033319252   -2.6398017e-19  0              0.099957755    3.5456898e-11  0              0.0017120867  -1.5            0              2.9987342    
   2000000   60             100            100            0.033319253   -2.6398026e-19  0              0.099957759    3.1670971e-12  0              0.00015292778 -1.5            0              2.9987342    
   2100000   60             100            100            0.033319261   -2.6397948e-19  0              0.099957782    1.5304882e-13  0              7.3901797e-06 -1.5            0              2.9987342    
   2200000   60             100            100            0.033319266   -2.6397708e-19  0              0.099957797    4.9357169e-16  0              2.3832811e-08 -1.5            0              2.9987342    
   2300000   60             100            100            0.033319268   -2.6397953e-19  0              0.099957804    1.4345476e-15  0              6.9269171e-08 -1.5            0              2.9987342    
   2400000   60             100            100            0.033319269   -2.6397981e-19  0              0.099957807    8.1771053e-16  0              3.9484315e-08 -1.5            0              2.9987342    
   2500000   60             100            100            0.033319269   -2.6397992e-19  0              0.099957807    1.9727934e-16  0              9.5259132e-09 -1.5            0              2.9987342    
   2600000   60             100            100            0.033319269   -2.6398019e-19  0              0.099957808    3.0965331e-17  0              1.495205e-09  -1.5            0              2.9987342    
   2700000   60             100            100            0.033319269   -2.6397237e-19  0              0.099957808    2.1785295e-18  0              1.0519339e-10 -1.5            0              2.9987342    
   2800000   60             100            100            0.033319269   -2.6397902e-19  0              0.099957808    4.8299275e-19  0              2.3321991e-11 -1.5            0              2.9987342    
   2900000   60             100            100            0.033319269   -2.6396875e-19  0              0.099957808    6.8162043e-20  0              3.2913011e-12 -1.5            0              2.9987342    
   3000000   60             100            100            0.033319269   -2.6397466e-19  0              0.099957808    4.5217152e-20  0              2.1833745e-12 -1.5            0              2.9987342    
Loop time of 62.2944 on 4 procs for 3000000 steps with 40 atoms

Performance: 41608858.985 ns/day, 0.000 hours/ns, 48158.402 timesteps/s
99.9% CPU use with 4 MPI tasks x 1 OpenMP threads

MPI task timing breakdown:
Section |  min time  |  avg time  |  max time  |%varavg| %total
---------------------------------------------------------------
Pair    | 0.22534    | 2.1789     | 7.743      | 217.7 |  3.50
Neigh   | 0.011754   | 0.012366   | 0.013737   |   0.7 |  0.02
Comm    | 26.079     | 31.723     | 38.013     |  77.3 | 50.92
Output  | 0.11091    | 0.11108    | 0.11124    |   0.0 |  0.18
Modify  | 14.449     | 20.031     | 27.225     | 127.3 | 32.16
Other   |            | 8.238      |            |       | 13.22

Nlocal:             10 ave          40 max           0 min
Histogram: 3 0 0 0 0 0 0 0 0 1
Nghost:             36 ave          46 max           6 min
Histogram: 1 0 0 0 0 0 0 0 0 3
Neighs:             15 ave          60 max           0 min
Histogram: 3 0 0 0 0 0 0 0 0 1

Total # of neighbors = 60
Ave neighs/atom = 1.5
Neighbor list builds = 168
Dangerous builds = 0
  using 1 OpenMP thread(s) per MPI task
Lattice spacing in x,y,z = 3 3 3
Created orthogonal box = (-30 -50 -50) to (30 50 50)
  1 by 2 by 2 MPI processor grid
Created 20 atoms
  using lattice units in orthogonal box = (-30 -50 -50) to (30 50 50)
  create_atoms CPU = 0.000 seconds
Lattice spacing in x,y,z = 3 3 3
Created 20 atoms
  using lattice units in orthogonal box = (-30 -50 -50) to (30 50 50)
  create_atoms CPU = 0.003 seconds
Setting atom values ...
  20 settings made for diameter
Setting atom values ...
  20 settings made for mass
Setting atom values ...
  20 settings made for diameter
Setting atom values ...
  20 settings made for mass
20 atoms in group substrate
20 atoms in group slider1
  1 rigid bodies with 20 atoms
Generated 0 of 1 mixed pair_coeff terms from geometric mixing rule
Neighbor list info ...
  update every 1 steps, delay 0 steps, check yes
  max neighbors/atom: 2000, page size: 100000
  master list distance cutoff = 3.1
  ghost atom cutoff = 3.1
  binsize = 1.55, bins = 39 65 65
  1 neighbor lists, perpetual/occasional/extra = 1 0 0
  (1) pair granular, perpetual
      attributes: half, newton on, size, history
      pair build: half/size/bin/newton
      stencil: half/bin/3d
      bin: standard
Setting up Verlet run ...
  Unit style    : micro
  Current step  : 0
  Time step     : 1e-05
Per MPI rank memory allocation (min/avg/max) = 12.89 | 16.36 | 17.52 Mbytes
   Step           Lx             Ly             Lz           Press           Pxx            Pyy            Pzz           KinEng         PotEng          Temp          c_1[1]         c_1[2]         c_1[3]    
         0   60             100            100            0              0              0              0              0              0              0             -1.5            0              6            
    100000   60             100            100            0.027439838   -6.5509494e-21  0              0.082319515    11911.925      0              5.7518421e+11 -1.5            0              3.3209376    
    200000   60             100            100            0.010376715   -9.0853614e-21  0              0.031130145    3214.6802      0              1.552254e+11  -1.5            0              3.0626827    
    300000   60             100            100            0.0021174296  -1.0555862e-20  0              0.0063522889   240.84637      0              1.1629609e+10 -1.5            0              3.0424916    
    400000   60             100            100            0.00028681571 -1.0229611e-20  0              0.00086044714  5.6754842      0              2.7404882e+08 -1.5            0              3.0115662    
    500000   60             100            100            0.00071016331 -1.1017684e-20  0              0.0021304899   32.886506      0              1.5879717e+09 -1.5            0              3.0001887    
    600000   60             100            100            0.033666683   -2.6993762e-19  0              0.10100005     7.6913945      0              3.7138991e+08 -1.5            0              2.9988418    
    700000   60             100            100            0.045805387   -3.6235657e-19  0              0.13741616     0.043098783    0              2081086       -1.5            0              2.9985688    
    800000   60             100            100            0.029471814   -2.3373541e-19  0              0.088415443    0.036853625    0              1779529.6     -1.5            0              2.9989325    
    900000   60             100            100            0.034603827   -2.7411842e-19  0              0.10381148     0.0079483101   0              383795.45     -1.5            0              2.9988127    
   1000000   60             100            100            0.032901804   -2.6074311e-19  0              0.098705413    0.0013893372   0              67086.121     -1.5            0              2.9988517    
   1100000   60             100            100            0.03345309    -2.6497051e-19  0              0.10035927     0.00023095543  0              11152.011     -1.5            0              2.998839     
   1200000   60             100            100            0.033280181   -2.6358868e-19  0              0.099840544    3.6455389e-05  0              1760.3003     -1.5            0              2.998843     
   1300000   60             100            100            0.033331922   -2.6399488e-19  0              0.099995766    5.540481e-06   0              267.53        -1.5            0              2.9988418    
   1400000   60             100            100            0.03331755    -2.6388137e-19  0              0.099952649    8.1277157e-07  0              39.24583      -1.5            0              2.9988421    
   1500000   60             100            100            0.033321047   -2.6390875e-19  0              0.099963141    1.1546907e-07  0              5.5755882     -1.5            0              2.998842     
   1600000   60             100            100            0.033320438   -2.6390402e-19  0              0.099961315    1.590938e-08   0              0.76820701    -1.5            0              2.998842     
   1700000   60             100            100            0.03332041    -2.6390377e-19  0              0.099961229    2.1271042e-09  0              0.10271025    -1.5            0              2.998842     
   1800000   60             100            100            0.033320513   -2.6390458e-19  0              0.099961539    2.7588141e-10  0              0.013321326   -1.5            0              2.998842     
   1900000   60             100            100            0.033320441   -2.6390402e-19  0              0.099961324    3.4662878e-11  0              0.0016737463  -1.5            0              2.998842     
   2000000   60             100            100            0.03332048    -2.6390405e-19  0              0.099961439    4.2087741e-12  0              0.00020322664 -1.5            0              2.998842     
   2100000   60             100            100            0.033320461   -2.6390305e-19  0              0.099961384    4.9201403e-13  0              2.3757596e-05 -1.5            0              2.998842     
   2200000   60             100            100            0.03332047    -2.6390227e-19  0              0.099961409    5.5021918e-14  0              2.6568115e-06 -1.5            0              2.998842     
   2300000   60             100            100            0.033320466   -2.6390299e-19  0              0.099961398    5.8428824e-15  0              2.8213188e-07 -1.5            0              2.998842     
   2400000   60             100            100            0.033320467   -2.6390341e-19  0              0.099961402    5.7693538e-16  0              2.7858145e-08 -1.5            0              2.998842     
   2500000   60             100            100            0.033320467   -2.6389991e-19  0              0.099961401    5.3558885e-17  0              2.5861669e-09 -1.5            0              2.998842     
   2600000   60             100            100            0.033320467   -2.6390349e-19  0              0.099961401    3.7159987e-18  0              1.7943228e-10 -1.5            0              2.998842     
   2700000   60             100            100            0.033320467   -2.6390447e-19  0              0.099961401    9.6498211e-19  0              4.6595533e-11 -1.5            0              2.998842     
   2800000   60             100            100            0.033320467   -2.638969e-19   0              0.099961401    3.5622998e-19  0              1.7201071e-11 -1.5            0              2.998842     
   2900000   60             100            100            0.033320467   -2.6390475e-19  0              0.099961401    2.8831564e-20  0              1.392173e-12  -1.5            0              2.998842     
   3000000   60             100            100            0.033320467   -2.6390411e-19  0              0.099961401    1.3315251e-19  0              6.4294583e-12 -1.5            0              2.998842     
Loop time of 62.6209 on 4 procs for 3000000 steps with 40 atoms

Performance: 41391918.378 ns/day, 0.000 hours/ns, 47907.313 timesteps/s
99.9% CPU use with 4 MPI tasks x 1 OpenMP threads

MPI task timing breakdown:
Section |  min time  |  avg time  |  max time  |%varavg| %total
---------------------------------------------------------------
Pair    | 0.22727    | 2.2693     | 8.136      | 224.9 |  3.62
Neigh   | 0.012007   | 0.012639   | 0.014122   |   0.8 |  0.02
Comm    | 26.214     | 31.808     | 38.153     |  76.9 | 50.79
Output  | 0.11101    | 0.1112     | 0.11138    |   0.0 |  0.18
Modify  | 14.419     | 20.175     | 27.462     | 128.6 | 32.22
Other   |            | 8.245      |            |       | 13.17

Nlocal:             10 ave          40 max           0 min
Histogram: 3 0 0 0 0 0 0 0 0 1
Nghost:             36 ave          46 max           6 min
Histogram: 1 0 0 0 0 0 0 0 0 3
Neighs:             15 ave          60 max           0 min
Histogram: 3 0 0 0 0 0 0 0 0 1

Total # of neighbors = 60
Ave neighs/atom = 1.5
Neighbor list builds = 170
Dangerous builds = 0
  using 1 OpenMP thread(s) per MPI task
Lattice spacing in x,y,z = 3 3 3
Created orthogonal box = (-30 -50 -50) to (30 50 50)
  1 by 2 by 2 MPI processor grid
Created 20 atoms
  using lattice units in orthogonal box = (-30 -50 -50) to (30 50 50)
  create_atoms CPU = 0.000 seconds
Lattice spacing in x,y,z = 3 3 3
Created 20 atoms
  using lattice units in orthogonal box = (-30 -50 -50) to (30 50 50)
  create_atoms CPU = 0.003 seconds
Setting atom values ...
  20 settings made for diameter
Setting atom values ...
  20 settings made for mass
Setting atom values ...
  20 settings made for diameter
Setting atom values ...
  20 settings made for mass
20 atoms in group substrate
20 atoms in group slider1
  1 rigid bodies with 20 atoms
Generated 0 of 1 mixed pair_coeff terms from geometric mixing rule
Neighbor list info ...
  update every 1 steps, delay 0 steps, check yes
  max neighbors/atom: 2000, page size: 100000
  master list distance cutoff = 3.1
  ghost atom cutoff = 3.1
  binsize = 1.55, bins = 39 65 65
  1 neighbor lists, perpetual/occasional/extra = 1 0 0
  (1) pair granular, perpetual
      attributes: half, newton on, size, history
      pair build: half/size/bin/newton
      stencil: half/bin/3d
      bin: standard
Setting up Verlet run ...
  Unit style    : micro
  Current step  : 0
  Time step     : 1e-05
Per MPI rank memory allocation (min/avg/max) = 12.89 | 16.36 | 17.52 Mbytes
   Step           Lx             Ly             Lz           Press           Pxx            Pyy            Pzz           KinEng         PotEng          Temp          c_1[1]         c_1[2]         c_1[3]    
         0   60             100            100            0              0              0              0              0              0              0             -1.5            0              6            
    100000   60             100            100            0.02747647    -5.0445669e-21  0              0.082429409    11936.067      0              5.7634997e+11 -1.5            0              3.3198674    
    200000   60             100            100            0.010463255   -1.0321318e-20  0              0.031389764    3256.6185      0              1.5725045e+11 -1.5            0              3.0607568    
    300000   60             100            100            0.0022586539  -1.1070202e-20  0              0.0067759616   270.16108      0              1.3045112e+10 -1.5            0              3.0413548    
    400000   60             100            100            0.00054820739 -1.146881e-20   0              0.0016446222   19.923514      0              9.6203518e+08 -1.5            0              3.0110909    
    500000   60             100            100            0.13293941    -1.0471639e-18  0              0.39881824     6.3673255      0              3.0745536e+08 -1.5            0              2.9973103    
    600000   60             100            100            0.017104187   -1.4019778e-19  0              0.051312561    6.0003504      0              2.8973544e+08 -1.5            0              2.9993217    
    700000   60             100            100            0.0417908     -3.3018429e-19  0              0.1253724      0.64755046     0              31267894      -1.5            0              2.9987531    
    800000   60             100            100            0.036707004   -2.9149148e-19  0              0.11012101     0.076214306    0              3680116.1     -1.5            0              2.9988588    
    900000   60             100            100            0.032287211   -2.5655121e-19  0              0.096861634    0.012957937    0              625692.4      -1.5            0              2.998952     
   1000000   60             100            100            0.032734275   -2.5965333e-19  0              0.098202826    0.00048586224  0              23460.549     -1.5            0              2.998942     
   1100000   60             100            100            0.033377755   -2.6458612e-19  0              0.10013326     0.00034425135  0              16622.666     -1.5            0              2.9989282    
   1200000   60             100            100            0.033409052   -2.6486845e-19  0              0.10022716     1.1590615e-07  0              5.5966932     -1.5            0              2.9989276    
   1300000   60             100            100            0.033326313   -2.6422875e-19  0              0.09997894     6.5418464e-06  0              315.88235     -1.5            0              2.9989294    
   1400000   60             100            100            0.03331029    -2.6409777e-19  0              0.099930869    1.0211643e-07  0              4.930837      -1.5            0              2.9989297    
   1500000   60             100            100            0.033319185   -2.6416576e-19  0              0.099957555    9.0153246e-08  0              4.3531776     -1.5            0              2.9989295    
   1600000   60             100            100            0.033322625   -2.6419333e-19  0              0.099967874    7.4209373e-09  0              0.3583305     -1.5            0              2.9989295    
   1700000   60             100            100            0.033321913   -2.6418805e-19  0              0.099965739    8.0075025e-10  0              0.038665364   -1.5            0              2.9989295    
   1800000   60             100            100            0.033321346   -2.6418355e-19  0              0.099964038    2.4638281e-10  0              0.011896944   -1.5            0              2.9989295    
   1900000   60             100            100            0.033321361   -2.6418363e-19  0              0.099964084    2.507693e-12   0              0.00012108752 -1.5            0              2.9989295    
   2000000   60             100            100            0.03332144    -2.6418286e-19  0              0.099964321    5.5192941e-12  0              0.00026650696 -1.5            0              2.9989295    
   2100000   60             100            100            0.033321449   -2.6418514e-19  0              0.099964348    1.4782887e-14  0              7.1381273e-07 -1.5            0              2.9989295    
   2200000   60             100            100            0.03332144    -2.6418421e-19  0              0.09996432     9.0157896e-14  0              4.3534021e-06 -1.5            0              2.9989295    
   2300000   60             100            100            0.033321437   -2.641806e-19   0              0.099964312    3.5357967e-15  0              1.7073097e-07 -1.5            0              2.9989295    
   2400000   60             100            100            0.033321438   -2.6418229e-19  0              0.099964315    1.0247201e-15  0              4.9480067e-08 -1.5            0              2.9989295    
   2500000   60             100            100            0.033321439   -2.6418409e-19  0              0.099964317    1.5859272e-16  0              7.6578749e-09 -1.5            0              2.9989295    
   2600000   60             100            100            0.033321439   -2.6418473e-19  0              0.099964316    6.4512035e-18  0              3.1150553e-10 -1.5            0              2.9989295    
   2700000   60             100            100            0.033321439   -2.6418423e-19  0              0.099964316    4.5559945e-18  0              2.1999267e-10 -1.5            0              2.9989295    
   2800000   60             100            100            0.033321439   -2.6418407e-19  0              0.099964316    5.894583e-19   0              2.8462832e-11 -1.5            0              2.9989295    
   2900000   60             100            100            0.033321439   -2.6418421e-19  0              0.099964316    6.4681785e-22  0              3.1232519e-14 -1.5            0              2.9989295    
   3000000   60             100            100            0.033321439   -2.6418347e-19  0              0.099964316    4.0155202e-20  0              1.938951e-12  -1.5            0              2.9989295    
Loop time of 62.8249 on 4 procs for 3000000 steps with 40 atoms

Performance: 41257523.948 ns/day, 0.000 hours/ns, 47751.764 timesteps/s
99.9% CPU use with 4 MPI tasks x 1 OpenMP threads

MPI task timing breakdown:
Section |  min time  |  avg time  |  max time  |%varavg| %total
---------------------------------------------------------------
Pair    | 0.23752    | 2.2699     | 8.0906     | 223.1 |  3.61
Neigh   | 0.012286   | 0.013109   | 0.014783   |   0.9 |  0.02
Comm    | 26.465     | 32.069     | 38.464     |  77.0 | 51.05
Output  | 0.11014    | 0.11034    | 0.11052    |   0.0 |  0.18
Modify  | 14.412     | 20.137     | 27.482     | 129.1 | 32.05
Other   |            | 8.225      |            |       | 13.09

Nlocal:             10 ave          40 max           0 min
Histogram: 3 0 0 0 0 0 0 0 0 1
Nghost:             36 ave          46 max           6 min
Histogram: 1 0 0 0 0 0 0 0 0 3
Neighs:             15 ave          60 max           0 min
Histogram: 3 0 0 0 0 0 0 0 0 1

Total # of neighbors = 60
Ave neighs/atom = 1.5
Neighbor list builds = 172
Dangerous builds = 0
  using 1 OpenMP thread(s) per MPI task
Lattice spacing in x,y,z = 3 3 3
Created orthogonal box = (-30 -50 -50) to (30 50 50)
  1 by 2 by 2 MPI processor grid
Created 20 atoms
  using lattice units in orthogonal box = (-30 -50 -50) to (30 50 50)
  create_atoms CPU = 0.000 seconds
Lattice spacing in x,y,z = 3 3 3
Created 20 atoms
  using lattice units in orthogonal box = (-30 -50 -50) to (30 50 50)
  create_atoms CPU = 0.003 seconds
Setting atom values ...
  20 settings made for diameter
Setting atom values ...
  20 settings made for mass
Setting atom values ...
  20 settings made for diameter
Setting atom values ...
  20 settings made for mass
20 atoms in group substrate
20 atoms in group slider1
  1 rigid bodies with 20 atoms
Generated 0 of 1 mixed pair_coeff terms from geometric mixing rule
Neighbor list info ...
  update every 1 steps, delay 0 steps, check yes
  max neighbors/atom: 2000, page size: 100000
  master list distance cutoff = 3.1
  ghost atom cutoff = 3.1
  binsize = 1.55, bins = 39 65 65
  1 neighbor lists, perpetual/occasional/extra = 1 0 0
  (1) pair granular, perpetual
      attributes: half, newton on, size, history
      pair build: half/size/bin/newton
      stencil: half/bin/3d
      bin: standard
Setting up Verlet run ...
  Unit style    : micro
  Current step  : 0
  Time step     : 1e-05
Per MPI rank memory allocation (min/avg/max) = 12.89 | 16.36 | 17.52 Mbytes
   Step           Lx             Ly             Lz           Press           Pxx            Pyy            Pzz           KinEng         PotEng          Temp          c_1[1]         c_1[2]         c_1[3]    
         0   60             100            100            0              0              0              0              0              0              0             -1.5            0              6            
    100000   60             100            100            0.027507784   -5.3942285e-21  0              0.082523352    11956.722      0              5.7734729e+11 -1.5            0              3.3189507    
    200000   60             100            100            0.010537276   -1.0551353e-20  0              0.031611828    3292.6275      0              1.589892e+11  -1.5            0              3.0590977    
    300000   60             100            100            0.0023801606  -1.0005763e-20  0              0.0071404819   296.42587      0              1.4313344e+10 -1.5            0              3.0403152    
    400000   60             100            100            0.00077624059 -1.2602595e-20  0              0.0023287218   38.697109      0              1.8685449e+09 -1.5            0              3.0103447    
    500000   60             100            100            0.035574263   -2.9680659e-19  0              0.10672279     52.030918      0              2.5123868e+09 -1.5            0              2.9989422    
    600000   60             100            100            0.0029389921  -3.0109768e-20  0              0.0088169762   0.1085078      0              5239453.5     -1.5            0              2.9998006    
    700000   60             100            100            0.045639564   -3.6059521e-19  0              0.13691869     0.2784672      0              13446185      -1.5            0              2.9987681    
    800000   60             100            100            0.038409651   -3.0439593e-19  0              0.11522895     0.0024382189   0              117732.86     -1.5            0              2.9989028    
    900000   60             100            100            0.035190695   -2.788963e-19   0              0.10557208     3.4114239e-06  0              164.72545     -1.5            0              2.9989651    
   1000000   60             100            100            0.034005678   -2.6941231e-19  0              0.10201704     1.1519115e-05  0              556.21684     -1.5            0              2.9989885    
   1100000   60             100            100            0.033571504   -2.6588299e-19  0              0.10071451     6.9873256e-06  0              337.39295     -1.5            0              2.9989971    
   1200000   60             100            100            0.033412768   -2.6461403e-19  0              0.1002383      2.1776147e-06  0              105.14922     -1.5            0              2.9990003    
   1300000   60             100            100            0.033354957   -2.6416667e-19  0              0.10006487     5.2557094e-07  0              25.37794      -1.5            0              2.9990014    
   1400000   60             100            100            0.033334003   -2.6400235e-19  0              0.10000201     1.104202e-07   0              5.3317962     -1.5            0              2.9990019    
   1500000   60             100            100            0.033326447   -2.6394648e-19  0              0.099979341    2.1240815e-08  0              1.025643      -1.5            0              2.999002     
   1600000   60             100            100            0.033323738   -2.6392202e-19  0              0.099971214    3.8418175e-09  0              0.18550762    -1.5            0              2.9990021    
   1700000   60             100            100            0.033322772   -2.6391245e-19  0              0.099968317    6.6368646e-10  0              0.032047044   -1.5            0              2.9990021    
   1800000   60             100            100            0.03332243    -2.6391494e-19  0              0.09996729     1.1061658e-10  0              0.0053412786  -1.5            0              2.9990021    
   1900000   60             100            100            0.03332231    -2.6391315e-19  0              0.099966929    1.7908716e-11  0              0.00086474778 -1.5            0              2.9990021    
   2000000   60             100            100            0.033322268   -2.6391497e-19  0              0.099966803    2.8297876e-12  0              0.00013664032 -1.5            0              2.9990021    
   2100000   60             100            100            0.033322253   -2.6391539e-19  0              0.099966759    4.3811796e-13  0              2.1155149e-05 -1.5            0              2.9990021    
   2200000   60             100            100            0.033322248   -2.6391428e-19  0              0.099966744    6.6688123e-14  0              3.2201308e-06 -1.5            0              2.9990021    
   2300000   60             100            100            0.033322246   -2.6391394e-19  0              0.099966739    9.9727148e-15  0              4.8154671e-07 -1.5            0              2.9990021    
   2400000   60             100            100            0.033322246   -2.6391397e-19  0              0.099966737    1.4686844e-15  0              7.0917513e-08 -1.5            0              2.9990021    
   2500000   60             100            100            0.033322246   -2.6391403e-19  0              0.099966737    2.1412599e-16  0              1.0339378e-08 -1.5            0              2.9990021    
   2600000   60             100            100            0.033322246   -2.6391367e-19  0              0.099966737    3.0141376e-17  0              1.4554192e-09 -1.5            0              2.9990021    
   2700000   60             100            100            0.033322246   -2.6391364e-19  0              0.099966737    3.9899729e-18  0              1.9266151e-10 -1.5            0              2.9990021    
   2800000   60             100            100            0.033322246   -2.6391381e-19  0              0.099966737    3.676458e-20   0              1.77523e-12   -1.5            0              2.9990021    
   2900000   60             100            100            0.033322246   -2.6391398e-19  0              0.099966737    6.8428792e-20  0              3.3041815e-12 -1.5            0              2.9990021    
   3000000   60             100            100            0.033322246   -2.6391406e-19  0              0.099966737    5.6600523e-21  0              2.7330367e-13 -1.5            0              2.9990021    
Loop time of 62.8058 on 4 procs for 3000000 steps with 40 atoms

Performance: 41270044.248 ns/day, 0.000 hours/ns, 47766.255 timesteps/s
99.9% CPU use with 4 MPI tasks x 1 OpenMP threads

MPI task timing breakdown:
Section |  min time  |  avg time  |  max time  |%varavg| %total
---------------------------------------------------------------
Pair    | 0.22631    | 2.2734     | 8.1217     | 224.0 |  3.62
Neigh   | 0.012285   | 0.012889   | 0.014324   |   0.7 |  0.02
Comm    | 26.328     | 32.015     | 38.5       |  78.1 | 50.97
Output  | 0.11166    | 0.11186    | 0.11202    |   0.0 |  0.18
Modify  | 14.453     | 20.158     | 27.559     | 129.4 | 32.10
Other   |            | 8.235      |            |       | 13.11

Nlocal:             10 ave          40 max           0 min
Histogram: 3 0 0 0 0 0 0 0 0 1
Nghost:             36 ave          46 max           6 min
Histogram: 1 0 0 0 0 0 0 0 0 3
Neighs:             15 ave          60 max           0 min
Histogram: 3 0 0 0 0 0 0 0 0 1

Total # of neighbors = 60
Ave neighs/atom = 1.5
Neighbor list builds = 172
Dangerous builds = 0
  using 1 OpenMP thread(s) per MPI task
Lattice spacing in x,y,z = 3 3 3
Created orthogonal box = (-30 -50 -50) to (30 50 50)
  1 by 2 by 2 MPI processor grid
Created 20 atoms
  using lattice units in orthogonal box = (-30 -50 -50) to (30 50 50)
  create_atoms CPU = 0.000 seconds
Lattice spacing in x,y,z = 3 3 3
Created 20 atoms
  using lattice units in orthogonal box = (-30 -50 -50) to (30 50 50)
  create_atoms CPU = 0.003 seconds
Setting atom values ...
  20 settings made for diameter
Setting atom values ...
  20 settings made for mass
Setting atom values ...
  20 settings made for diameter
Setting atom values ...
  20 settings made for mass
20 atoms in group substrate
20 atoms in group slider1
  1 rigid bodies with 20 atoms
Generated 0 of 1 mixed pair_coeff terms from geometric mixing rule
Neighbor list info ...
  update every 1 steps, delay 0 steps, check yes
  max neighbors/atom: 2000, page size: 100000
  master list distance cutoff = 3.1
  ghost atom cutoff = 3.1
  binsize = 1.55, bins = 39 65 65
  1 neighbor lists, perpetual/occasional/extra = 1 0 0
  (1) pair granular, perpetual
      attributes: half, newton on, size, history
      pair build: half/size/bin/newton
      stencil: half/bin/3d
      bin: standard
Setting up Verlet run ...
  Unit style    : micro
  Current step  : 0
  Time step     : 1e-05
Per MPI rank memory allocation (min/avg/max) = 12.89 | 16.36 | 17.52 Mbytes
   Step           Lx             Ly             Lz           Press           Pxx            Pyy            Pzz           KinEng         PotEng          Temp          c_1[1]         c_1[2]         c_1[3]    
         0   60             100            100            0              0              0              0              0              0              0             -1.5            0              6            
    100000   60             100            100            0.02753498     1.0926346e-21  0              0.08260494     11974.672      0              5.7821404e+11 -1.5            0              3.3181529    
    200000   60             100            100            0.010601602   -6.2871197e-21  0              0.031804806    3324.0228      0              1.6050516e+11 -1.5            0              3.0576469    
    300000   60             100            100            0.0024862635  -1.1281316e-20  0              0.0074587906   320.12683      0              1.5457779e+10 -1.5            0              3.0393618    
    400000   60             100            100            0.00097750932 -1.0809656e-20  0              0.002932528    59.761919      0              2.8856892e+09 -1.5            0              3.009448     
    500000   60             100            100           -0.00045837885 -1.0860394e-20  0             -0.0013751366   16.370133      0              7.9045514e+08 -1.5            0              3.0012482    
    600000   60             100            100            0.048403712   -3.8844398e-19  0              0.14521113     7.29814        0              3.5240106e+08 -1.5            0              2.9987937    
    700000   60             100            100            0.040930011   -3.2519436e-19  0              0.12279003     0.85794449     0              41427069      -1.5            0              2.9989278    
    800000   60             100            100            0.037758451   -2.9923069e-19  0              0.11327535     0.050745166    0              2450302.5     -1.5            0              2.9989826    
    900000   60             100            100            0.035271611   -2.7958267e-19  0              0.10581483     0.00022759122  0              10989.566     -1.5            0              2.9990273    
   1000000   60             100            100            0.033799218   -2.6792933e-19  0              0.10139765     0.0016014923   0              77330.33      -1.5            0              2.9990545    
   1100000   60             100            100            0.033319151   -2.6408014e-19  0              0.099957453    0.00039032203  0              18847.254     -1.5            0              2.9990636    
   1200000   60             100            100            0.033256503   -2.636302e-19   0              0.099769509    2.8205313e-05  0              1361.9336     -1.5            0              2.9990648    
   1300000   60             100            100            0.033287394   -2.638665e-19   0              0.099862183    4.3189666e-08  0              2.0854744     -1.5            0              2.9990642    
   1400000   60             100            100            0.033312644   -2.6406165e-19  0              0.099937933    3.6700296e-07  0              17.721259     -1.5            0              2.9990637    
   1500000   60             100            100            0.033322159   -2.6413639e-19  0              0.099966477    1.2715366e-07  0              6.1397951     -1.5            0              2.9990635    
   1600000   60             100            100            0.033323902   -2.6414974e-19  0              0.099971707    1.2408279e-08  0              0.59915137    -1.5            0              2.9990635    
   1700000   60             100            100            0.03332356    -2.641482e-19   0              0.099970681    1.4794162e-10  0              0.0071435716  -1.5            0              2.9990635    
   1800000   60             100            100            0.033323139   -2.641422e-19   0              0.099969417    7.1780358e-11  0              0.0034660166  -1.5            0              2.9990635    
   1900000   60             100            100            0.033322957   -2.6414344e-19  0              0.099968871    3.8923288e-11  0              0.0018794663  -1.5            0              2.9990635    
   2000000   60             100            100            0.033322915   -2.641361e-19   0              0.099968746    5.0020927e-12  0              0.00024153316 -1.5            0              2.9990635    
   2100000   60             100            100            0.033322917   -2.6414192e-19  0              0.099968752    1.3600149e-13  0              6.5670253e-06 -1.5            0              2.9990635    
   2200000   60             100            100            0.033322924   -2.6414301e-19  0              0.099968772    1.0550966e-14  0              5.0946838e-07 -1.5            0              2.9990635    
   2300000   60             100            100            0.033322927   -2.6414313e-19  0              0.099968782    1.1134964e-14  0              5.3766757e-07 -1.5            0              2.9990635    
   2400000   60             100            100            0.033322928   -2.6414372e-19  0              0.099968785    1.8718765e-15  0              9.0386217e-08 -1.5            0              2.9990635    
[...]
   2900000   60             100            100            0.033328933   -2.6405365e-19  0              0.099986799    1.8083806e-19  0              8.7320229e-12 -1.5            0              2.999604     
   3000000   60             100            100            0.033328933   -2.6405622e-19  0              0.099986799    5.8807016e-20  0              2.8395803e-12 -1.5            0              2.999604     
Loop time of 62.3809 on 4 procs for 3000000 steps with 40 atoms

Performance: 41551209.634 ns/day, 0.000 hours/ns, 48091.678 timesteps/s
99.9% CPU use with 4 MPI tasks x 1 OpenMP threads

MPI task timing breakdown:
Section |  min time  |  avg time  |  max time  |%varavg| %total
---------------------------------------------------------------
Pair    | 0.22186    | 2.177      | 7.7637     | 218.7 |  3.49
Neigh   | 0.012168   | 0.012765   | 0.014236   |   0.8 |  0.02
Comm    | 26.093     | 31.8       | 38.104     |  77.6 | 50.98
Output  | 0.11549    | 0.11567    | 0.11584    |   0.0 |  0.19
Modify  | 14.416     | 20.046     | 27.301     | 127.9 | 32.14
Other   |            | 8.229      |            |       | 13.19

Nlocal:             10 ave          40 max           0 min
Histogram: 3 0 0 0 0 0 0 0 0 1
Nghost:             36 ave          46 max           6 min
Histogram: 1 0 0 0 0 0 0 0 0 3
Neighs:             15 ave          60 max           0 min
Histogram: 3 0 0 0 0 0 0 0 0 1

Total # of neighbors = 60
Ave neighs/atom = 1.5
Neighbor list builds = 174
Dangerous builds = 0
  using 1 OpenMP thread(s) per MPI task
Lattice spacing in x,y,z = 3 3 3
Created orthogonal box = (-30 -50 -50) to (30 50 50)
  1 by 2 by 2 MPI processor grid
Created 20 atoms
  using lattice units in orthogonal box = (-30 -50 -50) to (30 50 50)
  create_atoms CPU = 0.000 seconds
Lattice spacing in x,y,z = 3 3 3
Created 20 atoms
  using lattice units in orthogonal box = (-30 -50 -50) to (30 50 50)
  create_atoms CPU = 0.003 seconds
Setting atom values ...
  20 settings made for diameter
Setting atom values ...
  20 settings made for mass
Setting atom values ...
  20 settings made for diameter
Setting atom values ...
  20 settings made for mass
20 atoms in group substrate
20 atoms in group slider1
  1 rigid bodies with 20 atoms
Generated 0 of 1 mixed pair_coeff terms from geometric mixing rule
Neighbor list info ...
  update every 1 steps, delay 0 steps, check yes
  max neighbors/atom: 2000, page size: 100000
  master list distance cutoff = 3.1
  ghost atom cutoff = 3.1
  binsize = 1.55, bins = 39 65 65
  1 neighbor lists, perpetual/occasional/extra = 1 0 0
  (1) pair granular, perpetual
      attributes: half, newton on, size, history
      pair build: half/size/bin/newton
      stencil: half/bin/3d
      bin: standard
Setting up Verlet run ...
  Unit style    : micro
  Current step  : 0
  Time step     : 1e-05
Per MPI rank memory allocation (min/avg/max) = 12.89 | 16.36 | 17.52 Mbytes
   Step           Lx             Ly             Lz           Press           Pxx            Pyy            Pzz           KinEng         PotEng          Temp          c_1[1]         c_1[2]         c_1[3]    
         0   60             100            100            0              0              0              0              0              0              0             -1.5            0              6            
    100000   60             100            100            0.027820413    2.4558866e-21  0              0.083461238    12163.747      0              5.873438e+11  -1.5            0              3.3096945    
    200000   60             100            100            0.011278543   -3.8483318e-21  0              0.033835628    3660.1248      0              1.7673433e+11 -1.5            0              3.041876     
    300000   60             100            100            0.0036291358  -5.996988e-21   0              0.010887408    616.39569      0              2.9763542e+10 -1.5            0              3.0265972    
    400000   60             100            100           -0.0014416127  -1.2085013e-20  0             -0.004324838    199.51292      0              9.633765e+09  -1.5            0              3.003454     
    500000   60             100            100            0.15231374    -1.2191941e-18  0              0.45694121     40.474907      0              1.9543884e+09 -1.5            0              2.9989238    
    600000   60             100            100           -9.5897301e-05 -1.0131926e-20  0             -0.0002876919   0.66613021     0              32165044      -1.5            0              3.0003394    
    700000   60             100            100            0.010201423   -8.5984889e-20  0              0.03060427     0.21211607     0              10242326      -1.5            0              2.9998237    
    800000   60             100            100            0.033823793   -2.6768969e-19  0              0.10147138     0.24248888     0              11708920      -1.5            0              2.9996062    
    900000   60             100            100            0.03456364    -2.739289e-19   0              0.10369092     0.02932547     0              1416022       -1.5            0              2.9996007    
   1000000   60             100            100            0.033834756   -2.6830063e-19  0              0.10150427     0.0038492094   0              185864.55     -1.5            0              2.9996065    
   1100000   60             100            100            0.033517185   -2.6567883e-19  0              0.10055156     0.00051868358  0              25045.374     -1.5            0              2.999609     
   1200000   60             100            100            0.033398038   -2.6469723e-19  0              0.10019411     7.0221121e-05  0              3390.7266     -1.5            0              2.9996099    
   1300000   60             100            100            0.03335426    -2.643566e-19   0              0.10006278     9.5157641e-06  0              459.48219     -1.5            0              2.9996102    
   1400000   60             100            100            0.033338237   -2.6422843e-19  0              0.10001471     1.2897942e-06  0              62.279545     -1.5            0              2.9996104    
   1500000   60             100            100            0.033332379   -2.6418203e-19  0              0.099997138    1.7483315e-07  0              8.442067      -1.5            0              2.9996104    
   1600000   60             100            100            0.033330238   -2.6416513e-19  0              0.099990714    2.3699093e-08  0              1.1443444     -1.5            0              2.9996104    
   1700000   60             100            100            0.033329456   -2.6415896e-19  0              0.099988367    3.2124674e-09  0              0.15511855    -1.5            0              2.9996104    
   1800000   60             100            100            0.03332917    -2.641567e-19   0              0.099987509    4.3545204e-10  0              0.02102642    -1.5            0              2.9996104    
   1900000   60             100            100            0.033329065   -2.6415588e-19  0              0.099987195    5.9027925e-11  0              0.0028502472  -1.5            0              2.9996104    
   2000000   60             100            100            0.033329027   -2.6415558e-19  0              0.099987081    8.0019785e-12  0              0.0003863869  -1.5            0              2.9996104    
   2100000   60             100            100            0.033329013   -2.6415547e-19  0              0.099987039    1.0847115e-12  0              5.2376838e-05 -1.5            0              2.9996104    
   2200000   60             100            100            0.033329008   -2.6415543e-19  0              0.099987024    1.469397e-13   0              7.095192e-06  -1.5            0              2.9996104    
   2300000   60             100            100            0.033329006   -2.6415541e-19  0              0.099987018    1.9857861e-14  0              9.5886503e-07 -1.5            0              2.9996104    
   2400000   60             100            100            0.033329005   -2.6415541e-19  0              0.099987016    2.690276e-15   0              1.299038e-07  -1.5            0              2.9996104    
   2500000   60             100            100            0.033329005   -2.641554e-19   0              0.099987015    3.6317285e-16  0              1.7536317e-08 -1.5            0              2.9996104    
   2600000   60             100            100            0.033329005   -2.641554e-19   0              0.099987015    5.0156286e-17  0              2.4218675e-09 -1.5            0              2.9996104    
   2700000   60             100            100            0.033329005   -2.6415613e-19  0              0.099987015    7.5118166e-18  0              3.6271874e-10 -1.5            0              2.9996104    
   2800000   60             100            100            0.033329005   -2.6415601e-19  0              0.099987015    9.0023819e-19  0              4.346928e-11  -1.5            0              2.9996104    
   2900000   60             100            100            0.033329005   -2.6415568e-19  0              0.099987015    8.296474e-20   0              4.0060704e-12 -1.5            0              2.9996104    
   3000000   60             100            100            0.033329005   -2.6415551e-19  0              0.099987015    6.3252958e-20  0              3.054259e-12  -1.5            0              2.9996104    
Loop time of 62.2725 on 4 procs for 3000000 steps with 40 atoms

Performance: 41623513.727 ns/day, 0.000 hours/ns, 48175.363 timesteps/s
99.9% CPU use with 4 MPI tasks x 1 OpenMP threads

MPI task timing breakdown:
Section |  min time  |  avg time  |  max time  |%varavg| %total
---------------------------------------------------------------
Pair    | 0.23949    | 2.1752     | 7.7565     | 218.5 |  3.49
Neigh   | 0.012151   | 0.012819   | 0.014327   |   0.8 |  0.02
Comm    | 26.135     | 31.753     | 38.019     |  76.9 | 50.99
Output  | 0.11175    | 0.11192    | 0.11206    |   0.0 |  0.18
Modify  | 14.405     | 20.022     | 27.237     | 127.7 | 32.15
Other   |            | 8.198      |            |       | 13.16

Nlocal:             10 ave          40 max           0 min
Histogram: 3 0 0 0 0 0 0 0 0 1
Nghost:             36 ave          46 max           6 min
Histogram: 1 0 0 0 0 0 0 0 0 3
Neighs:             15 ave          60 max           0 min
Histogram: 3 0 0 0 0 0 0 0 0 1

Total # of neighbors = 60
Ave neighs/atom = 1.5
Neighbor list builds = 174
Dangerous builds = 0
  using 1 OpenMP thread(s) per MPI task
Lattice spacing in x,y,z = 3 3 3
Created orthogonal box = (-30 -50 -50) to (30 50 50)
  1 by 2 by 2 MPI processor grid
Created 20 atoms
  using lattice units in orthogonal box = (-30 -50 -50) to (30 50 50)
  create_atoms CPU = 0.001 seconds
Lattice spacing in x,y,z = 3 3 3
Created 20 atoms
  using lattice units in orthogonal box = (-30 -50 -50) to (30 50 50)
  create_atoms CPU = 0.003 seconds
Setting atom values ...
  20 settings made for diameter
Setting atom values ...
  20 settings made for mass
Setting atom values ...
  20 settings made for diameter
Setting atom values ...
  20 settings made for mass
20 atoms in group substrate
20 atoms in group slider1
  1 rigid bodies with 20 atoms
Generated 0 of 1 mixed pair_coeff terms from geometric mixing rule
Neighbor list info ...
  update every 1 steps, delay 0 steps, check yes
  max neighbors/atom: 2000, page size: 100000
  master list distance cutoff = 3.1
  ghost atom cutoff = 3.1
  binsize = 1.55, bins = 39 65 65
  1 neighbor lists, perpetual/occasional/extra = 1 0 0
  (1) pair granular, perpetual
      attributes: half, newton on, size, history
      pair build: half/size/bin/newton
      stencil: half/bin/3d
      bin: standard
Setting up Verlet run ...
  Unit style    : micro
  Current step  : 0
  Time step     : 1e-05
Per MPI rank memory allocation (min/avg/max) = 12.89 | 16.36 | 17.52 Mbytes
   Step           Lx             Ly             Lz           Press           Pxx            Pyy            Pzz           KinEng         PotEng          Temp          c_1[1]         c_1[2]         c_1[3]    
         0   60             100            100            0              0              0              0              0              0              0             -1.5            0              6            
    100000   60             100            100            0.027824351   -1.6633737e-21  0              0.083473054    12166.363      0              5.8747011e+11 -1.5            0              3.3095773    
    200000   60             100            100            0.01128789    -1.0913201e-20  0              0.033863669    3664.8377      0              1.7696189e+11 -1.5            0              3.041652     
    300000   60             100            100            0.0036452262  -9.6116197e-21  0              0.010935679    621.05763      0              2.998865e+10  -1.5            0              3.0263871    
    400000   60             100            100           -0.0014213538  -1.1936546e-20  0             -0.0042640613   192.89804      0              9.3143562e+09 -1.5            0              3.0037953    
    500000   60             100            100            0.082313633   -6.8548155e-19  0              0.2469409      58.648469      0              2.8319247e+09 -1.5            0              2.9992948    
    600000   60             100            100            5.1693959e-05 -9.1255976e-21  0              0.00015508188  0.19663088     0              9494601.4     -1.5            0              3.0003721    
    700000   60             100            100            0.062667184   -4.9461563e-19  0              0.18800155     0.097274553    0              4697040       -1.5            0              2.9994162    
    800000   60             100            100            0.042499664   -3.3624815e-19  0              0.12749899     0.061449728    0              2967187.4     -1.5            0              2.999549     
    900000   60             100            100            0.029588396   -2.3477147e-19  0              0.088765187    0.00014700396  0              7098.2954     -1.5            0              2.9996459    
   1000000   60             100            100            0.034618426   -2.7439779e-19  0              0.10385528     0.00070569008  0              34075.248     -1.5            0              2.9996069    
   1100000   60             100            100            0.032939333   -2.6107682e-19  0              0.098818       0.00025865947  0              12489.74      -1.5            0              2.9996196    
   1200000   60             100            100            0.033429322   -2.6487719e-19  0              0.10028797     5.9270554e-05  0              2861.9629     -1.5            0              2.9996159    
   1300000   60             100            100            0.033311319   -2.6393466e-19  0              0.099933958    1.0406695e-05  0              502.50205     -1.5            0              2.9996168    
   1400000   60             100            100            0.033327966   -2.6406256e-19  0              0.099983899    1.5007385e-06  0              72.465293     -1.5            0              2.9996167    
   1500000   60             100            100            0.03333225    -2.6409605e-19  0              0.099996751    1.7988349e-07  0              8.6859298     -1.5            0              2.9996166    
   1600000   60             100            100            0.033326992   -2.6405528e-19  0              0.099980976    1.7477937e-08  0              0.84394701    -1.5            0              2.9996167    
   1700000   60             100            100            0.033330107   -2.6407942e-19  0              0.09999032     1.2598004e-09  0              0.060831253   -1.5            0              2.9996166    
   1800000   60             100            100            0.03332863    -2.6406796e-19  0              0.09998589     4.9673101e-11  0              0.0023985363  -1.5            0              2.9996167    
   1900000   60             100            100            0.033329246   -2.6407275e-19  0              0.099987738    2.2270201e-14  0              1.0753483e-06 -1.5            0              2.9996167    
   2000000   60             100            100            0.033329013   -2.6407094e-19  0              0.099987039    7.1990972e-13  0              3.4761864e-05 -1.5            0              2.9996167    
   2100000   60             100            100            0.033329093   -2.6407157e-19  0              0.09998728     3.7965089e-13  0              1.8331983e-05 -1.5            0              2.9996167    
   2200000   60             100            100            0.033329069   -2.6407137e-19  0              0.099987206    1.0122012e-13  0              4.8875576e-06 -1.5            0              2.9996167    
   2300000   60             100            100            0.033329075   -2.6407142e-19  0              0.099987225    1.964291e-14   0              9.4848582e-07 -1.5            0              2.9996167    
   2400000   60             100            100            0.033329074   -2.6406979e-19  0              0.099987222    3.0637571e-15  0              1.4793787e-07 -1.5            0              2.9996167    
   2500000   60             100            100            0.033329074   -2.6407187e-19  0              0.099987222    3.9430733e-16  0              1.903969e-08  -1.5            0              2.9996167    
   2600000   60             100            100            0.033329074   -2.6407117e-19  0              0.099987222    4.2795683e-17  0              2.0664504e-09 -1.5            0              2.9996167    
   2700000   60             100            100            0.033329074   -2.6407148e-19  0              0.099987222    4.3869036e-18  0              2.1182788e-10 -1.5            0              2.9996167    
   2800000   60             100            100            0.033329074   -2.640714e-19   0              0.099987222    5.1862043e-19  0              2.5042324e-11 -1.5            0              2.9996167    
   2900000   60             100            100            0.033329074   -2.6407277e-19  0              0.099987222    1.1254279e-19  0              5.4342885e-12 -1.5            0              2.9996167    
   3000000   60             100            100            0.033329074   -2.6407005e-19  0              0.099987222    4.0473834e-20  0              1.9543366e-12 -1.5            0              2.9996167    
Loop time of 62.4924 on 4 procs for 3000000 steps with 40 atoms

Performance: 41477068.829 ns/day, 0.000 hours/ns, 48005.867 timesteps/s
99.9% CPU use with 4 MPI tasks x 1 OpenMP threads

MPI task timing breakdown:
Section |  min time  |  avg time  |  max time  |%varavg| %total
---------------------------------------------------------------
Pair    | 0.22613    | 2.2073     | 7.8676     | 220.0 |  3.53
Neigh   | 0.011851   | 0.012483   | 0.013948   |   0.8 |  0.02
Comm    | 26.148     | 31.737     | 38.077     |  77.2 | 50.79
Output  | 0.11087    | 0.11104    | 0.11119    |   0.0 |  0.18
Modify  | 14.366     | 20.027     | 27.212     | 126.9 | 32.05
Other   |            | 8.397      |            |       | 13.44

Nlocal:             10 ave          40 max           0 min
Histogram: 3 0 0 0 0 0 0 0 0 1
Nghost:             36 ave          46 max           6 min
Histogram: 1 0 0 0 0 0 0 0 0 3
Neighs:             15 ave          60 max           0 min
Histogram: 3 0 0 0 0 0 0 0 0 1

Total # of neighbors = 60
Ave neighs/atom = 1.5
Neighbor list builds = 174
Dangerous builds = 0
  using 1 OpenMP thread(s) per MPI task
Total wall time: 0:41:45
