ITEM: TIMESTEP
500000
ITEM: NUMBER OF ATOMS
51
ITEM: BOX BOUNDS pp pp pp
-6.3639610306789400e+01 6.3639610306789400e+01
-1.0000000000000000e+02 1.0000000000000000e+02
-1.0000000000000000e+02 1.0000000000000000e+02
ITEM: ATOMS id type diameter mass xu yu zu
1 1 4.77 125.019 -63.6396 0 0
2 1 4.77 125.019 -59.397 0 0
3 1 4.77 125.019 -55.1543 0 0
4 1 4.77 125.019 -50.9117 0 0
5 1 4.77 125.019 -46.669 0 0
6 1 4.77 125.019 -42.4264 0 0
7 1 4.77 125.019 -38.1838 0 0
8 1 4.77 125.019 -33.9411 0 0
9 1 4.77 125.019 -29.6985 0 0
10 1 4.77 125.019 -25.4558 0 0
11 1 4.77 125.019 -21.2132 0 0
12 1 4.77 125.019 -16.9706 0 0
13 1 4.77 125.019 -12.7279 0 0
14 1 4.77 125.019 -8.48528 0 0
15 1 4.77 125.019 -4.24264 0 0
16 1 4.77 125.019 0 0 0
17 1 4.77 125.019 4.24264 0 0
18 1 4.77 125.019 8.48528 0 0
19 1 4.77 125.019 12.7279 0 0
20 1 4.77 125.019 16.9706 0 0
21 1 4.77 125.019 21.2132 0 0
22 1 4.77 125.019 25.4558 0 0
23 1 4.77 125.019 29.6985 0 0
24 1 4.77 125.019 33.9411 0 0
25 1 4.77 125.019 38.1838 0 0
26 1 4.77 125.019 42.4264 0 0
27 1 4.77 125.019 46.669 0 0
28 1 4.77 125.019 50.9117 0 0
29 1 4.77 125.019 55.1543 0 0
30 1 4.77 125.019 59.397 0 0
31 2 3 31.1018 -30 0 3.8785
32 2 3 31.1018 -27 0 3.8785
33 2 3 31.1018 -24 0 3.8785
34 2 3 31.1018 -21 0 3.8785
35 2 3 31.1018 -18 0 3.8785
36 2 3 31.1018 -15 0 3.8785
37 2 3 31.1018 -12 0 3.8785
38 2 3 31.1018 -9 0 3.8785
39 2 3 31.1018 -6 0 3.8785
40 2 3 31.1018 -3 0 3.8785
41 2 3 31.1018 1.83075e-17 0 3.8785
42 2 3 31.1018 3 0 3.8785
43 2 3 31.1018 6 0 3.8785
44 2 3 31.1018 9 0 3.8785
45 2 3 31.1018 12 0 3.8785
46 2 3 31.1018 15 0 3.8785
47 2 3 31.1018 18 0 3.8785
48 2 3 31.1018 21 0 3.8785
49 2 3 31.1018 24 0 3.8785
50 2 3 31.1018 27 0 3.8785
51 2 3 31.1018 30 0 3.8785
