ITEM: TIMESTEP
500000
ITEM: NUMBER OF ATOMS
51
ITEM: BOX BOUNDS pp pp pp
-6.3639610306789400e+01 6.3639610306789400e+01
-1.0000000000000000e+02 1.0000000000000000e+02
-1.0000000000000000e+02 1.0000000000000000e+02
ITEM: ATOMS id type diameter mass xu yu zu
1 1 4.74 122.675 -63.6396 0 0
2 1 4.74 122.675 -59.397 0 0
3 1 4.74 122.675 -55.1543 0 0
4 1 4.74 122.675 -50.9117 0 0
5 1 4.74 122.675 -46.669 0 0
6 1 4.74 122.675 -42.4264 0 0
7 1 4.74 122.675 -38.1838 0 0
8 1 4.74 122.675 -33.9411 0 0
9 1 4.74 122.675 -29.6985 0 0
10 1 4.74 122.675 -25.4558 0 0
11 1 4.74 122.675 -21.2132 0 0
12 1 4.74 122.675 -16.9706 0 0
13 1 4.74 122.675 -12.7279 0 0
14 1 4.74 122.675 -8.48528 0 0
15 1 4.74 122.675 -4.24264 0 0
16 1 4.74 122.675 0 0 0
17 1 4.74 122.675 4.24264 0 0
18 1 4.74 122.675 8.48528 0 0
19 1 4.74 122.675 12.7279 0 0
20 1 4.74 122.675 16.9706 0 0
21 1 4.74 122.675 21.2132 0 0
22 1 4.74 122.675 25.4558 0 0
23 1 4.74 122.675 29.6985 0 0
24 1 4.74 122.675 33.9411 0 0
25 1 4.74 122.675 38.1838 0 0
26 1 4.74 122.675 42.4264 0 0
27 1 4.74 122.675 46.669 0 0
28 1 4.74 122.675 50.9117 0 0
29 1 4.74 122.675 55.1543 0 0
30 1 4.74 122.675 59.397 0 0
31 2 3 31.1018 -30 0 3.86437
32 2 3 31.1018 -27 0 3.86437
33 2 3 31.1018 -24 0 3.86437
34 2 3 31.1018 -21 0 3.86437
35 2 3 31.1018 -18 0 3.86437
36 2 3 31.1018 -15 0 3.86437
37 2 3 31.1018 -12 0 3.86437
38 2 3 31.1018 -9 0 3.86437
39 2 3 31.1018 -6 0 3.86437
40 2 3 31.1018 -3 0 3.86437
41 2 3 31.1018 1.81033e-17 0 3.86437
42 2 3 31.1018 3 0 3.86437
43 2 3 31.1018 6 0 3.86437
44 2 3 31.1018 9 0 3.86437
45 2 3 31.1018 12 0 3.86437
46 2 3 31.1018 15 0 3.86437
47 2 3 31.1018 18 0 3.86437
48 2 3 31.1018 21 0 3.86437
49 2 3 31.1018 24 0 3.86437
50 2 3 31.1018 27 0 3.86437
51 2 3 31.1018 30 0 3.86437
