ITEM: TIMESTEP
100000
ITEM: NUMBER OF ATOMS
51
ITEM: BOX BOUNDS pp pp pp
-6.3639610306789400e+01 6.3639610306789400e+01
-1.0000000000000000e+02 1.0000000000000000e+02
-1.0000000000000000e+02 1.0000000000000000e+02
ITEM: ATOMS id type diameter mass xu yu zu
1 1 4.6 112.123 -63.6396 0 0
2 1 4.6 112.123 -59.397 0 0
3 1 4.6 112.123 -55.1543 0 0
4 1 4.6 112.123 -50.9117 0 0
5 1 4.6 112.123 -46.669 0 0
6 1 4.6 112.123 -42.4264 0 0
7 1 4.6 112.123 -38.1838 0 0
8 1 4.6 112.123 -33.9411 0 0
9 1 4.6 112.123 -29.6985 0 0
10 1 4.6 112.123 -25.4558 0 0
11 1 4.6 112.123 -21.2132 0 0
12 1 4.6 112.123 -16.9706 0 0
13 1 4.6 112.123 -12.7279 0 0
14 1 4.6 112.123 -8.48528 0 0
15 1 4.6 112.123 -4.24264 0 0
16 1 4.6 112.123 0 0 0
17 1 4.6 112.123 4.24264 0 0
18 1 4.6 112.123 8.48528 0 0
19 1 4.6 112.123 12.7279 0 0
20 1 4.6 112.123 16.9706 0 0
21 1 4.6 112.123 21.2132 0 0
22 1 4.6 112.123 25.4558 0 0
23 1 4.6 112.123 29.6985 0 0
24 1 4.6 112.123 33.9411 0 0
25 1 4.6 112.123 38.1838 0 0
26 1 4.6 112.123 42.4264 0 0
27 1 4.6 112.123 46.669 0 0
28 1 4.6 112.123 50.9117 0 0
29 1 4.6 112.123 55.1543 0 0
30 1 4.6 112.123 59.397 0 0
31 2 3 31.1018 -30 0 4.13918
32 2 3 31.1018 -27 0 4.13918
33 2 3 31.1018 -24 0 4.13918
34 2 3 31.1018 -21 0 4.13918
35 2 3 31.1018 -18 0 4.13918
36 2 3 31.1018 -15 0 4.13918
37 2 3 31.1018 -12 0 4.13918
38 2 3 31.1018 -9 0 4.13918
39 2 3 31.1018 -6 0 4.13918
40 2 3 31.1018 -3 0 4.13918
41 2 3 31.1018 -4.93835e-21 0 4.13918
42 2 3 31.1018 3 0 4.13918
43 2 3 31.1018 6 0 4.13918
44 2 3 31.1018 9 0 4.13918
45 2 3 31.1018 12 0 4.13918
46 2 3 31.1018 15 0 4.13918
47 2 3 31.1018 18 0 4.13918
48 2 3 31.1018 21 0 4.13918
49 2 3 31.1018 24 0 4.13918
50 2 3 31.1018 27 0 4.13918
51 2 3 31.1018 30 0 4.13918
