ITEM: TIMESTEP
2800000
ITEM: NUMBER OF ATOMS
51
ITEM: BOX BOUNDS pp pp pp
-6.3639610306789400e+01 6.3639610306789400e+01
-1.0000000000000000e+02 1.0000000000000000e+02
-1.0000000000000000e+02 1.0000000000000000e+02
ITEM: ATOMS id type diameter mass xu yu zu
1 1 4.15 82.3314 -63.6396 0 0
2 1 4.15 82.3314 -59.397 0 0
3 1 4.15 82.3314 -55.1543 0 0
4 1 4.15 82.3314 -50.9117 0 0
5 1 4.15 82.3314 -46.669 0 0
6 1 4.15 82.3314 -42.4264 0 0
7 1 4.15 82.3314 -38.1838 0 0
8 1 4.15 82.3314 -33.9411 0 0
9 1 4.15 82.3314 -29.6985 0 0
10 1 4.15 82.3314 -25.4558 0 0
11 1 4.15 82.3314 -21.2132 0 0
12 1 4.15 82.3314 -16.9706 0 0
13 1 4.15 82.3314 -12.7279 0 0
14 1 4.15 82.3314 -8.48528 0 0
15 1 4.15 82.3314 -4.24264 0 0
16 1 4.15 82.3314 0 0 0
17 1 4.15 82.3314 4.24264 0 0
18 1 4.15 82.3314 8.48528 0 0
19 1 4.15 82.3314 12.7279 0 0
20 1 4.15 82.3314 16.9706 0 0
21 1 4.15 82.3314 21.2132 0 0
22 1 4.15 82.3314 25.4558 0 0
23 1 4.15 82.3314 29.6985 0 0
24 1 4.15 82.3314 33.9411 0 0
25 1 4.15 82.3314 38.1838 0 0
26 1 4.15 82.3314 42.4264 0 0
27 1 4.15 82.3314 46.669 0 0
28 1 4.15 82.3314 50.9117 0 0
29 1 4.15 82.3314 55.1543 0 0
30 1 4.15 82.3314 59.397 0 0
31 2 3 31.1018 -30 0 3.57045
32 2 3 31.1018 -27 0 3.57045
33 2 3 31.1018 -24 0 3.57045
34 2 3 31.1018 -21 0 3.57045
35 2 3 31.1018 -18 0 3.57045
36 2 3 31.1018 -15 0 3.57045
37 2 3 31.1018 -12 0 3.57045
38 2 3 31.1018 -9 0 3.57045
39 2 3 31.1018 -6 0 3.57045
40 2 3 31.1018 -3 0 3.57045
41 2 3 31.1018 4.88233e-17 0 3.57045
42 2 3 31.1018 3 0 3.57045
43 2 3 31.1018 6 0 3.57045
44 2 3 31.1018 9 0 3.57045
45 2 3 31.1018 12 0 3.57045
46 2 3 31.1018 15 0 3.57045
47 2 3 31.1018 18 0 3.57045
48 2 3 31.1018 21 0 3.57045
49 2 3 31.1018 24 0 3.57045
50 2 3 31.1018 27 0 3.57045
51 2 3 31.1018 30 0 3.57045
