ITEM: TIMESTEP
100000
ITEM: NUMBER OF ATOMS
51
ITEM: BOX BOUNDS pp pp pp
-6.3639610306789400e+01 6.3639610306789400e+01
-1.0000000000000000e+02 1.0000000000000000e+02
-1.0000000000000000e+02 1.0000000000000000e+02
ITEM: ATOMS id type diameter mass xu yu zu
1 1 4.5 104.968 -63.6396 0 0
2 1 4.5 104.968 -59.397 0 0
3 1 4.5 104.968 -55.1543 0 0
4 1 4.5 104.968 -50.9117 0 0
5 1 4.5 104.968 -46.669 0 0
6 1 4.5 104.968 -42.4264 0 0
7 1 4.5 104.968 -38.1838 0 0
8 1 4.5 104.968 -33.9411 0 0
9 1 4.5 104.968 -29.6985 0 0
10 1 4.5 104.968 -25.4558 0 0
11 1 4.5 104.968 -21.2132 0 0
12 1 4.5 104.968 -16.9706 0 0
13 1 4.5 104.968 -12.7279 0 0
14 1 4.5 104.968 -8.48528 0 0
15 1 4.5 104.968 -4.24264 0 0
16 1 4.5 104.968 0 0 0
17 1 4.5 104.968 4.24264 0 0
18 1 4.5 104.968 8.48528 0 0
19 1 4.5 104.968 12.7279 0 0
20 1 4.5 104.968 16.9706 0 0
21 1 4.5 104.968 21.2132 0 0
22 1 4.5 104.968 25.4558 0 0
23 1 4.5 104.968 29.6985 0 0
24 1 4.5 104.968 33.9411 0 0
25 1 4.5 104.968 38.1838 0 0
26 1 4.5 104.968 42.4264 0 0
27 1 4.5 104.968 46.669 0 0
28 1 4.5 104.968 50.9117 0 0
29 1 4.5 104.968 55.1543 0 0
30 1 4.5 104.968 59.397 0 0
31 2 3 31.1018 -30 0 4.05783
32 2 3 31.1018 -27 0 4.05783
33 2 3 31.1018 -24 0 4.05783
34 2 3 31.1018 -21 0 4.05783
35 2 3 31.1018 -18 0 4.05783
36 2 3 31.1018 -15 0 4.05783
37 2 3 31.1018 -12 0 4.05783
38 2 3 31.1018 -9 0 4.05783
39 2 3 31.1018 -6 0 4.05783
40 2 3 31.1018 -3 0 4.05783
41 2 3 31.1018 -2.58797e-20 0 4.05783
42 2 3 31.1018 3 0 4.05783
43 2 3 31.1018 6 0 4.05783
44 2 3 31.1018 9 0 4.05783
45 2 3 31.1018 12 0 4.05783
46 2 3 31.1018 15 0 4.05783
47 2 3 31.1018 18 0 4.05783
48 2 3 31.1018 21 0 4.05783
49 2 3 31.1018 24 0 4.05783
50 2 3 31.1018 27 0 4.05783
51 2 3 31.1018 30 0 4.05783
