LAMMPS (23 Jun 2022 - Update 1)
  using 1 OpenMP thread(s) per MPI task
Lattice spacing in x,y,z = 4.2426407 4.2426407 4.2426407
Created orthogonal box = (-63.63961 -100 -100) to (63.63961 100 100)
  1 by 2 by 2 MPI processor grid
Created 30 atoms
  using lattice units in orthogonal box = (-63.63961 -100 -100) to (63.63961 100 100)
  create_atoms CPU = 0.001 seconds
Lattice spacing in x,y,z = 3 3 3
Created 21 atoms
  using lattice units in orthogonal box = (-63.63961 -100 -100) to (63.63961 100 100)
  create_atoms CPU = 0.006 seconds
Setting atom values ...
  30 settings made for diameter
Setting atom values ...
  30 settings made for mass
Setting atom values ...
  21 settings made for diameter
Setting atom values ...
  21 settings made for mass
30 atoms in group substrate
21 atoms in group slider1
51 atoms in group substrate_slider
  1 rigid bodies with 21 atoms
Generated 0 of 1 mixed pair_coeff terms from geometric mixing rule
Neighbor list info ...
  update every 1 steps, delay 0 steps, check yes
  max neighbors/atom: 2000, page size: 100000
  master list distance cutoff = 4.12
  ghost atom cutoff = 4.12
  binsize = 2.06, bins = 62 98 98
  1 neighbor lists, perpetual/occasional/extra = 1 0 0
  (1) pair granular, perpetual
      attributes: half, newton on, size, history
      pair build: half/size/bin/newton
      stencil: half/bin/3d
      bin: standard
Setting up Verlet run ...
  Unit style    : micro
  Current step  : 0
  Time step     : 1e-05
Per MPI rank memory allocation (min/avg/max) = 13.42 | 16.89 | 18.05 Mbytes
   Step           Lx             Ly             Lz           Press           Pxx            Pyy            Pzz           KinEng         PotEng          Temp          c_1[1]         c_1[2]         c_1[3]    
         0   127.27922      200            200            0              0              0              0              0              0              0              2.6109412e-16  0              6            
    100000   127.27922      200            200           -0.00035014597  7.2639422e-39  0             -0.0010504379   11145.973      0              5.3819913e+10  2.6109412e-16  0              3.6216064    
    200000   127.27922      200            200           -0.00021121633  6.7818074e-38  0             -0.000633649    184.15691      0              8.8922782e+08  2.6109412e-16  0              3.6625398    
    300000   127.27922      200            200            0.00016790936 -1.5300156e-37  0              0.00050372809  87.199049      0              4.21053e+08    2.6109412e-16  0              3.5431247    
    400000   127.27922      200            200            0.00015463887  9.4635751e-37  0              0.0004639166   75.917082      0              3.6657642e+08  2.6109412e-16  0              3.5112733    
    500000   127.27922      200            200            0.0012822448   1.3725831e-36  0              0.0038467344   0.23747841     0              1146698.2      2.6109412e-16  0              3.5081012    
    600000   127.27922      200            200            0.0047013497   3.485842e-37   0              0.014104049    3.0085735      0              14527325       2.6109412e-16  0              3.5055205    
    700000   127.27922      200            200            0.0053125195   5.6533908e-37  0              0.015937558    0.079556897    0              384151.78      2.6109412e-16  0              3.5051168    
    800000   127.27922      200            200            0.0046476344   1.8981121e-36  0              0.013942903    0.014856225    0              71735.394      2.6109412e-16  0              3.5055349    
    900000   127.27922      200            200            0.0048230875   2.1158544e-38  0              0.014469263    0.0075120767   0              36273.13       2.6109412e-16  0              3.5054254    
   1000000   127.27922      200            200            0.0048416284  -5.6017097e-38  0              0.014524885    0.00034623365  0              1671.8384      2.6109412e-16  0              3.5054125    
   1100000   127.27922      200            200            0.0048103472   3.491695e-39   0              0.014431042    1.7410551e-05  0              84.069321      2.6109412e-16  0              3.5054325    
   1200000   127.27922      200            200            0.004820557   -1.467318e-39   0              0.014461671    1.774213e-05   0              85.670395      2.6109412e-16  0              3.5054261    
   1300000   127.27922      200            200            0.0048206418  -4.2815198e-39  0              0.014461925    1.3138494e-06  0              6.3441086      2.6109412e-16  0              3.505426     
   1400000   127.27922      200            200            0.0048192256  -4.9644422e-39  0              0.014457677    1.0896506e-08  0              0.052615329    2.6109412e-16  0              3.5054269    
   1500000   127.27922      200            200            0.0048197894  -9.4699086e-40  0              0.014459368    3.9011661e-08  0              0.18837335     2.6109412e-16  0              3.5054265    
   1600000   127.27922      200            200            0.004819752   -2.8143669e-39  0              0.014459256    4.3700767e-09  0              0.021101537    2.6109412e-16  0              3.5054266    
   1700000   127.27922      200            200            0.0048196909   8.1119718e-40  0              0.014459073    1.5655208e-14  0              7.5593396e-08  2.6109412e-16  0              3.5054266    
   1800000   127.27922      200            200            0.0048197208  -2.8129987e-39  0              0.014459162    7.9120668e-11  0              0.00038204539  2.6109412e-16  0              3.5054266    
   1900000   127.27922      200            200            0.0048197169  -3.3553626e-40  0              0.014459151    1.3177583e-11  0              6.362983e-05   2.6109412e-16  0              3.5054266    
   2000000   127.27922      200            200            0.0048197144   1.578008e-39   0              0.014459143    7.3384253e-14  0              3.5434629e-07  2.6109412e-16  0              3.5054266    
   2100000   127.27922      200            200            0.004819716    1.1132801e-39  0              0.014459148    1.453188e-13   0              7.0169247e-07  2.6109412e-16  0              3.5054266    
   2200000   127.27922      200            200            0.0048197157  -5.1446022e-40  0              0.014459147    3.6677202e-14  0              1.7710108e-07  2.6109412e-16  0              3.5054266    
   2300000   127.27922      200            200            0.0048197156  -1.4871307e-39  0              0.014459147    6.8341536e-16  0              3.2999682e-09  2.6109412e-16  0              3.5054266    
   2400000   127.27922      200            200            0.0048197157  -2.4068523e-39  0              0.014459147    2.371992e-16   0              1.14535e-09    2.6109412e-16  0              3.5054266    
   2500000   127.27922      200            200            0.0048197156   9.4403062e-39  0              0.014459147    9.4994594e-17  0              4.586949e-10   2.6109412e-16  0              3.5054266    
   2600000   127.27922      200            200            0.0048197156  -1.047317e-39   0              0.014459147    3.7041705e-18  0              1.7886114e-11  2.6109412e-16  0              3.5054266    
   2700000   127.27922      200            200            0.0048197156   6.3394649e-40  0              0.014459147    1.3432756e-21  0              6.486197e-15   2.6109412e-16  0              3.5054266    
   2800000   127.27922      200            200            0.0048197156  -1.2486916e-39  0              0.014459147    4.0662404e-20  0              1.963442e-13   2.6109412e-16  0              3.5054266    
   2900000   127.27922      200            200            0.0048197156   2.387942e-39   0              0.014459147    1.6441211e-21  0              7.9388722e-15  2.6109412e-16  0              3.5054266    
   3000000   127.27922      200            200            0.0048197156   3.6799735e-39  0              0.014459147    8.5696546e-20  0              4.1379795e-13  2.6109412e-16  0              3.5054266    
Loop time of 67.2816 on 4 procs for 3000000 steps with 51 atoms

Performance: 38524657.480 ns/day, 0.000 hours/ns, 44588.724 timesteps/s
100.0% CPU use with 4 MPI tasks x 1 OpenMP threads

MPI task timing breakdown:
Section |  min time  |  avg time  |  max time  |%varavg| %total
---------------------------------------------------------------
Pair    | 0.31684    | 1.3518     | 4.4309     | 152.9 |  2.01
Neigh   | 0.035288   | 0.036004   | 0.037764   |   0.5 |  0.05
Comm    | 28.203     | 35.317     | 41.447     |  89.3 | 52.49
Output  | 0.067689   | 0.067919   | 0.068108   |   0.1 |  0.10
Modify  | 15.205     | 21.698     | 29.643     | 135.9 | 32.25
Other   |            | 8.812      |            |       | 13.10

Nlocal:          12.75 ave          51 max           0 min
Histogram: 3 0 0 0 0 0 0 0 0 1
Nghost:          39.25 ave          52 max           1 min
Histogram: 1 0 0 0 0 0 0 0 0 3
Neighs:           7.25 ave          29 max           0 min
Histogram: 3 0 0 0 0 0 0 0 0 1

Total # of neighbors = 29
Ave neighs/atom = 0.56862745
Neighbor list builds = 152
Dangerous builds = 0
  using 1 OpenMP thread(s) per MPI task
Lattice spacing in x,y,z = 4.2426407 4.2426407 4.2426407
Created orthogonal box = (-63.63961 -100 -100) to (63.63961 100 100)
  1 by 2 by 2 MPI processor grid
Created 30 atoms
  using lattice units in orthogonal box = (-63.63961 -100 -100) to (63.63961 100 100)
  create_atoms CPU = 0.001 seconds
Lattice spacing in x,y,z = 3 3 3
Created 21 atoms
  using lattice units in orthogonal box = (-63.63961 -100 -100) to (63.63961 100 100)
  create_atoms CPU = 0.003 seconds
Setting atom values ...
  30 settings made for diameter
Setting atom values ...
  30 settings made for mass
Setting atom values ...
  21 settings made for diameter
Setting atom values ...
  21 settings made for mass
30 atoms in group substrate
21 atoms in group slider1
51 atoms in group substrate_slider
  1 rigid bodies with 21 atoms
Generated 0 of 1 mixed pair_coeff terms from geometric mixing rule
Neighbor list info ...
  update every 1 steps, delay 0 steps, check yes
  max neighbors/atom: 2000, page size: 100000
  master list distance cutoff = 4.13
  ghost atom cutoff = 4.13
  binsize = 2.065, bins = 62 97 97
  1 neighbor lists, perpetual/occasional/extra = 1 0 0
  (1) pair granular, perpetual
      attributes: half, newton on, size, history
      pair build: half/size/bin/newton
      stencil: half/bin/3d
      bin: standard
Setting up Verlet run ...
  Unit style    : micro
  Current step  : 0
  Time step     : 1e-05
Per MPI rank memory allocation (min/avg/max) = 13.4 | 16.87 | 18.02 Mbytes
   Step           Lx             Ly             Lz           Press           Pxx            Pyy            Pzz           KinEng         PotEng          Temp          c_1[1]         c_1[2]         c_1[3]    
         0   127.27922      200            200            0              0              0              0              0              0              0              2.6109412e-16  0              6            
    100000   127.27922      200            200           -0.00036255516  1.9373405e-38  0             -0.0010876655   10993.859      0              5.3085413e+10  2.6109412e-16  0              3.6314415    
    200000   127.27922      200            200           -0.00020132977 -1.5131418e-39  0             -0.00060398932  164.67397      0              7.9515165e+08  2.6109412e-16  0              3.6683512    
    300000   127.27922      200            200            0.00018336035  3.1212762e-37  0              0.00055008104  102.56353      0              4.9524259e+08  2.6109412e-16  0              3.5473627    
    400000   127.27922      200            200            0.00017148814 -1.2203364e-36  0              0.00051446441  91.950937      0              4.4399817e+08  2.6109412e-16  0              3.5154878    
    500000   127.27922      200            200            0.001287124   -3.5642578e-36  0              0.0038613719   0.10611137     0              512373.84      2.6109412e-16  0              3.5131121    
    600000   127.27922      200            200            0.0050290338   5.8109708e-37  0              0.015087101    2.9760132      0              14370103       2.6109412e-16  0              3.5103193    
    700000   127.27922      200            200            0.0052468365   2.4270916e-36  0              0.015740509    0.16710903     0              806909.68      2.6109412e-16  0              3.5101621    
    800000   127.27922      200            200            0.0046346791   8.1506568e-37  0              0.013904037    0.0045756747   0              22094.295      2.6109412e-16  0              3.5105496    
    900000   127.27922      200            200            0.0048496057   1.9115223e-38  0              0.014548817    0.0068139399   0              32902.077      2.6109412e-16  0              3.5104145    
   1000000   127.27922      200            200            0.0048430109   1.3431081e-38  0              0.014529033    0.00063461305  0              3064.3193      2.6109412e-16  0              3.5104176    
   1100000   127.27922      200            200            0.0048166157  -1.3230417e-39  0              0.014449847    4.3203931e-07  0              2.0861632      2.6109412e-16  0              3.5104345    
   1200000   127.27922      200            200            0.0048285341   8.9514795e-39  0              0.014485602    1.3558788e-05  0              65.470535      2.6109412e-16  0              3.510427     
   1300000   127.27922      200            200            0.0048271327   4.8215685e-40  0              0.014481398    2.0952839e-06  0              10.117376      2.6109412e-16  0              3.5104278    
   1400000   127.27922      200            200            0.0048261044  -2.265237e-39   0              0.014478313    1.1182334e-08  0              0.053995491    2.6109412e-16  0              3.5104285    
   1500000   127.27922      200            200            0.0048267231   1.4335122e-39  0              0.014480169    2.3029246e-08  0              0.11119999     2.6109412e-16  0              3.5104281    
   1600000   127.27922      200            200            0.0048266041  -7.3334226e-40  0              0.014479812    6.0271796e-09  0              0.029103093    2.6109412e-16  0              3.5104282    
   1700000   127.27922      200            200            0.00482657     4.4196356e-40  0              0.01447971     1.4066262e-10  0              0.00067920946  2.6109412e-16  0              3.5104282    
   1800000   127.27922      200            200            0.0048266003   1.6355931e-39  0              0.014479801    3.0877172e-11  0              0.00014909481  2.6109412e-16  0              3.5104282    
   1900000   127.27922      200            200            0.0048265923   4.567457e-40   0              0.014479777    1.5395598e-11  0              7.4339831e-05  2.6109412e-16  0              3.5104282    
   2000000   127.27922      200            200            0.0048265916  -1.2892546e-39  0              0.014479775    7.8393418e-13  0              3.7853376e-06  2.6109412e-16  0              3.5104282    
   2100000   127.27922      200            200            0.004826593    1.2432674e-39  0              0.014479779    2.6079124e-14  0              1.2592676e-07  2.6109412e-16  0              3.5104282    
   2200000   127.27922      200            200            0.0048265925   1.8987097e-40  0              0.014479777    3.5036649e-14  0              1.6917944e-07  2.6109412e-16  0              3.5104282    
   2300000   127.27922      200            200            0.0048265925   9.9994331e-40  0              0.014479777    3.1716953e-15  0              1.5314981e-08  2.6109412e-16  0              3.5104282    
   2400000   127.27922      200            200            0.0048265925   2.4661186e-39  0              0.014479778    3.5551585e-18  0              1.7166588e-11  2.6109412e-16  0              3.5104282    
   2500000   127.27922      200            200            0.0048265925   9.6008307e-40  0              0.014479778    6.9876763e-17  0              3.3740988e-10  2.6109412e-16  0              3.5104282    
   2600000   127.27922      200            200            0.0048265925   3.7483221e-39  0              0.014479778    1.0753902e-17  0              5.1926746e-11  2.6109412e-16  0              3.5104282    
   2700000   127.27922      200            200            0.0048265925  -6.6551022e-40  0              0.014479778    5.1210353e-19  0              2.4727647e-12  2.6109412e-16  0              3.5104282    
   2800000   127.27922      200            200            0.0048265925   3.4592181e-39  0              0.014479778    2.0125446e-21  0              9.7178576e-15  2.6109412e-16  0              3.5104282    
   2900000   127.27922      200            200            0.0048265925   6.4423969e-39  0              0.014479778    1.2265108e-22  0              5.9223818e-16  2.6109412e-16  0              3.5104282    
   3000000   127.27922      200            200            0.0048265925  -2.0010844e-39  0              0.014479778    9.9874616e-20  0              4.8225878e-13  2.6109412e-16  0              3.5104282    
Loop time of 66.4 on 4 procs for 3000000 steps with 51 atoms

Performance: 39036128.694 ns/day, 0.000 hours/ns, 45180.705 timesteps/s
100.0% CPU use with 4 MPI tasks x 1 OpenMP threads

MPI task timing breakdown:
Section |  min time  |  avg time  |  max time  |%varavg| %total
---------------------------------------------------------------
Pair    | 0.2988     | 1.2214     | 3.9281     | 141.4 |  1.84
Neigh   | 0.034358   | 0.035208   | 0.036973   |   0.6 |  0.05
Comm    | 28.053     | 35.173     | 41.142     |  90.3 | 52.97
Output  | 0.061514   | 0.061699   | 0.061867   |   0.1 |  0.09
Modify  | 14.739     | 21.238     | 29.156     | 137.6 | 31.98
Other   |            | 8.671      |            |       | 13.06

Nlocal:          12.75 ave          51 max           0 min
Histogram: 3 0 0 0 0 0 0 0 0 1
Nghost:          39.25 ave          52 max           1 min
Histogram: 1 0 0 0 0 0 0 0 0 3
Neighs:           6.75 ave          27 max           0 min
Histogram: 3 0 0 0 0 0 0 0 0 1

Total # of neighbors = 27
Ave neighs/atom = 0.52941176
Neighbor list builds = 151
Dangerous builds = 0
  using 1 OpenMP thread(s) per MPI task
Lattice spacing in x,y,z = 4.2426407 4.2426407 4.2426407
Created orthogonal box = (-63.63961 -100 -100) to (63.63961 100 100)
  1 by 2 by 2 MPI processor grid
Created 30 atoms
  using lattice units in orthogonal box = (-63.63961 -100 -100) to (63.63961 100 100)
  create_atoms CPU = 0.000 seconds
Lattice spacing in x,y,z = 3 3 3
Created 21 atoms
  using lattice units in orthogonal box = (-63.63961 -100 -100) to (63.63961 100 100)
  create_atoms CPU = 0.003 seconds
Setting atom values ...
  30 settings made for diameter
Setting atom values ...
  30 settings made for mass
Setting atom values ...
  21 settings made for diameter
Setting atom values ...
  21 settings made for mass
30 atoms in group substrate
21 atoms in group slider1
51 atoms in group substrate_slider
  1 rigid bodies with 21 atoms
Generated 0 of 1 mixed pair_coeff terms from geometric mixing rule
Neighbor list info ...
  update every 1 steps, delay 0 steps, check yes
  max neighbors/atom: 2000, page size: 100000
  master list distance cutoff = 4.14
  ghost atom cutoff = 4.14
  binsize = 2.07, bins = 62 97 97
  1 neighbor lists, perpetual/occasional/extra = 1 0 0
  (1) pair granular, perpetual
      attributes: half, newton on, size, history
      pair build: half/size/bin/newton
      stencil: half/bin/3d
      bin: standard
Setting up Verlet run ...
  Unit style    : micro
  Current step  : 0
  Time step     : 1e-05
Per MPI rank memory allocation (min/avg/max) = 13.4 | 16.87 | 18.02 Mbytes
   Step           Lx             Ly             Lz           Press           Pxx            Pyy            Pzz           KinEng         PotEng          Temp          c_1[1]         c_1[2]         c_1[3]    
         0   127.27922      200            200            0              0              0              0              0              0              0              2.6109412e-16  0              6            
    100000   127.27922      200            200           -0.00037474047 -9.6699698e-39  0             -0.0011242214   10842.884      0              5.2356405e+10  2.6109412e-16  0              3.6412456    
    200000   127.27922      200            200           -0.00019126719  8.7180749e-38  0             -0.00057380157  146.29696      0              7.0641566e+08  2.6109412e-16  0              3.6741141    
    300000   127.27922      200            200            0.00019898377 -7.6293013e-38  0              0.0005969513   119.15281      0              5.7534627e+08  2.6109412e-16  0              3.551538     
    400000   127.27922      200            200            0.00030193839  2.1869146e-36  0              0.00090581518  109.41477      0              5.2832476e+08  2.6109412e-16  0              3.5196256    
    500000   127.27922      200            200            0.0013798698  -1.0704974e-36  0              0.0041396094   1.2752081      0              6157523.7      2.6109412e-16  0              3.5180376    
    600000   127.27922      200            200            0.0053543794  -4.3884461e-38  0              0.016063138    2.6699588      0              12892275       2.6109412e-16  0              3.5151236    
    700000   127.27922      200            200            0.0051577563   1.2031361e-36  0              0.015473269    0.26234146     0              1266753        2.6109412e-16  0              3.5152222    
    800000   127.27922      200            200            0.0046337912   1.2795571e-36  0              0.013901374    8.6222961e-05  0              416.33982      2.6109412e-16  0              3.5155566    
    900000   127.27922      200            200            0.0048744738  -7.8268749e-38  0              0.014623421    0.0052416359   0              25309.984      2.6109412e-16  0              3.5154047    
   1000000   127.27922      200            200            0.0048430282  -1.4954699e-38  0              0.014529085    0.00087992767  0              4248.8558      2.6109412e-16  0              3.5154235    
   1100000   127.27922      200            200            0.0048238189   8.6833631e-39  0              0.014471457    8.4589123e-06  0              40.84506       2.6109412e-16  0              3.5154359    
   1200000   127.27922      200            200            0.0048363072   4.3455715e-39  0              0.014508921    7.6611713e-06  0              36.993054      2.6109412e-16  0              3.515428     
   1300000   127.27922      200            200            0.0048335605  -1.2496987e-39  0              0.014500681    2.4924007e-06  0              12.034911      2.6109412e-16  0              3.5154297    
   1400000   127.27922      200            200            0.0048330463  -2.4412971e-39  0              0.014499139    9.0868855e-08  0              0.43877318     2.6109412e-16  0              3.5154301    
   1500000   127.27922      200            200            0.0048336382  -1.7593221e-39  0              0.014500915    7.1514519e-09  0              0.034531802    2.6109412e-16  0              3.5154297    
   1600000   127.27922      200            200            0.0048334544   3.3794725e-39  0              0.014500363    5.9294098e-09  0              0.028630998    2.6109412e-16  0              3.5154298    
   1700000   127.27922      200            200            0.004833453   -8.7142774e-40  0              0.014500359    4.6342401e-10  0              0.0022377087   2.6109412e-16  0              3.5154298    
   1800000   127.27922      200            200            0.0048334784  -3.8823643e-39  0              0.014500435    1.4465747e-12  0              6.9849915e-06  2.6109412e-16  0              3.5154298    
   1900000   127.27922      200            200            0.0048334677  -2.0010056e-39  0              0.014500403    1.1752133e-11  0              5.6746843e-05  2.6109412e-16  0              3.5154298    
   2000000   127.27922      200            200            0.0048334689   5.239397e-40   0              0.014500407    1.7033735e-12  0              8.224981e-06   2.6109412e-16  0              3.5154298    
   2100000   127.27922      200            200            0.0048334698  -1.1434936e-39  0              0.014500409    9.01453e-15    0              4.3527939e-08  2.6109412e-16  0              3.5154298    
   2200000   127.27922      200            200            0.0048334693   8.6844521e-40  0              0.014500408    1.8472096e-14  0              8.9195142e-08  2.6109412e-16  0              3.5154298    
   2300000   127.27922      200            200            0.0048334694  -3.7275043e-39  0              0.014500408    5.0492579e-15  0              2.4381059e-08  2.6109412e-16  0              3.5154298    
   2400000   127.27922      200            200            0.0048334694  -4.0332066e-39  0              0.014500408    1.4741053e-16  0              7.1179268e-10  2.6109412e-16  0              3.5154298    
   2500000   127.27922      200            200            0.0048334694   2.3757275e-39  0              0.014500408    1.8463626e-17  0              8.9154241e-11  2.6109412e-16  0              3.5154298    
   2600000   127.27922      200            200            0.0048334694   2.7923263e-39  0              0.014500408    1.2537768e-17  0              6.0540393e-11  2.6109412e-16  0              3.5154298    
   2700000   127.27922      200            200            0.0048334694  -2.1743494e-39  0              0.014500408    1.5463467e-18  0              7.4667547e-12  2.6109412e-16  0              3.5154298    
   2800000   127.27922      200            200            0.0048334694   1.902053e-40   0              0.014500408    9.0588898e-20  0              4.3742137e-13  2.6109412e-16  0              3.5154298    
   2900000   127.27922      200            200            0.0048334694   6.2586886e-39  0              0.014500408    4.0153698e-20  0              1.9388784e-13  2.6109412e-16  0              3.5154298    
   3000000   127.27922      200            200            0.0048334694   3.3251502e-39  0              0.014500408    7.8414506e-20  0              3.7863558e-13  2.6109412e-16  0              3.5154298    
Loop time of 66.5446 on 4 procs for 3000000 steps with 51 atoms

Performance: 38951303.356 ns/day, 0.000 hours/ns, 45082.527 timesteps/s
100.0% CPU use with 4 MPI tasks x 1 OpenMP threads

MPI task timing breakdown:
Section |  min time  |  avg time  |  max time  |%varavg| %total
---------------------------------------------------------------
Pair    | 0.31575    | 1.3649     | 4.4219     | 151.1 |  2.05
Neigh   | 0.030567   | 0.031212   | 0.032747   |   0.5 |  0.05
Comm    | 27.693     | 35.066     | 41.296     |  92.0 | 52.69
Output  | 0.061165   | 0.061352   | 0.061532   |   0.1 |  0.09
Modify  | 14.677     | 21.284     | 29.471     | 139.5 | 31.98
Other   |            | 8.737      |            |       | 13.13

Nlocal:          12.75 ave          51 max           0 min
Histogram: 3 0 0 0 0 0 0 0 0 1
Nghost:          39.25 ave          52 max           1 min
Histogram: 1 0 0 0 0 0 0 0 0 3
Neighs:           6.75 ave          27 max           0 min
Histogram: 3 0 0 0 0 0 0 0 0 1

Total # of neighbors = 27
Ave neighs/atom = 0.52941176
Neighbor list builds = 143
Dangerous builds = 0
  using 1 OpenMP thread(s) per MPI task
Lattice spacing in x,y,z = 4.2426407 4.2426407 4.2426407
Created orthogonal box = (-63.63961 -100 -100) to (63.63961 100 100)
  1 by 2 by 2 MPI processor grid
Created 30 atoms
  using lattice units in orthogonal box = (-63.63961 -100 -100) to (63.63961 100 100)
  create_atoms CPU = 0.000 seconds
Lattice spacing in x,y,z = 3 3 3
Created 21 atoms
  using lattice units in orthogonal box = (-63.63961 -100 -100) to (63.63961 100 100)
  create_atoms CPU = 0.003 seconds
Setting atom values ...
  30 settings made for diameter
Setting atom values ...
  30 settings made for mass
Setting atom values ...
  21 settings made for diameter
Setting atom values ...
  21 settings made for mass
30 atoms in group substrate
21 atoms in group slider1
51 atoms in group substrate_slider
  1 rigid bodies with 21 atoms
Generated 0 of 1 mixed pair_coeff terms from geometric mixing rule
Neighbor list info ...
  update every 1 steps, delay 0 steps, check yes
  max neighbors/atom: 2000, page size: 100000
  master list distance cutoff = 4.15
  ghost atom cutoff = 4.15
  binsize = 2.075, bins = 62 97 97
  1 neighbor lists, perpetual/occasional/extra = 1 0 0
  (1) pair granular, perpetual
      attributes: half, newton on, size, history
      pair build: half/size/bin/newton
      stencil: half/bin/3d
      bin: standard
Setting up Verlet run ...
  Unit style    : micro
  Current step  : 0
  Time step     : 1e-05
Per MPI rank memory allocation (min/avg/max) = 13.4 | 16.87 | 18.02 Mbytes
   Step           Lx             Ly             Lz           Press           Pxx            Pyy            Pzz           KinEng         PotEng          Temp          c_1[1]         c_1[2]         c_1[3]    
         0   127.27922      200            200            0              0              0              0              0              0              0              2.6109412e-16  0              6            
    100000   127.27922      200            200           -0.00038670282 -5.8078702e-38  0             -0.0011601084   10693.038      0              5.1632854e+10  2.6109412e-16  0              3.6510187    
    200000   127.27922      200            200           -0.00018102897 -8.4733774e-39  0             -0.00054308691  129.02188      0              6.2300051e+08  2.6109412e-16  0              3.6798284    
    300000   127.27922      200            200            0.00021477901  7.763465e-37   0              0.00064433703  136.96316      0              6.613461e+08   2.6109412e-16  0              3.5556505    
    400000   127.27922      200            200            0.00094884435  3.273825e-37   0              0.002846533    126.78118      0              6.1218093e+08  2.6109412e-16  0              3.5236892    
    500000   127.27922      200            200            0.0015636323   1.3481732e-36  0              0.004690897    3.6207852      0              17483476       2.6109412e-16  0              3.5228796    
    600000   127.27922      200            200            0.0056609163  -7.1052196e-37  0              0.016982749    2.1428166      0              10346894       2.6109412e-16  0              3.5199429    
    700000   127.27922      200            200            0.0050510034   6.1252052e-38  0              0.01515301     0.34409691     0              1661520.8      2.6109412e-16  0              3.5202936    
    800000   127.27922      200            200            0.0046454621   6.5756615e-37  0              0.013936386    0.0024518084   0              11838.905      2.6109412e-16  0              3.5205555    
    900000   127.27922      200            200            0.0048963628  -1.1814852e-37  0              0.014689088    0.0032464439   0              15675.916      2.6109412e-16  0              3.5203968    
   1000000   127.27922      200            200            0.0048422521  -2.3198018e-39  0              0.014526756    0.0010022885   0              4839.6925      2.6109412e-16  0              3.5204299    
   1100000   127.27922      200            200            0.0048319262  -2.6269687e-38  0              0.014495779    3.8327733e-05  0              185.07091      2.6109412e-16  0              3.5204368    
   1200000   127.27922      200            200            0.0048437822   3.5256796e-39  0              0.014531347    2.453791e-06   0              11.848478      2.6109412e-16  0              3.5204293    
   1300000   127.27922      200            200            0.0048399778   5.9186969e-39  0              0.014519934    2.3267785e-06  0              11.235181      2.6109412e-16  0              3.5204316    
   1400000   127.27922      200            200            0.004840043    2.1454524e-39  0              0.014520129    2.0932855e-07  0              1.0107726      2.6109412e-16  0              3.5204316    
   1500000   127.27922      200            200            0.0048405292   1.60767e-39    0              0.014521588    3.1524659e-11  0              0.0001522213   2.6109412e-16  0              3.5204313    
   1600000   127.27922      200            200            0.004840307   -5.6560249e-40  0              0.014520921    4.1446181e-09  0              0.020012877    2.6109412e-16  0              3.5204314    
   1700000   127.27922      200            200            0.0048403387  -1.2519928e-39  0              0.014521016    7.5602643e-10  0              0.0036505811   2.6109412e-16  0              3.5204314    
   1800000   127.27922      200            200            0.0048403549  -8.5863937e-41  0              0.014521065    1.1262093e-11  0              5.4380619e-05  2.6109412e-16  0              3.5204314    
   1900000   127.27922      200            200            0.0048403435  -1.2975442e-39  0              0.01452103     5.0534818e-12  0              2.4401455e-05  2.6109412e-16  0              3.5204314    
   2000000   127.27922      200            200            0.0048403463  -5.4310677e-41  0              0.014521039    2.0756912e-12  0              1.002277e-05   2.6109412e-16  0              3.5204314    
   2100000   127.27922      200            200            0.0048403466   1.8348773e-39  0              0.01452104     1.0766386e-13  0              5.1987024e-07  2.6109412e-16  0              3.5204314    
   2200000   127.27922      200            200            0.0048403461   3.7668326e-39  0              0.014521038    2.5957668e-15  0              1.2534029e-08  2.6109412e-16  0              3.5204314    
   2300000   127.27922      200            200            0.0048403463  -2.729953e-39   0              0.014521039    4.4624247e-15  0              2.1547452e-08  2.6109412e-16  0              3.5204314    
   2400000   127.27922      200            200            0.0048403462  -9.976672e-41   0              0.014521039    5.0366914e-16  0              2.432038e-09   2.6109412e-16  0              3.5204314    
   2500000   127.27922      200            200            0.0048403462   1.9761543e-39  0              0.014521039    7.0888069e-19  0              3.4229312e-12  2.6109412e-16  0              3.5204314    
   2600000   127.27922      200            200            0.0048403462   3.5009865e-39  0              0.014521039    6.9306313e-18  0              3.3465538e-11  2.6109412e-16  0              3.5204314    
   2700000   127.27922      200            200            0.0048403462   3.8728782e-39  0              0.014521039    1.5758882e-18  0              7.6094002e-12  2.6109412e-16  0              3.5204314    
   2800000   127.27922      200            200            0.0048403462  -5.9834907e-39  0              0.014521039    2.3392961e-19  0              1.1295624e-12  2.6109412e-16  0              3.5204314    
   2900000   127.27922      200            200            0.0048403462  -1.2485739e-39  0              0.014521039    1.0134588e-19  0              4.89363e-13    2.6109412e-16  0              3.5204314    
   3000000   127.27922      200            200            0.0048403462   2.9501651e-39  0              0.014521039    5.1080305e-20  0              2.4664851e-13  2.6109412e-16  0              3.5204314    
Loop time of 66.5166 on 4 procs for 3000000 steps with 51 atoms

Performance: 38967735.238 ns/day, 0.000 hours/ns, 45101.545 timesteps/s
100.0% CPU use with 4 MPI tasks x 1 OpenMP threads

MPI task timing breakdown:
Section |  min time  |  avg time  |  max time  |%varavg| %total
---------------------------------------------------------------
Pair    | 0.32045    | 1.2996     | 4.2188     | 147.8 |  1.95
Neigh   | 0.030369   | 0.030942   | 0.032409   |   0.5 |  0.05
Comm    | 27.92      | 35.107     | 41.193     |  90.3 | 52.78
Output  | 0.062151   | 0.062337   | 0.062505   |   0.1 |  0.09
Modify  | 14.761     | 21.275     | 29.253     | 137.6 | 31.98
Other   |            | 8.742      |            |       | 13.14

Nlocal:          12.75 ave          51 max           0 min
Histogram: 3 0 0 0 0 0 0 0 0 1
Nghost:          39.25 ave          52 max           1 min
Histogram: 1 0 0 0 0 0 0 0 0 3
Neighs:           7.25 ave          29 max           0 min
Histogram: 3 0 0 0 0 0 0 0 0 1

Total # of neighbors = 29
Ave neighs/atom = 0.56862745
Neighbor list builds = 141
Dangerous builds = 0
  using 1 OpenMP thread(s) per MPI task
Lattice spacing in x,y,z = 4.2426407 4.2426407 4.2426407
Created orthogonal box = (-63.63961 -100 -100) to (63.63961 100 100)
  1 by 2 by 2 MPI processor grid
Created 30 atoms
  using lattice units in orthogonal box = (-63.63961 -100 -100) to (63.63961 100 100)
  create_atoms CPU = 0.000 seconds
Lattice spacing in x,y,z = 3 3 3
Created 21 atoms
  using lattice units in orthogonal box = (-63.63961 -100 -100) to (63.63961 100 100)
  create_atoms CPU = 0.003 seconds
Setting atom values ...
  30 settings made for diameter
Setting atom values ...
  30 settings made for mass
Setting atom values ...
  21 settings made for diameter
Setting atom values ...
  21 settings made for mass
30 atoms in group substrate
21 atoms in group slider1
51 atoms in group substrate_slider
  1 rigid bodies with 21 atoms
Generated 0 of 1 mixed pair_coeff terms from geometric mixing rule
Neighbor list info ...
  update every 1 steps, delay 0 steps, check yes
  max neighbors/atom: 2000, page size: 100000
  master list distance cutoff = 4.16
  ghost atom cutoff = 4.16
  binsize = 2.08, bins = 62 97 97
  1 neighbor lists, perpetual/occasional/extra = 1 0 0
  (1) pair granular, perpetual
      attributes: half, newton on, size, history
      pair build: half/size/bin/newton
      stencil: half/bin/3d
      bin: standard
Setting up Verlet run ...
  Unit style    : micro
  Current step  : 0
  Time step     : 1e-05
Per MPI rank memory allocation (min/avg/max) = 13.4 | 16.87 | 18.02 Mbytes
   Step           Lx             Ly             Lz           Press           Pxx            Pyy            Pzz           KinEng         PotEng          Temp          c_1[1]         c_1[2]         c_1[3]    
         0   127.27922      200            200            0              0              0              0              0              0              0              2.6109412e-16  0              6            
    100000   127.27922      200            200           -0.00039844237 -6.0522298e-39  0             -0.0011953271   10544.327      0              5.0914783e+10  2.6109412e-16  0              3.6607606    
    200000   127.27922      200            200           -0.00017061673  3.6317576e-39  0             -0.00051185018  112.84681      0              5.4489688e+08  2.6109412e-16  0              3.6854938    
    300000   127.27922      200            200            0.00023074363 -3.8475219e-38  0              0.00069223088  155.9888       0              7.5321409e+08  2.6109412e-16  0              3.5597       
    400000   127.27922      200            200            0.0019637436   3.0897716e-36  0              0.0058912309   141.71444      0              6.8428829e+08  2.6109412e-16  0              3.5276885    
    500000   127.27922      200            200            0.0018438251   1.6579455e-36  0              0.0055314752   6.8910247      0              33274292       2.6109412e-16  0              3.5276422    
    600000   127.27922      200            200            0.005931979   -3.2606577e-36  0              0.017795937    1.4921182      0              7204904.8      2.6109412e-16  0              3.5247863    
    700000   127.27922      200            200            0.0049332505  -8.6280079e-38  0              0.014799751    0.39445229     0              1904668.9      2.6109412e-16  0              3.5253726    
    800000   127.27922      200            200            0.0046694248  -1.2037546e-36  0              0.014008274    0.011037176    0              53294.575      2.6109412e-16  0              3.5255466    
    900000   127.27922      200            200            0.0049141558   7.4755021e-38  0              0.014742467    0.0014001887   0              6761.0101      2.6109412e-16  0              3.5253914    
   1000000   127.27922      200            200            0.0048413197   1.7402945e-38  0              0.014523959    0.00096224605  0              4646.3418      2.6109412e-16  0              3.5254364    
   1100000   127.27922      200            200            0.0048408222   4.6452939e-38  0              0.014522467    7.8928254e-05  0              381.11629      2.6109412e-16  0              3.5254371    
   1200000   127.27922      200            200            0.0048508967   2.3045952e-38  0              0.01455269     4.2022666e-08  0              0.20291242     2.6109412e-16  0              3.5254307    
   1300000   127.27922      200            200            0.0048464383  -5.3135653e-39  0              0.014539315    1.6757473e-06  0              8.0915838      2.6109412e-16  0              3.5254335    
   1400000   127.27922      200            200            0.0048470787  -4.3505105e-39  0              0.014541236    3.0698505e-07  0              1.4823209      2.6109412e-16  0              3.5254331    
   1500000   127.27922      200            200            0.0048473942   1.5214566e-39  0              0.014542183    5.4512436e-09  0              0.026322104    2.6109412e-16  0              3.5254329    
   1600000   127.27922      200            200            0.0048471657   2.7693639e-40  0              0.014541497    1.7468838e-09  0              0.0084350767   2.6109412e-16  0              3.525433     
   1700000   127.27922      200            200            0.0048472257   2.0365667e-40  0              0.014541677    8.2803435e-10  0              0.0039982815   2.6109412e-16  0              3.525433     
   1800000   127.27922      200            200            0.0048472297  -1.0334415e-39  0              0.014541689    5.2949589e-11  0              0.00025567462  2.6109412e-16  0              3.525433     
   1900000   127.27922      200            200            0.0048472198   2.6120563e-39  0              0.014541659    3.8900889e-13  0              1.8783847e-06  2.6109412e-16  0              3.525433     
   2000000   127.27922      200            200            0.0048472237   3.8712779e-39  0              0.014541671    1.6002949e-12  0              7.7272512e-06  2.6109412e-16  0              3.525433     
   2100000   127.27922      200            200            0.0048472233  -8.7980281e-40  0              0.01454167     2.3435535e-13  0              1.1316181e-06  2.6109412e-16  0              3.525433     
   2200000   127.27922      200            200            0.0048472229   4.6527449e-40  0              0.014541669    2.1506742e-15  0              1.0384836e-08  2.6109412e-16  0              3.525433     
   2300000   127.27922      200            200            0.0048472231  -1.1699015e-39  0              0.014541669    1.9885817e-15  0              9.6021493e-09  2.6109412e-16  0              3.525433     
   2400000   127.27922      200            200            0.0048472231   2.7045809e-40  0              0.014541669    6.9368441e-16  0              3.3495538e-09  2.6109412e-16  0              3.525433     
   2500000   127.27922      200            200            0.0048472231   1.7630127e-39  0              0.014541669    3.3774879e-17  0              1.630868e-10   2.6109412e-16  0              3.525433     
   2600000   127.27922      200            200            0.0048472231   5.7320813e-39  0              0.014541669    6.4533072e-19  0              3.1160711e-12  2.6109412e-16  0              3.525433     
   2700000   127.27922      200            200            0.0048472231   3.1022239e-39  0              0.014541669    6.4659556e-19  0              3.1221786e-12  2.6109412e-16  0              3.525433     
   2800000   127.27922      200            200            0.0048472231   3.5613025e-39  0              0.014541669    1.5467374e-19  0              7.4686416e-13  2.6109412e-16  0              3.525433     
   2900000   127.27922      200            200            0.0048472231  -1.3604259e-39  0              0.014541669    8.1539385e-20  0              3.9372451e-13  2.6109412e-16  0              3.525433     
   3000000   127.27922      200            200            0.0048472231  -2.5798805e-39  0              0.014541669    4.9543947e-21  0              2.3922999e-14  2.6109412e-16  0              3.525433     
Loop time of 66.4657 on 4 procs for 3000000 steps with 51 atoms

Performance: 38997569.382 ns/day, 0.000 hours/ns, 45136.076 timesteps/s
100.0% CPU use with 4 MPI tasks x 1 OpenMP threads

MPI task timing breakdown:
Section |  min time  |  avg time  |  max time  |%varavg| %total
---------------------------------------------------------------
Pair    | 0.30625    | 1.3309     | 4.366      | 151.9 |  2.00
Neigh   | 0.031333   | 0.03209    | 0.03378    |   0.6 |  0.05
Comm    | 27.822     | 34.949     | 41.067     |  89.9 | 52.58
Output  | 0.072069   | 0.072252   | 0.072425   |   0.1 |  0.11
Modify  | 14.788     | 21.284     | 29.221     | 136.7 | 32.02
Other   |            | 8.798      |            |       | 13.24

Nlocal:          12.75 ave          51 max           0 min
Histogram: 3 0 0 0 0 0 0 0 0 1
Nghost:          39.25 ave          52 max           1 min
Histogram: 1 0 0 0 0 0 0 0 0 3
Neighs:           7.25 ave          29 max           0 min
Histogram: 3 0 0 0 0 0 0 0 0 1

Total # of neighbors = 29
Ave neighs/atom = 0.56862745
Neighbor list builds = 143
Dangerous builds = 0
  using 1 OpenMP thread(s) per MPI task
Lattice spacing in x,y,z = 4.2426407 4.2426407 4.2426407
Created orthogonal box = (-63.63961 -100 -100) to (63.63961 100 100)
  1 by 2 by 2 MPI processor grid
Created 30 atoms
  using lattice units in orthogonal box = (-63.63961 -100 -100) to (63.63961 100 100)
  create_atoms CPU = 0.000 seconds
Lattice spacing in x,y,z = 3 3 3
Created 21 atoms
  using lattice units in orthogonal box = (-63.63961 -100 -100) to (63.63961 100 100)
  create_atoms CPU = 0.003 seconds
Setting atom values ...
  30 settings made for diameter
Setting atom values ...
  30 settings made for mass
Setting atom values ...
  21 settings made for diameter
Setting atom values ...
  21 settings made for mass
30 atoms in group substrate
21 atoms in group slider1
51 atoms in group substrate_slider
  1 rigid bodies with 21 atoms
Generated 0 of 1 mixed pair_coeff terms from geometric mixing rule
Neighbor list info ...
  update every 1 steps, delay 0 steps, check yes
  max neighbors/atom: 2000, page size: 100000
  master list distance cutoff = 4.17
  ghost atom cutoff = 4.17
  binsize = 2.085, bins = 62 96 96
  1 neighbor lists, perpetual/occasional/extra = 1 0 0
  (1) pair granular, perpetual
      attributes: half, newton on, size, history
      pair build: half/size/bin/newton
      stencil: half/bin/3d
      bin: standard
Setting up Verlet run ...
  Unit style    : micro
  Current step  : 0
  Time step     : 1e-05
Per MPI rank memory allocation (min/avg/max) = 13.4 | 16.87 | 18.02 Mbytes
   Step           Lx             Ly             Lz           Press           Pxx            Pyy            Pzz           KinEng         PotEng          Temp          c_1[1]         c_1[2]         c_1[3]    
         0   127.27922      200            200            0              0              0              0              0              0              0              2.6109412e-16  0              6            
    100000   127.27922      200            200           -0.00040996016  6.9237947e-43  0             -0.0012298805   10396.743      0              5.020215e+10   2.6109412e-16  0              3.6704715    
    200000   127.27922      200            200           -0.00016003074 -5.809857e-38   0             -0.00048009223  97.767716      0              4.7208531e+08  2.6109412e-16  0              3.6911104    
    300000   127.27922      200            200            0.0002468776   3.8828891e-37  0              0.0007406328   176.22683      0              8.5093628e+08  2.6109412e-16  0              3.5636863    
    400000   127.27922      200            200            0.0032927351   1.2591325e-36  0              0.0098782052   152.04476      0              7.3416971e+08  2.6109412e-16  0              3.5316393    
    500000   127.27922      200            200            0.0022260163   3.1651349e-37  0              0.0066780488   10.714812      0              51737991       2.6109412e-16  0              3.5323318    
    600000   127.27922      200            200            0.006152006   -2.6496101e-36  0              0.018456018    0.84284477     0              4069795.8      2.6109412e-16  0              3.5296615    
    700000   127.27922      200            200            0.0048116347  -5.631767e-38   0              0.014434904    0.40263386     0              1944174.8      2.6109412e-16  0              3.5304546    
    800000   127.27922      200            200            0.0047046668  -2.7462239e-37  0              0.014114       0.023667473    0              114281.76      2.6109412e-16  0              3.5305305    
    900000   127.27922      200            200            0.0049270359  -1.9769117e-37  0              0.014781108    0.00022995785  0              1110.3842      2.6109412e-16  0              3.5303891    
   1000000   127.27922      200            200            0.0048408799   1.8505135e-38  0              0.01452264     0.0007733239   0              3734.1044      2.6109412e-16  0              3.5304426    
   1100000   127.27922      200            200            0.0048503181   2.6633107e-38  0              0.014550954    0.00011531238  0              556.8022       2.6109412e-16  0              3.5304371    
   1200000   127.27922      200            200            0.0048576259   1.8368458e-38  0              0.014572878    1.3769018e-06  0              6.648566       2.6109412e-16  0              3.5304324    
   1300000   127.27922      200            200            0.0048529904  -3.1892741e-39  0              0.014558971    8.3500386e-07  0              4.0319348      2.6109412e-16  0              3.5304353    
   1400000   127.27922      200            200            0.0048541329  -3.2206141e-39  0              0.014562399    3.3516231e-07  0              1.6183789      2.6109412e-16  0              3.5304346    
   1500000   127.27922      200            200            0.0048542349  -2.1314437e-39  0              0.014562705    2.0312486e-08  0              0.098081724    2.6109412e-16  0              3.5304345    
   1600000   127.27922      200            200            0.0048540334  -3.7618739e-41  0              0.0145621      1.642174e-10   0              0.00079294706  2.6109412e-16  0              3.5304346    
   1700000   127.27922      200            200            0.0048541122   1.1100841e-39  0              0.014562337    6.3396157e-10  0              0.0030611735   2.6109412e-16  0              3.5304346    
   1800000   127.27922      200            200            0.0048541033   2.3153157e-39  0              0.01456231     9.6874642e-11  0              0.00046777297  2.6109412e-16  0              3.5304346    
   1900000   127.27922      200            200            0.0048540967   1.1370483e-39  0              0.01456229     1.2501535e-12  0              6.0365439e-06  2.6109412e-16  0              3.5304346    
   2000000   127.27922      200            200            0.0048541009  -4.5523284e-42  0              0.014562303    6.6891145e-13  0              3.229934e-06   2.6109412e-16  0              3.5304346    
   2100000   127.27922      200            200            0.0048540999   1.9240241e-39  0              0.0145623      2.780724e-13   0              1.3427121e-06  2.6109412e-16  0              3.5304346    
   2200000   127.27922      200            200            0.0048540998  -2.7607601e-39  0              0.014562299    1.7370424e-14  0              8.3875559e-08  2.6109412e-16  0              3.5304346    
   2300000   127.27922      200            200            0.0048541     -1.3491075e-40  0              0.0145623      1.174592e-16   0              5.6716845e-10  2.6109412e-16  0              3.5304346    
   2400000   127.27922      200            200            0.0048540999   3.1468699e-39  0              0.0145623      5.1661669e-16  0              2.4945571e-09  2.6109412e-16  0              3.5304346    
   2500000   127.27922      200            200            0.0048540999  -1.9913054e-39  0              0.0145623      8.101604e-17   0              3.9119746e-10  2.6109412e-16  0              3.5304346    
   2600000   127.27922      200            200            0.0048540999   7.453884e-39   0              0.0145623      1.4527212e-18  0              7.014671e-12   2.6109412e-16  0              3.5304346    
   2700000   127.27922      200            200            0.0048540999   1.8281981e-39  0              0.0145623      2.0302153e-20  0              9.8031833e-14  2.6109412e-16  0              3.5304346    
   2800000   127.27922      200            200            0.0048540999   2.9248284e-39  0              0.0145623      3.0600749e-20  0              1.4776007e-13  2.6109412e-16  0              3.5304346    
   2900000   127.27922      200            200            0.0048540999  -1.3574274e-39  0              0.0145623      2.5252034e-20  0              1.2193303e-13  2.6109412e-16  0              3.5304346    
   3000000   127.27922      200            200            0.0048540999   2.3014545e-39  0              0.0145623      1.2771831e-20  0              6.1670602e-14  2.6109412e-16  0              3.5304346    
Loop time of 66.4292 on 4 procs for 3000000 steps with 51 atoms

Performance: 39019009.416 ns/day, 0.000 hours/ns, 45160.891 timesteps/s
100.0% CPU use with 4 MPI tasks x 1 OpenMP threads

MPI task timing breakdown:
Section |  min time  |  avg time  |  max time  |%varavg| %total
---------------------------------------------------------------
Pair    | 0.31556    | 1.25       | 3.9918     | 141.6 |  1.88
Neigh   | 0.03126    | 0.032071   | 0.033802   |   0.6 |  0.05
Comm    | 27.758     | 34.981     | 41.051     |  91.4 | 52.66
Output  | 0.06399    | 0.064171   | 0.064342   |   0.1 |  0.10
Modify  | 14.772     | 21.316     | 29.342     | 138.0 | 32.09
Other   |            | 8.786      |            |       | 13.23

Nlocal:          12.75 ave          51 max           0 min
Histogram: 3 0 0 0 0 0 0 0 0 1
Nghost:          39.25 ave          52 max           1 min
Histogram: 1 0 0 0 0 0 0 0 0 3
Neighs:           7.25 ave          29 max           0 min
Histogram: 3 0 0 0 0 0 0 0 0 1

Total # of neighbors = 29
Ave neighs/atom = 0.56862745
Neighbor list builds = 141
Dangerous builds = 0
  using 1 OpenMP thread(s) per MPI task
Lattice spacing in x,y,z = 4.2426407 4.2426407 4.2426407
Created orthogonal box = (-63.63961 -100 -100) to (63.63961 100 100)
  1 by 2 by 2 MPI processor grid
Created 30 atoms
  using lattice units in orthogonal box = (-63.63961 -100 -100) to (63.63961 100 100)
  create_atoms CPU = 0.000 seconds
Lattice spacing in x,y,z = 3 3 3
Created 21 atoms
  using lattice units in orthogonal box = (-63.63961 -100 -100) to (63.63961 100 100)
  create_atoms CPU = 0.002 seconds
Setting atom values ...
  30 settings made for diameter
Setting atom values ...
  30 settings made for mass
Setting atom values ...
  21 settings made for diameter
Setting atom values ...
  21 settings made for mass
30 atoms in group substrate
21 atoms in group slider1
51 atoms in group substrate_slider
  1 rigid bodies with 21 atoms
Generated 0 of 1 mixed pair_coeff terms from geometric mixing rule
Neighbor list info ...
  update every 1 steps, delay 0 steps, check yes
  max neighbors/atom: 2000, page size: 100000
  master list distance cutoff = 4.18
  ghost atom cutoff = 4.18
  binsize = 2.09, bins = 61 96 96
  1 neighbor lists, perpetual/occasional/extra = 1 0 0
  (1) pair granular, perpetual
      attributes: half, newton on, size, history
      pair build: half/size/bin/newton
      stencil: half/bin/3d
      bin: standard
Setting up Verlet run ...
  Unit style    : micro
  Current step  : 0
  Time step     : 1e-05
Per MPI rank memory allocation (min/avg/max) = 13.38 | 16.85 | 18.01 Mbytes
   Step           Lx             Ly             Lz           Press           Pxx            Pyy            Pzz           KinEng         PotEng          Temp          c_1[1]         c_1[2]         c_1[3]    
         0   127.27922      200            200            0              0              0              0              0              0              0              2.6109412e-16  0              6            
    100000   127.27922      200            200           -0.00042125641 -2.420805e-39   0             -0.0012637692   10250.289      0              4.9494977e+10  2.6109412e-16  0              3.6801511    
    200000   127.27922      200            200           -0.00014927279  9.6957247e-39  0             -0.00044781837  83.782683      0              4.0455659e+08  2.6109412e-16  0              3.696678     
    300000   127.27922      200            200            0.00026317797  7.8476474e-38  0              0.00078953392  197.67066      0              9.5448088e+08  2.6109412e-16  0              3.5676095    
    400000   127.27922      200            200            0.0048891607   5.9908359e-38  0              0.014667482    155.83644      0              7.524784e+08   2.6109412e-16  0              3.535563     
    500000   127.27922      200            200            0.0027131999   4.4853031e-36  0              0.0081395998   14.621946      0              70604146       2.6109412e-16  0              3.5369573    
    600000   127.27922      200            200            0.0063077812   4.733375e-36   0              0.018923344    0.32281437     0              1558755.1      2.6109412e-16  0              3.5345751    
    700000   127.27922      200            200            0.0046933225  -1.8031533e-37  0              0.014079968    0.36721492     0              1773149.4      2.6109412e-16  0              3.5355354    
    800000   127.27922      200            200            0.0047494762  -5.9942564e-37  0              0.014248429    0.037163353    0              179448.53      2.6109412e-16  0              3.5355083    
    900000   127.27922      200            200            0.0049345486  -4.4260745e-38  0              0.014803646    6.636679e-05   0              320.46148      2.6109412e-16  0              3.5353901    
   1000000   127.27922      200            200            0.0048415397   4.9002319e-38  0              0.014524619    0.00049725844  0              2401.083       2.6109412e-16  0              3.5354481    
   1100000   127.27922      200            200            0.0048601688   4.6909286e-39  0              0.014580506    0.00013416279  0              647.82409      2.6109412e-16  0              3.5354368    
   1200000   127.27922      200            200            0.0048639857   5.2859793e-39  0              0.014591957    5.8782626e-06  0              28.384026      2.6109412e-16  0              3.5354343    
   1300000   127.27922      200            200            0.0048596718   2.863735e-39   0              0.014579015    1.833049e-07   0              0.88511376     2.6109412e-16  0              3.535437     
   1400000   127.27922      200            200            0.0048611828   4.2631259e-40  0              0.014583549    2.8014334e-07  0              1.3527119      2.6109412e-16  0              3.5354361    
   1500000   127.27922      200            200            0.0048610565  -2.533236e-39   0              0.014583169    3.6403e-08     0              0.17577706     2.6109412e-16  0              3.5354361    
   1600000   127.27922      200            200            0.0048609114   4.5077026e-40  0              0.014582734    3.2540236e-10  0              0.0015712515   2.6109412e-16  0              3.5354362    
   1700000   127.27922      200            200            0.0048609967   9.8683452e-40  0              0.01458299     3.0074163e-10  0              0.0014521737   2.6109412e-16  0              3.5354362    
   1800000   127.27922      200            200            0.0048609762  -8.3821346e-40  0              0.014582929    1.1216649e-10  0              0.00054161185  2.6109412e-16  0              3.5354362    
   1900000   127.27922      200            200            0.0048609743   3.9464577e-40  0              0.014582923    6.9185805e-12  0              3.3407349e-05  2.6109412e-16  0              3.5354362    
   2000000   127.27922      200            200            0.004860978    2.8752617e-39  0              0.014582934    3.8842823e-14  0              1.8755809e-07  2.6109412e-16  0              3.5354362    
   2100000   127.27922      200            200            0.0048609765   2.3727094e-39  0              0.01458293     2.0117051e-13  0              9.7138041e-07  2.6109412e-16  0              3.5354362    
   2200000   127.27922      200            200            0.0048609767  -4.7441072e-39  0              0.01458293     3.3892601e-14  0              1.6365524e-07  2.6109412e-16  0              3.5354362    
   2300000   127.27922      200            200            0.0048609768  -5.761418e-39   0              0.01458293     6.6239764e-16  0              3.1984811e-09  2.6109412e-16  0              3.5354362    
   2400000   127.27922      200            200            0.0048609767   1.139525e-39   0              0.01458293     1.6275582e-16  0              7.8588963e-10  2.6109412e-16  0              3.5354362    
   2500000   127.27922      200            200            0.0048609767  -9.8560538e-40  0              0.01458293     9.0576889e-17  0              4.3736338e-10  2.6109412e-16  0              3.5354362    
   2600000   127.27922      200            200            0.0048609767  -2.8238568e-41  0              0.01458293     7.7692449e-18  0              3.7514903e-11  2.6109412e-16  0              3.5354362    
   2700000   127.27922      200            200            0.0048609767  -6.2743222e-39  0              0.01458293     2.8136618e-19  0              1.3586166e-12  2.6109412e-16  0              3.5354362    
   2800000   127.27922      200            200            0.0048609767   1.4640103e-39  0              0.01458293     1.3233944e-21  0              6.3901981e-15  2.6109412e-16  0              3.5354362    
   2900000   127.27922      200            200            0.0048609767   1.4013049e-39  0              0.01458293     3.6324453e-21  0              1.7539779e-14  2.6109412e-16  0              3.5354362    
   3000000   127.27922      200            200            0.0048609767   1.9963467e-40  0              0.01458293     1.5169081e-19  0              7.3246065e-13  2.6109412e-16  0              3.5354362    
Loop time of 66.4244 on 4 procs for 3000000 steps with 51 atoms

Performance: 39021827.346 ns/day, 0.000 hours/ns, 45164.152 timesteps/s
100.0% CPU use with 4 MPI tasks x 1 OpenMP threads

MPI task timing breakdown:
Section |  min time  |  avg time  |  max time  |%varavg| %total
---------------------------------------------------------------
Pair    | 0.32093    | 1.2312     | 3.9577     | 141.9 |  1.85
Neigh   | 0.030011   | 0.030632   | 0.032175   |   0.5 |  0.05
Comm    | 27.917     | 35.159     | 41.237     |  91.6 | 52.93
Output  | 0.062486   | 0.062676   | 0.06285    |   0.1 |  0.09
Modify  | 14.698     | 21.246     | 29.228     | 138.8 | 31.99
Other   |            | 8.695      |            |       | 13.09

Nlocal:          12.75 ave          51 max           0 min
Histogram: 3 0 0 0 0 0 0 0 0 1
Nghost:          39.25 ave          52 max           1 min
Histogram: 1 0 0 0 0 0 0 0 0 3
Neighs:           7.25 ave          29 max           0 min
Histogram: 3 0 0 0 0 0 0 0 0 1

Total # of neighbors = 29
Ave neighs/atom = 0.56862745
Neighbor list builds = 143
Dangerous builds = 0
  using 1 OpenMP thread(s) per MPI task
Lattice spacing in x,y,z = 4.2426407 4.2426407 4.2426407
Created orthogonal box = (-63.63961 -100 -100) to (63.63961 100 100)
  1 by 2 by 2 MPI processor grid
Created 30 atoms
  using lattice units in orthogonal box = (-63.63961 -100 -100) to (63.63961 100 100)
  create_atoms CPU = 0.000 seconds
Lattice spacing in x,y,z = 3 3 3
Created 21 atoms
  using lattice units in orthogonal box = (-63.63961 -100 -100) to (63.63961 100 100)
  create_atoms CPU = 0.003 seconds
Setting atom values ...
  30 settings made for diameter
Setting atom values ...
  30 settings made for mass
Setting atom values ...
  21 settings made for diameter
Setting atom values ...
  21 settings made for mass
30 atoms in group substrate
21 atoms in group slider1
51 atoms in group substrate_slider
  1 rigid bodies with 21 atoms
Generated 0 of 1 mixed pair_coeff terms from geometric mixing rule
Neighbor list info ...
  update every 1 steps, delay 0 steps, check yes
  max neighbors/atom: 2000, page size: 100000
  master list distance cutoff = 4.19
  ghost atom cutoff = 4.19
  binsize = 2.095, bins = 61 96 96
  1 neighbor lists, perpetual/occasional/extra = 1 0 0
  (1) pair granular, perpetual
      attributes: half, newton on, size, history
      pair build: half/size/bin/newton
      stencil: half/bin/3d
      bin: standard
Setting up Verlet run ...
  Unit style    : micro
  Current step  : 0
  Time step     : 1e-05
Per MPI rank memory allocation (min/avg/max) = 13.38 | 16.85 | 18.01 Mbytes
   Step           Lx             Ly             Lz           Press           Pxx            Pyy            Pzz           KinEng         PotEng          Temp          c_1[1]         c_1[2]         c_1[3]    
         0   127.27922      200            200            0              0              0              0              0              0              0              2.6109412e-16  0              6            
    100000   127.27922      200            200           -0.00043233205  9.4572142e-41  0             -0.0012969961   10104.958      0              4.8793225e+10  2.6109412e-16  0              3.6897995    
    200000   127.27922      200            200           -0.00013834291  9.6876928e-39  0             -0.00041502873  70.887545      0              3.4229059e+08  2.6109412e-16  0              3.7021966    
    300000   127.27922      200            200            0.00027964502  5.4330259e-37  0              0.00083893505  220.31796      0              1.0638366e+09  2.6109412e-16  0              3.5714693    
    400000   127.27922      200            200            0.0066937769   1.8405202e-36  0              0.020081331    151.72007      0              7.3260193e+08  2.6109412e-16  0              3.5394853    
    500000   127.27922      200            200            0.0033033774  -6.7398957e-38  0              0.0099101321   18.086145      0              87331520       2.6109412e-16  0              3.5415301    
    600000   127.27922      200            200            0.0063896504   4.7626433e-36  0              0.019168951    0.035876995    0              173237.17      2.6109412e-16  0              3.5395315    
    700000   127.27922      200            200            0.0045850803   4.995352e-37   0              0.013755241    0.29621479     0              1430315.2      2.6109412e-16  0              3.5406105    
    800000   127.27922      200            200            0.0048015341  -6.5130894e-38  0              0.014404602    0.048127444    0              232390.2       2.6109412e-16  0              3.5404816    
    900000   127.27922      200            200            0.0049366379   3.8153252e-37  0              0.014809914    0.00094858624  0              4580.3835      2.6109412e-16  0              3.5403945    
   1000000   127.27922      200            200            0.0048438145   2.9354261e-38  0              0.014531443    0.00022364991  0              1079.9254      2.6109412e-16  0              3.5404526    
   1100000   127.27922      200            200            0.0048700963   6.4790748e-40  0              0.014610289    0.00012863508  0              621.13278      2.6109412e-16  0              3.5404365    
   1200000   127.27922      200            200            0.0048700304  -6.9470897e-39  0              0.014610091    1.1683226e-05  0              56.414119      2.6109412e-16  0              3.5404364    
   1300000   127.27922      200            200            0.0048665051   4.9990962e-39  0              0.014599515    1.1152947e-08  0              0.053853588    2.6109412e-16  0              3.5404386    
   1400000   127.27922      200            200            0.0048682062   8.9208099e-41  0              0.014604619    1.6961488e-07  0              0.81900956     2.6109412e-16  0              3.5404375    
   1500000   127.27922      200            200            0.0048678668  -1.3408759e-39  0              0.0146036      4.4920541e-08  0              0.21690522     2.6109412e-16  0              3.5404377    
   1600000   127.27922      200            200            0.0048677995  -2.336178e-39   0              0.014603398    2.1147144e-09  0              0.010211199    2.6109412e-16  0              3.5404378    
   1700000   127.27922      200            200            0.0048678777  -3.9408425e-39  0              0.014603633    4.3708689e-11  0              0.00021105362  2.6109412e-16  0              3.5404377    
   1800000   127.27922      200            200            0.0048678493   2.3819499e-39  0              0.014603548    8.8283209e-11  0              0.00042628802  2.6109412e-16  0              3.5404378    
   1900000   127.27922      200            200            0.0048678523  -4.4599642e-41  0              0.014603557    1.3066091e-11  0              6.3091478e-05  2.6109412e-16  0              3.5404378    
   2000000   127.27922      200            200            0.0048678547   5.9245752e-40  0              0.014603564    2.1461116e-13  0              1.0362805e-06  2.6109412e-16  0              3.5404378    
   2100000   127.27922      200            200            0.0048678532  -1.1506598e-39  0              0.01460356     7.117541e-14   0              3.4368058e-07  2.6109412e-16  0              3.5404378    
   2200000   127.27922      200            200            0.0048678536   1.9898737e-39  0              0.014603561    3.6377815e-14  0              1.7565545e-07  2.6109412e-16  0              3.5404378    
   2300000   127.27922      200            200            0.0048678536   1.5437738e-39  0              0.014603561    3.0769715e-15  0              1.4857594e-08  2.6109412e-16  0              3.5404378    
   2400000   127.27922      200            200            0.0048678535  -3.091538e-39   0              0.014603561    4.565973e-19   0              2.2047449e-12  2.6109412e-16  0              3.5404378    
   2500000   127.27922      200            200            0.0048678536   3.2183732e-39  0              0.014603561    5.3086269e-17  0              2.563346e-10   2.6109412e-16  0              3.5404378    
   2600000   127.27922      200            200            0.0048678536   1.7135974e-39  0              0.014603561    1.2406106e-17  0              5.9904644e-11  2.6109412e-16  0              3.5404378    
   2700000   127.27922      200            200            0.0048678536   5.107952e-39   0              0.014603561    1.1705165e-18  0              5.6520051e-12  2.6109412e-16  0              3.5404378    
   2800000   127.27922      200            200            0.0048678536  -2.3318081e-39  0              0.014603561    7.0519332e-20  0              3.4051262e-13  2.6109412e-16  0              3.5404378    
   2900000   127.27922      200            200            0.0048678536   1.7927634e-39  0              0.014603561    1.192441e-20   0              5.7578708e-14  2.6109412e-16  0              3.5404378    
   3000000   127.27922      200            200            0.0048678536  -6.6908333e-41  0              0.014603561    1.6001832e-19  0              7.7267122e-13  2.6109412e-16  0              3.5404378    
Loop time of 66.2904 on 4 procs for 3000000 steps with 51 atoms

Performance: 39100660.776 ns/day, 0.000 hours/ns, 45255.394 timesteps/s
100.0% CPU use with 4 MPI tasks x 1 OpenMP threads

MPI task timing breakdown:
Section |  min time  |  avg time  |  max time  |%varavg| %total
---------------------------------------------------------------
Pair    | 0.31408    | 1.1936     | 3.8069     | 138.1 |  1.80
Neigh   | 0.032036   | 0.032664   | 0.034203   |   0.5 |  0.05
Comm    | 27.96      | 35.093     | 41.019     |  90.4 | 52.94
Output  | 0.065535   | 0.065711   | 0.06587    |   0.1 |  0.10
Modify  | 14.699     | 21.207     | 29.095     | 137.4 | 31.99
Other   |            | 8.698      |            |       | 13.12

Nlocal:          12.75 ave          51 max           0 min
Histogram: 3 0 0 0 0 0 0 0 0 1
Nghost:          39.25 ave          52 max           1 min
Histogram: 1 0 0 0 0 0 0 0 0 3
Neighs:           7.25 ave          29 max           0 min
Histogram: 3 0 0 0 0 0 0 0 0 1

Total # of neighbors = 29
Ave neighs/atom = 0.56862745
Neighbor list builds = 143
Dangerous builds = 0
  using 1 OpenMP thread(s) per MPI task
Lattice spacing in x,y,z = 4.2426407 4.2426407 4.2426407
Created orthogonal box = (-63.63961 -100 -100) to (63.63961 100 100)
  1 by 2 by 2 MPI processor grid
Created 30 atoms
  using lattice units in orthogonal box = (-63.63961 -100 -100) to (63.63961 100 100)
  create_atoms CPU = 0.001 seconds
Lattice spacing in x,y,z = 3 3 3
Created 21 atoms
  using lattice units in orthogonal box = (-63.63961 -100 -100) to (63.63961 100 100)
  create_atoms CPU = 0.003 seconds
Setting atom values ...
  30 settings made for diameter
Setting atom values ...
  30 settings made for mass
Setting atom values ...
  21 settings made for diameter
Setting atom values ...
  21 settings made for mass
30 atoms in group substrate
21 atoms in group slider1
51 atoms in group substrate_slider
  1 rigid bodies with 21 atoms
Generated 0 of 1 mixed pair_coeff terms from geometric mixing rule
Neighbor list info ...
  update every 1 steps, delay 0 steps, check yes
  max neighbors/atom: 2000, page size: 100000
  master list distance cutoff = 4.2
  ghost atom cutoff = 4.2
  binsize = 2.1, bins = 61 96 96
  1 neighbor lists, perpetual/occasional/extra = 1 0 0
  (1) pair granular, perpetual
      attributes: half, newton on, size, history
      pair build: half/size/bin/newton
      stencil: half/bin/3d
      bin: standard
Setting up Verlet run ...
  Unit style    : micro
  Current step  : 0
  Time step     : 1e-05
Per MPI rank memory allocation (min/avg/max) = 13.38 | 16.85 | 18.01 Mbytes
   Step           Lx             Ly             Lz           Press           Pxx            Pyy            Pzz           KinEng         PotEng          Temp          c_1[1]         c_1[2]         c_1[3]    
         0   127.27922      200            200            0              0              0              0              0              0              0              2.6109412e-16  0              6            
    100000   127.27922      200            200           -0.00044318741 -2.4206372e-39  0             -0.0013295622   9960.7529      0              4.8096911e+10  2.6109412e-16  0              3.6994166    
    200000   127.27922      200            200           -0.00012724287 -4.8413844e-39  0             -0.0003817286   59.080241      0              2.8527734e+08  2.6109412e-16  0              3.7076659    
    300000   127.27922      200            200            0.00029627607  1.5718571e-37  0              0.00088882822  244.16241      0              1.1789729e+09  2.6109412e-16  0              3.5752656    
    400000   127.27922      200            200            0.0087095133   5.3939584e-05  0              0.0260746      139.22356      0              6.7226075e+08  2.6109412e-16  0              3.5434353    
    500000   127.27922      200            200            0.0039872686   9.2078285e-37  0              0.011961806    20.588024      0              99412199       2.6109412e-16  0              3.5460644    
    600000   127.27922      200            200            0.0063924155   5.9699037e-36  0              0.019177247    0.039449425    0              190487.16      2.6109412e-16  0              3.5445333    
    700000   127.27922      200            200            0.004492976    1.7539385e-36  0              0.013478928    0.20519567     0              990816.44      2.6109412e-16  0              3.545676     
    800000   127.27922      200            200            0.0048580236  -3.0832239e-38  0              0.014574071    0.053786533    0              259715.92      2.6109412e-16  0              3.5454522    
    900000   127.27922      200            200            0.0049336534  -4.1729063e-38  0              0.01480096     0.0026137338   0              12620.785      2.6109412e-16  0              3.5454021    
   1000000   127.27922      200            200            0.0048480866   1.2768446e-37  0              0.01454426     4.0836371e-05  0              197.18422      2.6109412e-16  0              3.5454559    
   1100000   127.27922      200            200            0.0048798146   1.5651306e-38  0              0.014639444    0.00010081336  0              486.79166      2.6109412e-16  0              3.5454363    
   1200000   127.27922      200            200            0.0048758473  -2.2138752e-39  0              0.014627542    1.6411702e-05  0              79.246233      2.6109412e-16  0              3.5454386    
   1300000   127.27922      200            200            0.0048734951  -6.7982114e-39  0              0.014620485    3.9096896e-07  0              1.8878492      2.6109412e-16  0              3.5454401    
   1400000   127.27922      200            200            0.0048751841   2.2237395e-40  0              0.014625552    5.855767e-08   0              0.28275403     2.6109412e-16  0              3.545439     
   1500000   127.27922      200            200            0.0048746753  -3.0654486e-39  0              0.014624026    4.1258238e-08  0              0.19922127     2.6109412e-16  0              3.5454394    
   1600000   127.27922      200            200            0.0048746959  -3.7521003e-39  0              0.014624088    4.4523915e-09  0              0.021499005    2.6109412e-16  0              3.5454393    
   1700000   127.27922      200            200            0.0048747547   2.2379929e-39  0              0.014624264    2.693593e-11   0              0.00013006397  2.6109412e-16  0              3.5454393    
   1800000   127.27922      200            200            0.0048747231  -1.3989062e-39  0              0.014624169    4.2094368e-11  0              0.00020325864  2.6109412e-16  0              3.5454393    
   1900000   127.27922      200            200            0.0048747306  -7.7315251e-40  0              0.014624192    1.5051702e-11  0              7.2679281e-05  2.6109412e-16  0              3.5454393    
[...]
   3000000   127.27922      200            200            0.0054867358   1.3216663e-13  0              0.016460207    7.481212e-22   0              3.6124095e-15  2.6109412e-16  0              3.9905569    
Loop time of 66.5039 on 4 procs for 3000000 steps with 51 atoms

Performance: 38975129.328 ns/day, 0.000 hours/ns, 45110.103 timesteps/s
99.9% CPU use with 4 MPI tasks x 1 OpenMP threads

MPI task timing breakdown:
Section |  min time  |  avg time  |  max time  |%varavg| %total
---------------------------------------------------------------
Pair    | 0.29453    | 2.7475     | 10.089     | 255.7 |  4.13
Neigh   | 0.015697   | 0.016241   | 0.017609   |   0.6 |  0.02
Comm    | 28.128     | 34.154     | 41.791     |  84.2 | 51.36
Output  | 0.086822   | 0.087007   | 0.087169   |   0.0 |  0.13
Modify  | 14.57      | 21.056     | 29.257     | 140.9 | 31.66
Other   |            | 8.444      |            |       | 12.70

Nlocal:          12.75 ave          51 max           0 min
Histogram: 3 0 0 0 0 0 0 0 0 1
Nghost:          41.25 ave          54 max           3 min
Histogram: 1 0 0 0 0 0 0 0 0 3
Neighs:          14.75 ave          59 max           0 min
Histogram: 3 0 0 0 0 0 0 0 0 1

Total # of neighbors = 59
Ave neighs/atom = 1.1568627
Neighbor list builds = 126
Dangerous builds = 0
  using 1 OpenMP thread(s) per MPI task
Lattice spacing in x,y,z = 4.2426407 4.2426407 4.2426407
Created orthogonal box = (-63.63961 -100 -100) to (63.63961 100 100)
  1 by 2 by 2 MPI processor grid
Created 30 atoms
  using lattice units in orthogonal box = (-63.63961 -100 -100) to (63.63961 100 100)
  create_atoms CPU = 0.000 seconds
Lattice spacing in x,y,z = 3 3 3
Created 21 atoms
  using lattice units in orthogonal box = (-63.63961 -100 -100) to (63.63961 100 100)
  create_atoms CPU = 0.002 seconds
Setting atom values ...
  30 settings made for diameter
Setting atom values ...
  30 settings made for mass
Setting atom values ...
  21 settings made for diameter
Setting atom values ...
  21 settings made for mass
30 atoms in group substrate
21 atoms in group slider1
51 atoms in group substrate_slider
  1 rigid bodies with 21 atoms
Generated 0 of 1 mixed pair_coeff terms from geometric mixing rule
Neighbor list info ...
  update every 1 steps, delay 0 steps, check yes
  max neighbors/atom: 2000, page size: 100000
  master list distance cutoff = 5.1
  ghost atom cutoff = 5.1
  binsize = 2.55, bins = 50 79 79
  1 neighbor lists, perpetual/occasional/extra = 1 0 0
  (1) pair granular, perpetual
      attributes: half, newton on, size, history
      pair build: half/size/bin/newton
      stencil: half/bin/3d
      bin: standard
Setting up Verlet run ...
  Unit style    : micro
  Current step  : 0
  Time step     : 1e-05
Per MPI rank memory allocation (min/avg/max) = 13.08 | 16.54 | 17.7 Mbytes
   Step           Lx             Ly             Lz           Press           Pxx            Pyy            Pzz           KinEng         PotEng          Temp          c_1[1]         c_1[2]         c_1[3]    
         0   127.27922      200            200            4.4987728e-14  1.3496319e-13  0              0              0              0              0              2.6109412e-16  0              6            
    100000   127.27922      200            200           -0.00059310249  1.3496319e-13  0             -0.0017793075   1346.7185      0              6.5028215e+09  2.6109412e-16  0              4.4295218    
    200000   127.27922      200            200            0.085062948    0.010750717    0              0.24443813     1640.7978      0              7.9228253e+09  2.6109412e-16  0              3.984565     
    300000   127.27922      200            200            0.030890676    0.0068939463   0              0.085778082    450.73647      0              2.1764451e+09  2.6109412e-16  0              3.9901361    
    400000   127.27922      200            200            0.0069676054   1.3496319e-13  0              0.020902816    115.59315      0              5.5815795e+08  2.6109412e-16  0              3.9947013    
    500000   127.27922      200            200            0.0063728214   1.3496319e-13  0              0.019118464    15.496082      0              74825035       2.6109412e-16  0              3.9951349    
    600000   127.27922      200            200            0.0043316264   1.3496319e-13  0              0.012994879    0.73729187     0              3560118.6      2.6109412e-16  0              3.9961998    
    700000   127.27922      200            200            0.0060267185   1.3496319e-13  0              0.018080156    0.0092064167   0              44454.491      2.6109412e-16  0              3.9952758    
    800000   127.27922      200            200            0.0053092084   1.3496319e-13  0              0.015927625    0.0043951455   0              21222.585      2.6109412e-16  0              3.9956587    
    900000   127.27922      200            200            0.0055402964   1.3496319e-13  0              0.016620889    0.0031162324   0              15047.171      2.6109412e-16  0              3.9955323    
   1000000   127.27922      200            200            0.0054888669   1.3496319e-13  0              0.016466601    0.00070659686  0              3411.9034      2.6109412e-16  0              3.9955608    
   1100000   127.27922      200            200            0.0054903072   1.3496319e-13  0              0.016470921    8.8433269e-05  0              427.01261      2.6109412e-16  0              3.9955597    
   1200000   127.27922      200            200            0.0054963586   1.3496319e-13  0              0.016489076    5.7557258e-06  0              27.79234       2.6109412e-16  0              3.9955566    
   1300000   127.27922      200            200            0.0054923077   1.3496319e-13  0              0.016476923    6.6028006e-08  0              0.31882561     2.6109412e-16  0              3.9955587    
   1400000   127.27922      200            200            0.0054940719   1.3496319e-13  0              0.016482216    2.5854566e-08  0              0.12484245     2.6109412e-16  0              3.9955578    
   1500000   127.27922      200            200            0.0054934952   1.3496319e-13  0              0.016480486    1.8850494e-08  0              0.091022288    2.6109412e-16  0              3.9955581    
   1600000   127.27922      200            200            0.0054936242   1.3496319e-13  0              0.016480873    4.3275403e-09  0              0.020896143    2.6109412e-16  0              3.995558     
   1700000   127.27922      200            200            0.00549362     1.3496319e-13  0              0.01648086     5.4593493e-10  0              0.0026361244   2.6109412e-16  0              3.995558     
   1800000   127.27922      200            200            0.0054936052   1.3496319e-13  0              0.016480816    3.5951239e-11  0              0.00017359567  2.6109412e-16  0              3.995558     
   1900000   127.27922      200            200            0.0054936152   1.3496319e-13  0              0.016480846    4.3726292e-13  0              2.1113861e-06  2.6109412e-16  0              3.995558     
   2000000   127.27922      200            200            0.0054936108   1.3496319e-13  0              0.016480833    1.5192996e-13  0              7.336154e-07   2.6109412e-16  0              3.995558     
   2100000   127.27922      200            200            0.0054936123   1.3496319e-13  0              0.016480837    1.1426735e-13  0              5.5175612e-07  2.6109412e-16  0              3.995558     
   2200000   127.27922      200            200            0.005493612    1.3496319e-13  0              0.016480836    2.6494784e-14  0              1.2793383e-07  2.6109412e-16  0              3.995558     
   2300000   127.27922      200            200            0.005493612    1.3496319e-13  0              0.016480836    3.371764e-15   0              1.6281042e-08  2.6109412e-16  0              3.995558     
   2400000   127.27922      200            200            0.005493612    1.3496319e-13  0              0.016480836    2.1982284e-16  0              1.0614458e-09  2.6109412e-16  0              3.995558     
   2500000   127.27922      200            200            0.005493612    1.3496319e-13  0              0.016480836    3.1294713e-18  0              1.5111097e-11  2.6109412e-16  0              3.995558     
   2600000   127.27922      200            200            0.005493612    1.3496319e-13  0              0.016480836    9.6517849e-19  0              4.6605015e-12  2.6109412e-16  0              3.995558     
   2700000   127.27922      200            200            0.005493612    1.3496319e-13  0              0.016480836    5.9987952e-19  0              2.8966035e-12  2.6109412e-16  0              3.995558     
   2800000   127.27922      200            200            0.005493612    1.3496319e-13  0              0.016480836    1.036406e-19   0              5.0044336e-13  2.6109412e-16  0              3.995558     
   2900000   127.27922      200            200            0.005493612    1.3496319e-13  0              0.016480836    2.3950098e-20  0              1.1564645e-13  2.6109412e-16  0              3.995558     
   3000000   127.27922      200            200            0.005493612    1.3496319e-13  0              0.016480836    5.9400433e-20  0              2.8682343e-13  2.6109412e-16  0              3.995558     
Loop time of 66.4638 on 4 procs for 3000000 steps with 51 atoms

Performance: 38998658.438 ns/day, 0.000 hours/ns, 45137.336 timesteps/s
100.0% CPU use with 4 MPI tasks x 1 OpenMP threads

MPI task timing breakdown:
Section |  min time  |  avg time  |  max time  |%varavg| %total
---------------------------------------------------------------
Pair    | 0.31055    | 2.7892     | 10.193     | 256.0 |  4.20
Neigh   | 0.015889   | 0.016396   | 0.017697   |   0.6 |  0.02
Comm    | 28.094     | 34.157     | 41.852     |  84.7 | 51.39
Output  | 0.069685   | 0.06985    | 0.069997   |   0.0 |  0.11
Modify  | 14.488     | 20.969     | 29.209     | 141.3 | 31.55
Other   |            | 8.463      |            |       | 12.73

Nlocal:          12.75 ave          51 max           0 min
Histogram: 3 0 0 0 0 0 0 0 0 1
Nghost:          41.25 ave          54 max           3 min
Histogram: 1 0 0 0 0 0 0 0 0 3
Neighs:          14.75 ave          59 max           0 min
Histogram: 3 0 0 0 0 0 0 0 0 1

Total # of neighbors = 59
Ave neighs/atom = 1.1568627
Neighbor list builds = 128
Dangerous builds = 0
  using 1 OpenMP thread(s) per MPI task
Lattice spacing in x,y,z = 4.2426407 4.2426407 4.2426407
Created orthogonal box = (-63.63961 -100 -100) to (63.63961 100 100)
  1 by 2 by 2 MPI processor grid
Created 30 atoms
  using lattice units in orthogonal box = (-63.63961 -100 -100) to (63.63961 100 100)
  create_atoms CPU = 0.000 seconds
Lattice spacing in x,y,z = 3 3 3
Created 21 atoms
  using lattice units in orthogonal box = (-63.63961 -100 -100) to (63.63961 100 100)
  create_atoms CPU = 0.002 seconds
Setting atom values ...
  30 settings made for diameter
Setting atom values ...
  30 settings made for mass
Setting atom values ...
  21 settings made for diameter
Setting atom values ...
  21 settings made for mass
30 atoms in group substrate
21 atoms in group slider1
51 atoms in group substrate_slider
  1 rigid bodies with 21 atoms
Generated 0 of 1 mixed pair_coeff terms from geometric mixing rule
Neighbor list info ...
  update every 1 steps, delay 0 steps, check yes
  max neighbors/atom: 2000, page size: 100000
  master list distance cutoff = 5.11
  ghost atom cutoff = 5.11
  binsize = 2.555, bins = 50 79 79
  1 neighbor lists, perpetual/occasional/extra = 1 0 0
  (1) pair granular, perpetual
      attributes: half, newton on, size, history
      pair build: half/size/bin/newton
      stencil: half/bin/3d
      bin: standard
Setting up Verlet run ...
  Unit style    : micro
  Current step  : 0
  Time step     : 1e-05
Per MPI rank memory allocation (min/avg/max) = 13.08 | 16.54 | 17.7 Mbytes
   Step           Lx             Ly             Lz           Press           Pxx            Pyy            Pzz           KinEng         PotEng          Temp          c_1[1]         c_1[2]         c_1[3]    
         0   127.27922      200            200            4.5927533e-14  1.377826e-13   0              0              0              0              0              2.6109412e-16  0              6            
    100000   127.27922      200            200           -0.00058639213  1.377826e-13   0             -0.0017591764   1297.0227      0              6.2628585e+09  2.6109412e-16  0              4.4360341    
    200000   127.27922      200            200            0.11982134     0.005534784    0              0.35392924     659.43318      0              3.1841668e+09  2.6109412e-16  0              3.9868428    
    300000   127.27922      200            200            0.044616969    0.011506169    0              0.12234474     253.97757      0              1.2263668e+09  2.6109412e-16  0              3.9933657    
    400000   127.27922      200            200            0.0048144058   1.377826e-13   0              0.014443217    117.15721      0              5.6571025e+08  2.6109412e-16  0              4.0008307    
    500000   127.27922      200            200            0.0073015028   1.377826e-13   0              0.021904508    13.130477      0              63402374       2.6109412e-16  0              3.9996699    
    600000   127.27922      200            200            0.0041791958   1.377826e-13   0              0.012537587    0.28408825     0              1371760.5      2.6109412e-16  0              4.0012968    
    700000   127.27922      200            200            0.0060380012   1.377826e-13   0              0.018114004    0.002687598    0              12977.449      2.6109412e-16  0              4.0002736    
    800000   127.27922      200            200            0.0053419866   1.377826e-13   0              0.01602596     0.013456751    0              64977.836      2.6109412e-16  0              4.0006461    
    900000   127.27922      200            200            0.005528906    1.377826e-13   0              0.016586718    0.0045238424   0              21844.016      2.6109412e-16  0              4.0005431    
   1000000   127.27922      200            200            0.0055039453   1.377826e-13   0              0.016511836    0.00071904984  0              3472.0343      2.6109412e-16  0              4.0005575    
   1100000   127.27922      200            200            0.005494435    1.377826e-13   0              0.016483305    6.1941598e-05  0              299.09381      2.6109412e-16  0              4.0005623    
   1200000   127.27922      200            200            0.0055038488   1.377826e-13   0              0.016511546    1.8291636e-06  0              8.8323765      2.6109412e-16  0              4.0005573    
   1300000   127.27922      200            200            0.0054991808   1.377826e-13   0              0.016497542    4.3850491e-08  0              0.21173833     2.6109412e-16  0              4.0005598    
   1400000   127.27922      200            200            0.0055008607   1.377826e-13   0              0.016502582    9.9554272e-08  0              0.48071195     2.6109412e-16  0              4.0005589    
   1500000   127.27922      200            200            0.0055004293   1.377826e-13   0              0.016501288    2.9350172e-08  0              0.14172148     2.6109412e-16  0              4.0005592    
   1600000   127.27922      200            200            0.005500475    1.377826e-13   0              0.016501425    4.318003e-09   0              0.020850091    2.6109412e-16  0              4.0005591    
   1700000   127.27922      200            200            0.0055005045   1.377826e-13   0              0.016501513    3.3848351e-10  0              0.0016344158   2.6109412e-16  0              4.0005591    
   1800000   127.27922      200            200            0.0055004796   1.377826e-13   0              0.016501439    7.5601446e-12  0              3.6505233e-05  2.6109412e-16  0              4.0005591    
   1900000   127.27922      200            200            0.0055004914   1.377826e-13   0              0.016501474    5.6209886e-13  0              2.7141742e-06  2.6109412e-16  0              4.0005591    
   2000000   127.27922      200            200            0.0055004873   1.377826e-13   0              0.016501462    7.1657773e-13  0              3.4600974e-06  2.6109412e-16  0              4.0005591    
   2100000   127.27922      200            200            0.0055004883   1.377826e-13   0              0.016501465    1.885167e-13   0              9.1027967e-07  2.6109412e-16  0              4.0005591    
   2200000   127.27922      200            200            0.0055004882   1.377826e-13   0              0.016501465    2.5652065e-14  0              1.2386464e-07  2.6109412e-16  0              4.0005591    
   2300000   127.27922      200            200            0.0055004881   1.377826e-13   0              0.016501464    1.814392e-15   0              8.7610497e-09  2.6109412e-16  0              4.0005591    
   2400000   127.27922      200            200            0.0055004882   1.377826e-13   0              0.016501465    2.8567776e-17  0              1.3794357e-10  2.6109412e-16  0              4.0005591    
   2500000   127.27922      200            200            0.0055004882   1.377826e-13   0              0.016501464    4.2041067e-18  0              2.0300127e-11  2.6109412e-16  0              4.0005591    
   2600000   127.27922      200            200            0.0055004882   1.377826e-13   0              0.016501464    4.3661373e-18  0              2.1082514e-11  2.6109412e-16  0              4.0005591    
   2700000   127.27922      200            200            0.0055004882   1.377826e-13   0              0.016501464    1.0414647e-18  0              5.0288602e-12  2.6109412e-16  0              4.0005591    
   2800000   127.27922      200            200            0.0055004882   1.377826e-13   0              0.016501464    5.727749e-19   0              2.765725e-12   2.6109412e-16  0              4.0005591    
   2900000   127.27922      200            200            0.0055004882   1.377826e-13   0              0.016501464    7.4577392e-20  0              3.6010754e-13  2.6109412e-16  0              4.0005591    
   3000000   127.27922      200            200            0.0055004882   1.377826e-13   0              0.016501464    9.9514423e-20  0              4.8051953e-13  2.6109412e-16  0              4.0005591    
Loop time of 66.4591 on 4 procs for 3000000 steps with 51 atoms

Performance: 39001443.835 ns/day, 0.000 hours/ns, 45140.560 timesteps/s
99.9% CPU use with 4 MPI tasks x 1 OpenMP threads

MPI task timing breakdown:
Section |  min time  |  avg time  |  max time  |%varavg| %total
---------------------------------------------------------------
Pair    | 0.30159    | 2.7652     | 10.108     | 255.0 |  4.16
Neigh   | 0.016573   | 0.017138   | 0.018483   |   0.6 |  0.03
Comm    | 28.19      | 34.176     | 41.822     |  84.1 | 51.42
Output  | 0.084968   | 0.085133   | 0.085273   |   0.0 |  0.13
Modify  | 14.524     | 20.985     | 29.196     | 141.1 | 31.58
Other   |            | 8.431      |            |       | 12.69

Nlocal:          12.75 ave          51 max           0 min
Histogram: 3 0 0 0 0 0 0 0 0 1
Nghost:          41.25 ave          54 max           3 min
Histogram: 1 0 0 0 0 0 0 0 0 3
Neighs:          14.75 ave          59 max           0 min
Histogram: 3 0 0 0 0 0 0 0 0 1

Total # of neighbors = 59
Ave neighs/atom = 1.1568627
Neighbor list builds = 130
Dangerous builds = 0
  using 1 OpenMP thread(s) per MPI task
Total wall time: 1:51:42
