ITEM: TIMESTEP
600000
ITEM: NUMBER OF ATOMS
51
ITEM: BOX BOUNDS pp pp pp
-8.9549999999999997e+01 8.9549999999999997e+01
-1.0000000000000000e+02 1.0000000000000000e+02
-1.0000000000000000e+02 1.0000000000000000e+02
ITEM: ATOMS id type diameter mass xu yu zu fx fy fz
1 1 3 31.1018 -89.55 0 0 0 0 0
2 1 3 31.1018 -83.58 0 0 0 0 0
3 1 3 31.1018 -77.61 0 0 0 0 0
4 1 3 31.1018 -71.64 0 0 0 0 0
5 1 3 31.1018 -65.67 0 0 0 0 0
6 1 3 31.1018 -59.7 0 0 0 0 0
7 1 3 31.1018 -53.73 0 0 0 0 0
8 1 3 31.1018 -47.76 0 0 0 0 0
9 1 3 31.1018 -41.79 0 0 0 0 0
10 1 3 31.1018 -35.82 0 0 0 0 0
11 1 3 31.1018 -29.85 0 0 0 0 0
12 1 3 31.1018 -23.88 0 0 0 0 0
13 1 3 31.1018 -17.91 0 0 0 0 0
14 1 3 31.1018 -11.94 0 0 0 0 0
15 1 3 31.1018 -5.97 0 0 0 0 0
16 1 3 31.1018 0 0 0 0 0 0
17 1 3 31.1018 5.97 0 0 0 0 0
18 1 3 31.1018 11.94 0 0 0 0 0
19 1 3 31.1018 17.91 0 0 0 0 0
20 1 3 31.1018 23.88 0 0 0 0 0
21 1 3 31.1018 29.85 0 0 0 0 0
22 1 3 31.1018 35.82 0 0 0 0 0
23 1 3 31.1018 41.79 0 0 0 0 0
24 1 3 31.1018 47.76 0 0 0 0 0
25 1 3 31.1018 53.73 0 0 0 0 0
26 1 3 31.1018 59.7 0 0 0 0 0
27 1 3 31.1018 65.67 0 0 0 0 0
28 1 3 31.1018 71.64 0 0 0 0 0
29 1 3 31.1018 77.61 0 0 0 0 0
30 1 3 31.1018 83.58 0 0 0 0 0
31 2 3 31.1018 -30 0 2.99746 0 0 -1000
32 2 3 31.1018 -27 0 2.99746 0 0 -1000
33 2 3 31.1018 -24 0 2.99746 -5.10535 0 -897.979
34 2 3 31.1018 -21 0 2.99746 0 0 -1000
35 2 3 31.1018 -18 0 2.99746 -56.0957 0 1596.07
36 2 3 31.1018 -15 0 2.99746 0 0 -1000
37 2 3 31.1018 -12 0 2.99746 -57.0728 0 4412.77
38 2 3 31.1018 -9 0 2.99746 0 0 -1000
39 2 3 31.1018 -6 0 2.99746 -3.1708 0 6405.5
40 2 3 31.1018 -3 0 2.99746 0 0 -1000
41 2 3 31.1018 4.36197e-19 0 2.99746 -7.19824e-14 0 7114.23
42 2 3 31.1018 3 0 2.99746 0 0 -1000
43 2 3 31.1018 6 0 2.99746 3.1708 0 6405.5
44 2 3 31.1018 9 0 2.99746 0 0 -1000
45 2 3 31.1018 12 0 2.99746 57.0728 0 4412.77
46 2 3 31.1018 15 0 2.99746 0 0 -1000
47 2 3 31.1018 18 0 2.99746 56.0957 0 1596.07
48 2 3 31.1018 21 0 2.99746 0 0 -1000
49 2 3 31.1018 24 0 2.99746 5.10535 0 -897.979
50 2 3 31.1018 27 0 2.99746 0 0 -1000
51 2 3 31.1018 30 0 2.99746 0 0 -1000
