ITEM: TIMESTEP
1000000
ITEM: NUMBER OF ATOMS
51
ITEM: BOX BOUNDS pp pp pp
-9.1950000000000003e+01 9.1950000000000003e+01
-1.0000000000000000e+02 1.0000000000000000e+02
-1.0000000000000000e+02 1.0000000000000000e+02
ITEM: ATOMS id type diameter mass xu yu zu fx fy fz
1 1 3 31.1018 -91.95 0 0 0 0 0
2 1 3 31.1018 -85.82 0 0 0 0 0
3 1 3 31.1018 -79.69 0 0 0 0 0
4 1 3 31.1018 -73.56 0 0 0 0 0
5 1 3 31.1018 -67.43 0 0 0 0 0
6 1 3 31.1018 -61.3 0 0 0 0 0
7 1 3 31.1018 -55.17 0 0 0 0 0
8 1 3 31.1018 -49.04 0 0 0 0 0
9 1 3 31.1018 -42.91 0 0 0 0 0
10 1 3 31.1018 -36.78 0 0 0 0 0
11 1 3 31.1018 -30.65 0 0 0 0 0
12 1 3 31.1018 -24.52 0 0 0 0 0
13 1 3 31.1018 -18.39 0 0 0 0 0
14 1 3 31.1018 -12.26 0 0 0 0 0
15 1 3 31.1018 -6.13 0 0 0 0 0
16 1 3 31.1018 0 0 0 0 0 0
17 1 3 31.1018 6.13 0 0 0 0 0
18 1 3 31.1018 12.26 0 0 0 0 0
19 1 3 31.1018 18.39 0 0 0 0 0
20 1 3 31.1018 24.52 0 0 0 0 0
21 1 3 31.1018 30.65 0 0 0 0 0
22 1 3 31.1018 36.78 0 0 0 0 0
23 1 3 31.1018 42.91 0 0 0 0 0
24 1 3 31.1018 49.04 0 0 0 0 0
25 1 3 31.1018 55.17 0 0 0 0 0
26 1 3 31.1018 61.3 0 0 0 0 0
27 1 3 31.1018 67.43 0 0 0 0 0
28 1 3 31.1018 73.56 0 0 0 0 0
29 1 3 31.1018 79.69 0 0 0 0 0
30 1 3 31.1018 85.82 0 0 0 0 0
31 2 3 31.1018 -30 0 2.99603 0 0 -1000
32 2 3 31.1018 -27 0 2.99603 0 0 -1000
33 2 3 31.1018 -24 0 2.99603 0 0 -1000
34 2 3 31.1018 -21 0 2.99603 0 0 -1000
35 2 3 31.1018 -18 0 2.99603 0 0 -1000
36 2 3 31.1018 -15 0 2.99603 0 0 -1000
37 2 3 31.1018 -12 0 2.99603 0 0 -1000
38 2 3 31.1018 -9 0 2.99603 0 0 -1000
39 2 3 31.1018 -6 0 2.99603 104.251 0 1482.06
40 2 3 31.1018 -3 0 2.99603 0 0 -1000
41 2 3 31.1018 2.5955e-17 0 2.99603 -6.65373e-13 0 14883.3
42 2 3 31.1018 3 0 2.99603 0 0 -1000
43 2 3 31.1018 6 0 2.99603 -104.251 0 1482.06
44 2 3 31.1018 9 0 2.99603 0 0 -1000
45 2 3 31.1018 12 0 2.99603 0 0 -1000
46 2 3 31.1018 15 0 2.99603 0 0 -1000
47 2 3 31.1018 18 0 2.99603 0 0 -1000
48 2 3 31.1018 21 0 2.99603 0 0 -1000
49 2 3 31.1018 24 0 2.99603 0 0 -1000
50 2 3 31.1018 27 0 2.99603 0 0 -1000
51 2 3 31.1018 30 0 2.99603 0 0 -1000
