LAMMPS (23 Jun 2022 - Update 1)
  using 1 OpenMP thread(s) per MPI task
variable num index 0 1 2 3 4 5 6 7 8 9 10 11 12 13 14 15 16 17 18 19 20 21 22 23 24 25 26 27 28 29 30 31 32 33 34 35 36 37 38 39 40 41 42 43 44 45 46 47 48 49 50 51 52 53 54 55 56 57 58 59 60 61 62 63 64 65 66 67 68 69 70 71 72 73 74 75 76 77 78 79 80 81 82 83 84 85 86 87 88 89 90 91 92 93 94 95 96 97 98 99

label startloop

include granular.in
### Simulation of contact between two chain

##################### Simulation setup ####################

units micro                              # units
dimension	3                            # dimension
boundary	p p p                        # boundary condition p: periodic
atom_style	sphere                       # atom style
#processors * * 1

####################### Parameter ##################################

variable ind equal ${num}
variable ind equal 0

#variable lat0 equal 1                    #
variable lat1 equal 3+(251*0.01)+(v_ind*0.01)  # .491+(v_ind*0.001)       # Lattice distance of bottom chain
variable lat2 equal 3                    # Lattice distance of top chain
variable d1 equal 3                      # Diamter of particle at bottom chain
variable d2 equal 3                      # Diamter of particle at top chain
#variable d3 equal 1                      # Diamter of supporting particle

variable n2e1 equal 10*v_lat2             # Half length of top chain. 1500 is number of particles
variable n1e1 equal 1.5*v_n2e1*(v_lat1/v_lat2)             # Half length of bottom chain, which is 1.5 time larger than top chain
variable n1e2 equal -v_n1e1
variable n2e2 equal -v_n2e1
#variable lenspr equal -(v_n2e1+100)           # length of the spring connecting top chain and supporting particle
#variable lenspr1 equal -v_lenspr-0.1         # Position of supporting particle upper bound
#variable lenspr2 equal -v_lenspr+0.1         # Position of supporting particle lower bound

variable den equal 2.2 #grams/cm^3      # micrometer^3=10^-12 cm^3 Density of materials

variable V1 equal (1/6)*PI*(v_d1^3)     # Volume of particle 1
variable V2 equal (1/6)*PI*(v_d2^3)     # Volume of particle 2
#variable V3 equal (1/6)*PI*(v_d3^3)     # Volume of particle 3

variable mass1 equal v_den*v_V1  # Mass of particle 1 (picograms)
variable mass2 equal v_den*v_V2  # Mass of particle 2
#variable mass3 equal v_den*v_V3  # Mass of particle 3

# E GPa to picogram/(micrometer-microsecond^2)= 10^3 Pa= 10^-6 GPa
# Force unit(picogram-micrometer/microsecond^2)=10^-9 N= 1nN
# Spring stiffness (force/distance) 10^-3 N/m

variable K0 equal (1500/50)*(10^5)             # Spring stiffness conneting top chain and sup particle
variable E equal 100*(10^6)                    # Young's Modulus using for Hertz/material model
variable PR equal 0.3                          # Poisson's ratio using for Hertz/material model
variable Fn equal -1000                        # Force apply to each particles in top chain
variable dt equal 0.00001                      # Time step units microsecond
variable lgv equal 0.5                         #damping for langevin thermostat for slider


################### Creating the model #################################
lattice sc ${lat1}                                                               # Bottom chain type1
lattice sc 5.51                                                               
Lattice spacing in x,y,z = 5.51 5.51 5.51

region box block ${n1e2} ${n1e1} -100 100 -100 100 units box
region box block -82.65 ${n1e1} -100 100 -100 100 units box
region box block -82.65 82.65 -100 100 -100 100 units box
region substrate block ${n1e2} ${n1e1} -0.5 0.5 0 0.5 units box
region substrate block -82.65 ${n1e1} -0.5 0.5 0 0.5 units box
region substrate block -82.65 82.65 -0.5 0.5 0 0.5 units box

create_box 2 box
Created orthogonal box = (-82.65 -100 -100) to (82.65 100 100)
  1 by 2 by 2 MPI processor grid
create_atoms 1 region substrate
Created 30 atoms
  using lattice units in orthogonal box = (-82.65 -100 -100) to (82.65 100 100)
  create_atoms CPU = 0.001 seconds

lattice sc ${lat2}                                                             # Top chain type2
lattice sc 3                                                             
Lattice spacing in x,y,z = 3 3 3

region slider1 block ${n2e2} ${n2e1} -0.1 0.1 5.9 6.1 units box
region slider1 block -30 ${n2e1} -0.1 0.1 5.9 6.1 units box
region slider1 block -30 30 -0.1 0.1 5.9 6.1 units box

create_atoms 2 region slider1
Created 21 atoms
  using lattice units in orthogonal box = (-82.65 -100 -100) to (82.65 100 100)
  create_atoms CPU = 0.005 seconds

#lattice sc ${lat0}                                                             # Supporting particle type3

#region support block ${lenspr1} ${lenspr2} -0.1 0.1 7.9 8.1 units box

#create_atoms 3 region support

set type 1 diameter ${d1}                    # Set mass and diameter for each particles type
set type 1 diameter 3                    
Setting atom values ...
  30 settings made for diameter
set type 1 mass ${mass1}
set type 1 mass 31.101767270539
Setting atom values ...
  30 settings made for mass
set type 2 diameter ${d2}
set type 2 diameter 3
Setting atom values ...
  21 settings made for diameter
set type 2 mass ${mass2}
set type 2 mass 31.101767270539
Setting atom values ...
  21 settings made for mass
#set type 3 diameter ${d3}
#set type 3 mass ${mass3}

group substrate region substrate           # Define gorup
30 atoms in group substrate
group slider1 region slider1
21 atoms in group slider1
#group support region support
#group substrate_slider union substrate slider1

########################## Potential ###################################
pair_style granular
pair_coeff 1 1 hertz/material 0.00000001 0.001 ${PR} tangential mindlin NULL 0.1 0.01 damping viscoelastic              ########### set E between each particle in same type is small to neglect their interaction
pair_coeff 1 1 hertz/material 0.00000001 0.001 0.3 tangential mindlin NULL 0.1 0.01 damping viscoelastic              
pair_coeff 2 2 hertz/material 0.00000001 0.001 ${PR} tangential mindlin NULL 0.1 0.01 damping viscoelastic
pair_coeff 2 2 hertz/material 0.00000001 0.001 0.3 tangential mindlin NULL 0.1 0.01 damping viscoelastic
#pair_coeff 3 3 hertz/material ${E} 0.001 ${PR} tangential mindlin NULL 0.1 0.01 damping viscoelastic
pair_coeff 1 2 hertz/material ${E} 0.001 ${PR} tangential mindlin NULL 0.1 0.01 damping viscoelastic
pair_coeff 1 2 hertz/material 100000000 0.001 ${PR} tangential mindlin NULL 0.1 0.01 damping viscoelastic
pair_coeff 1 2 hertz/material 100000000 0.001 0.3 tangential mindlin NULL 0.1 0.01 damping viscoelastic
#pair_coeff 1 3 hertz/material 0.00000001 0.001 ${PR} tangential mindlin NULL 0.1 0.01 damping viscoelastic
#pair_coeff 2 3 hertz/material 0.00000001 0.001 ${PR} tangential mindlin NULL 0.1 0.01 damping viscoelastic
comm_modify     vel yes
neigh_modify    delay 0 every 1 check yes

### Compute properties ###

compute 1 slider1 com                      # Compute the center of mass of top chain
#compute 2 support com                      # Compute the center of mass of supporting particle

variable p0 equal "step"

variable slider_z equal "c_1[3]"          # output the position of top chain in z-direction

#variable distance equal "c_2[1]-c_1[1]"   # Distance between COM of top chain and supporting particle

thermo 100000
thermo_style custom step lx ly lz press pxx pyy pzz ke pe temp c_1[1] c_1[2] c_1[3] #c_2[1] c_2[2] c_2[3] v_distance

############### Fix ##################


############## Equilibrium the system with apply force ########################

fix force_slider1 slider1 setforce NULL 0 NULL                                # Fix top chain not to move in y-direction

fix f_sub substrate freeze                                                    # Freeze the bottom chain

fix rigid_top slider1 rigid/nve group 1 slider1 langevin 0 0 ${lgv} 6987532   # NVE+langevin
fix rigid_top slider1 rigid/nve group 1 slider1 langevin 0 0 0.5 6987532   
  1 rigid bodies with 21 atoms

fix add slider1 addforce 0 0 ${Fn} every 1                                    # Add force to top layer
fix add slider1 addforce 0 0 -1000 every 1                                    

timestep ${dt}
timestep 1e-05

# fix  nve_1 slider1 nve

dump 		D1 all custom 100000 Equi_${num}_*.dump id type diameter mass xu yu zu fx fy fz
dump 		D1 all custom 100000 Equi_0_*.dump id type diameter mass xu yu zu fx fy fz

run 3000000
Generated 0 of 1 mixed pair_coeff terms from geometric mixing rule
Neighbor list info ...
  update every 1 steps, delay 0 steps, check yes
  max neighbors/atom: 2000, page size: 100000
  master list distance cutoff = 3.1
  ghost atom cutoff = 3.1
  binsize = 1.55, bins = 107 130 130
  1 neighbor lists, perpetual/occasional/extra = 1 0 0
  (1) pair granular, perpetual
      attributes: half, newton on, size, history
      pair build: half/size/bin/newton
      stencil: half/bin/3d
      bin: standard
Per MPI rank memory allocation (min/avg/max) = 14.81 | 18.27 | 19.43 Mbytes
   Step           Lx             Ly             Lz           Press           Pxx            Pyy            Pzz           KinEng         PotEng          Temp          c_1[1]         c_1[2]         c_1[3]    
         0   165.3          200            200            0              0              0              0              0              0              0              2.6109412e-16  0              6            
    100000   165.3          200            200            0.0025391083   1.2242958e-37  0              0.0076173249   11981.426      0              5.7854017e+10  2.6109412e-16  0              3.3370341    
    200000   165.3          200            200            0.00077831261 -9.1668451e-37  0              0.0023349378   2318.0403      0              1.1192987e+10  2.6109412e-16  0              3.1042709    
    300000   165.3          200            200           -0.00012362728 -8.8233317e-37  0             -0.00037088184  159.31066      0              7.6925416e+08  2.6109412e-16  0              3.0355819    
    400000   165.3          200            200            0.011552533   -6.9648065e-38  0              0.0346576      26.729125      0              1.2906538e+08  2.6109412e-16  0              2.9886191    
    500000   165.3          200            200            0.00059814268 -2.699719e-35   0              0.001794428    0.10788767     0              520950.93      2.6109412e-16  0              2.9984335    
    600000   165.3          200            200            0.0024288578   2.7660708e-35  0              0.0072865734   2.1790082      0              10521651       2.6109412e-16  0              2.9959774    
    700000   165.3          200            200            0.0029755128   6.6663267e-37  0              0.0089265383   0.42833911     0              2068296.3      2.6109412e-16  0              2.9954066    
    800000   165.3          200            200            0.0031206777  -1.646023e-36   0              0.0093620331   0.066837153    0              322732.69      2.6109412e-16  0              2.995263     
    900000   165.3          200            200            0.0031601473  -1.0547972e-37  0              0.009480442    0.0097748815   0              47199.404      2.6109412e-16  0              2.9952248    
   1000000   165.3          200            200            0.0031698389   2.1509545e-37  0              0.0095095167   0.0013677434   0              6604.3436      2.6109412e-16  0              2.9952158    
   1100000   165.3          200            200            0.0031716073  -3.5477341e-38  0              0.009514822    0.00018383376  0              887.66742      2.6109412e-16  0              2.9952142    
   1200000   165.3          200            200            0.0031715897   1.579724e-39   0              0.009514769    2.3739894e-05  0              114.63145      2.6109412e-16  0              2.9952143    
   1300000   165.3          200            200            0.0031713382  -2.7189186e-39  0              0.0095140147   2.9401934e-06  0              14.197141      2.6109412e-16  0              2.9952146    
   1400000   165.3          200            200            0.0031711575   8.89131e-39    0              0.0095134726   3.4787627e-07  0              1.67977        2.6109412e-16  0              2.9952148    
   1500000   165.3          200            200            0.00317106     4.960102e-39   0              0.0095131799   3.906026e-08   0              0.18860802     2.6109412e-16  0              2.9952149    
   1600000   165.3          200            200            0.0031710133   2.1444645e-38  0              0.00951304     4.116841e-09   0              0.019878752    2.6109412e-16  0              2.995215     
   1700000   165.3          200            200            0.0031709926   4.0938379e-38  0              0.0095129777   3.9989391e-10  0              0.0019309446   2.6109412e-16  0              2.995215     
   1800000   165.3          200            200            0.0031709837   1.642287e-38   0              0.0095129512   3.463559e-11   0              0.00016724287  2.6109412e-16  0              2.995215     
   1900000   165.3          200            200            0.0031709801   2.4720938e-38  0              0.0095129403   2.5002188e-12  0              1.2072662e-05  2.6109412e-16  0              2.995215     
   2000000   165.3          200            200            0.0031709787   4.2982386e-39  0              0.009512936    1.2638454e-13  0              6.1026573e-07  2.6109412e-16  0              2.995215     
   2100000   165.3          200            200            0.0031709781  -5.5538885e-39  0              0.0095129344   2.0275272e-15  0              9.7902032e-09  2.6109412e-16  0              2.995215     
   2200000   165.3          200            200            0.0031709779   6.6081471e-38  0              0.0095129337   2.331009e-16   0              1.1255608e-09  2.6109412e-16  0              2.995215     
   2300000   165.3          200            200            0.0031709778   3.848602e-38   0              0.0095129335   2.9641784e-16  0              1.4312957e-09  2.6109412e-16  0              2.995215     
   2400000   165.3          200            200            0.0031709778   3.4800098e-38  0              0.0095129334   1.1036634e-16  0              5.3291957e-10  2.6109412e-16  0              2.995215     
   2500000   165.3          200            200            0.0031709778  -8.2436952e-39  0              0.0095129334   2.8778305e-17  0              1.3896014e-10  2.6109412e-16  0              2.995215     
   2600000   165.3          200            200            0.0031709778   5.5723779e-38  0              0.0095129333   6.4950682e-18  0              3.136236e-11   2.6109412e-16  0              2.995215     
   2700000   165.3          200            200            0.0031709778   2.7548468e-38  0              0.0095129333   1.1965546e-18  0              5.777734e-12   2.6109412e-16  0              2.995215     
   2800000   165.3          200            200            0.0031709778   3.1248104e-38  0              0.0095129333   2.5764221e-19  0              1.244062e-12   2.6109412e-16  0              2.995215     
   2900000   165.3          200            200            0.0031709778   7.3201488e-39  0              0.0095129333   4.7761484e-21  0              2.3062311e-14  2.6109412e-16  0              2.995215     
   3000000   165.3          200            200            0.0031709778   6.6716579e-40  0              0.0095129333   1.1533759e-19  0              5.5692396e-13  2.6109412e-16  0              2.995215     
Loop time of 66.3371 on 4 procs for 3000000 steps with 51 atoms

Performance: 39073161.100 ns/day, 0.000 hours/ns, 45223.566 timesteps/s
100.0% CPU use with 4 MPI tasks x 1 OpenMP threads

MPI task timing breakdown:
Section |  min time  |  avg time  |  max time  |%varavg| %total
---------------------------------------------------------------
Pair    | 0.32849    | 1.756      | 5.7837     | 175.6 |  2.65
Neigh   | 0.085988   | 0.086576   | 0.088204   |   0.3 |  0.13
Comm    | 26.371     | 33.179     | 39.14      |  85.1 | 50.02
Output  | 0.061625   | 0.061736   | 0.061814   |   0.0 |  0.09
Modify  | 16.053     | 22.097     | 29.678     | 122.6 | 33.31
Other   |            | 9.157      |            |       | 13.80

Nlocal:          12.75 ave          51 max           0 min
Histogram: 3 0 0 0 0 0 0 0 0 1
Nghost:          39.25 ave          52 max           1 min
Histogram: 1 0 0 0 0 0 0 0 0 3
Neighs:           6.25 ave          25 max           0 min
Histogram: 3 0 0 0 0 0 0 0 0 1

Total # of neighbors = 25
Ave neighs/atom = 0.49019608
Neighbor list builds = 166
Dangerous builds = 0

undump D1

############ Add spring between top chain to supp particle and then equilibrium  ###########

#fix sp1 support spring couple slider1 ${K0} ${lenspr} NULL NULL 0                                 # Add spring

#dump 		D2 all custom 100000 add_${num}*.dump id type diameter mass xu yu zu

#fix add1 all print 10 "${p0} ${distance} ${slider_z}" file add_distance_${num}.txt screen no      # out put step, distance(spring length), z-position of top chain

#run 1000000

#undump D2

#unfix add1

########## Pulling the supporting particle with constant velocity #############

#fix m1 support move linear 0.1 0 0 units box                                                      # apply constant velocity to supporting particles along x-direction V=0.1m/s

#fix move1 all print 100 "${p0} ${distance} ${slider_z}" file move_distance_${num}.txt screen no

#dump 		1 all custom 50000 move_${num}_*.dump id type diameter mass xu yu zu

#run 1000000

clear
  using 1 OpenMP thread(s) per MPI task

next num

jump SELF startloop

include granular.in
### Simulation of contact between two chain

##################### Simulation setup ####################

units micro                              # units
dimension	3                            # dimension
boundary	p p p                        # boundary condition p: periodic
atom_style	sphere                       # atom style
#processors * * 1

####################### Parameter ##################################

variable ind equal ${num}
variable ind equal 1

#variable lat0 equal 1                    #
variable lat1 equal 3+(251*0.01)+(v_ind*0.01)  # .491+(v_ind*0.001)       # Lattice distance of bottom chain
variable lat2 equal 3                    # Lattice distance of top chain
variable d1 equal 3                      # Diamter of particle at bottom chain
variable d2 equal 3                      # Diamter of particle at top chain
#variable d3 equal 1                      # Diamter of supporting particle

variable n2e1 equal 10*v_lat2             # Half length of top chain. 1500 is number of particles
variable n1e1 equal 1.5*v_n2e1*(v_lat1/v_lat2)             # Half length of bottom chain, which is 1.5 time larger than top chain
variable n1e2 equal -v_n1e1
variable n2e2 equal -v_n2e1
#variable lenspr equal -(v_n2e1+100)           # length of the spring connecting top chain and supporting particle
#variable lenspr1 equal -v_lenspr-0.1         # Position of supporting particle upper bound
#variable lenspr2 equal -v_lenspr+0.1         # Position of supporting particle lower bound

variable den equal 2.2 #grams/cm^3      # micrometer^3=10^-12 cm^3 Density of materials

variable V1 equal (1/6)*PI*(v_d1^3)     # Volume of particle 1
variable V2 equal (1/6)*PI*(v_d2^3)     # Volume of particle 2
#variable V3 equal (1/6)*PI*(v_d3^3)     # Volume of particle 3

variable mass1 equal v_den*v_V1  # Mass of particle 1 (picograms)
variable mass2 equal v_den*v_V2  # Mass of particle 2
#variable mass3 equal v_den*v_V3  # Mass of particle 3

# E GPa to picogram/(micrometer-microsecond^2)= 10^3 Pa= 10^-6 GPa
# Force unit(picogram-micrometer/microsecond^2)=10^-9 N= 1nN
# Spring stiffness (force/distance) 10^-3 N/m

variable K0 equal (1500/50)*(10^5)             # Spring stiffness conneting top chain and sup particle
variable E equal 100*(10^6)                    # Young's Modulus using for Hertz/material model
variable PR equal 0.3                          # Poisson's ratio using for Hertz/material model
variable Fn equal -1000                        # Force apply to each particles in top chain
variable dt equal 0.00001                      # Time step units microsecond
variable lgv equal 0.5                         #damping for langevin thermostat for slider


################### Creating the model #################################
lattice sc ${lat1}                                                               # Bottom chain type1
lattice sc 5.52                                                               
Lattice spacing in x,y,z = 5.52 5.52 5.52

region box block ${n1e2} ${n1e1} -100 100 -100 100 units box
region box block -82.8 ${n1e1} -100 100 -100 100 units box
region box block -82.8 82.8 -100 100 -100 100 units box
region substrate block ${n1e2} ${n1e1} -0.5 0.5 0 0.5 units box
region substrate block -82.8 ${n1e1} -0.5 0.5 0 0.5 units box
region substrate block -82.8 82.8 -0.5 0.5 0 0.5 units box

create_box 2 box
Created orthogonal box = (-82.8 -100 -100) to (82.8 100 100)
  1 by 2 by 2 MPI processor grid
create_atoms 1 region substrate
Created 30 atoms
  using lattice units in orthogonal box = (-82.8 -100 -100) to (82.8 100 100)
  create_atoms CPU = 0.000 seconds

lattice sc ${lat2}                                                             # Top chain type2
lattice sc 3                                                             
Lattice spacing in x,y,z = 3 3 3

region slider1 block ${n2e2} ${n2e1} -0.1 0.1 5.9 6.1 units box
region slider1 block -30 ${n2e1} -0.1 0.1 5.9 6.1 units box
region slider1 block -30 30 -0.1 0.1 5.9 6.1 units box

create_atoms 2 region slider1
Created 21 atoms
  using lattice units in orthogonal box = (-82.8 -100 -100) to (82.8 100 100)
  create_atoms CPU = 0.003 seconds

#lattice sc ${lat0}                                                             # Supporting particle type3

#region support block ${lenspr1} ${lenspr2} -0.1 0.1 7.9 8.1 units box

#create_atoms 3 region support

set type 1 diameter ${d1}                    # Set mass and diameter for each particles type
set type 1 diameter 3                    
Setting atom values ...
  30 settings made for diameter
set type 1 mass ${mass1}
set type 1 mass 31.101767270539
Setting atom values ...
  30 settings made for mass
set type 2 diameter ${d2}
set type 2 diameter 3
Setting atom values ...
  21 settings made for diameter
set type 2 mass ${mass2}
set type 2 mass 31.101767270539
Setting atom values ...
  21 settings made for mass
#set type 3 diameter ${d3}
#set type 3 mass ${mass3}

group substrate region substrate           # Define gorup
30 atoms in group substrate
group slider1 region slider1
21 atoms in group slider1
#group support region support
#group substrate_slider union substrate slider1

########################## Potential ###################################
pair_style granular
pair_coeff 1 1 hertz/material 0.00000001 0.001 ${PR} tangential mindlin NULL 0.1 0.01 damping viscoelastic              ########### set E between each particle in same type is small to neglect their interaction
pair_coeff 1 1 hertz/material 0.00000001 0.001 0.3 tangential mindlin NULL 0.1 0.01 damping viscoelastic              
pair_coeff 2 2 hertz/material 0.00000001 0.001 ${PR} tangential mindlin NULL 0.1 0.01 damping viscoelastic
pair_coeff 2 2 hertz/material 0.00000001 0.001 0.3 tangential mindlin NULL 0.1 0.01 damping viscoelastic
#pair_coeff 3 3 hertz/material ${E} 0.001 ${PR} tangential mindlin NULL 0.1 0.01 damping viscoelastic
pair_coeff 1 2 hertz/material ${E} 0.001 ${PR} tangential mindlin NULL 0.1 0.01 damping viscoelastic
pair_coeff 1 2 hertz/material 100000000 0.001 ${PR} tangential mindlin NULL 0.1 0.01 damping viscoelastic
pair_coeff 1 2 hertz/material 100000000 0.001 0.3 tangential mindlin NULL 0.1 0.01 damping viscoelastic
#pair_coeff 1 3 hertz/material 0.00000001 0.001 ${PR} tangential mindlin NULL 0.1 0.01 damping viscoelastic
#pair_coeff 2 3 hertz/material 0.00000001 0.001 ${PR} tangential mindlin NULL 0.1 0.01 damping viscoelastic
comm_modify     vel yes
neigh_modify    delay 0 every 1 check yes

### Compute properties ###

compute 1 slider1 com                      # Compute the center of mass of top chain
#compute 2 support com                      # Compute the center of mass of supporting particle

variable p0 equal "step"

variable slider_z equal "c_1[3]"          # output the position of top chain in z-direction

#variable distance equal "c_2[1]-c_1[1]"   # Distance between COM of top chain and supporting particle

thermo 100000
thermo_style custom step lx ly lz press pxx pyy pzz ke pe temp c_1[1] c_1[2] c_1[3] #c_2[1] c_2[2] c_2[3] v_distance

############### Fix ##################


############## Equilibrium the system with apply force ########################

fix force_slider1 slider1 setforce NULL 0 NULL                                # Fix top chain not to move in y-direction

fix f_sub substrate freeze                                                    # Freeze the bottom chain

fix rigid_top slider1 rigid/nve group 1 slider1 langevin 0 0 ${lgv} 6987532   # NVE+langevin
fix rigid_top slider1 rigid/nve group 1 slider1 langevin 0 0 0.5 6987532   
  1 rigid bodies with 21 atoms

fix add slider1 addforce 0 0 ${Fn} every 1                                    # Add force to top layer
fix add slider1 addforce 0 0 -1000 every 1                                    

timestep ${dt}
timestep 1e-05

# fix  nve_1 slider1 nve

dump 		D1 all custom 100000 Equi_${num}_*.dump id type diameter mass xu yu zu fx fy fz
dump 		D1 all custom 100000 Equi_1_*.dump id type diameter mass xu yu zu fx fy fz

run 3000000
Generated 0 of 1 mixed pair_coeff terms from geometric mixing rule
Neighbor list info ...
  update every 1 steps, delay 0 steps, check yes
  max neighbors/atom: 2000, page size: 100000
  master list distance cutoff = 3.1
  ghost atom cutoff = 3.1
  binsize = 1.55, bins = 107 130 130
  1 neighbor lists, perpetual/occasional/extra = 1 0 0
  (1) pair granular, perpetual
      attributes: half, newton on, size, history
      pair build: half/size/bin/newton
      stencil: half/bin/3d
      bin: standard
Per MPI rank memory allocation (min/avg/max) = 14.81 | 18.27 | 19.43 Mbytes
   Step           Lx             Ly             Lz           Press           Pxx            Pyy            Pzz           KinEng         PotEng          Temp          c_1[1]         c_1[2]         c_1[3]    
         0   165.6          200            200            0              0              0              0              0              0              0              2.6109412e-16  0              6            
    100000   165.6          200            200            0.0025318729   1.2212144e-37  0              0.0075956188   11960.243      0              5.7751735e+10  2.6109412e-16  0              3.338722     
    200000   165.6          200            200            0.000776958    3.913568e-38   0              0.002330874    2318.2793      0              1.1194141e+10  2.6109412e-16  0              3.1042897    
    300000   165.6          200            200           -0.00012362995 -4.039328e-37   0             -0.00037088984  159.98827      0              7.7252609e+08  2.6109412e-16  0              3.0355545    
    400000   165.6          200            200            0.011560553   -1.1910738e-37  0              0.034681658    25.715886      0              1.2417281e+08  2.6109412e-16  0              2.9886007    
    500000   165.6          200            200            0.00059595244 -2.6697653e-37  0              0.0017878573   0.087074263    0              420450.45      2.6109412e-16  0              2.9984348    
    600000   165.6          200            200            0.0024296437   9.452469e-37   0              0.007288931    2.2077088      0              10660236       2.6109412e-16  0              2.9959716    
    700000   165.6          200            200            0.0029726011  -2.3770502e-37  0              0.0089178033   0.43168741     0              2084464        2.6109412e-16  0              2.995404     
    800000   165.6          200            200            0.0031160225   2.1673608e-36  0              0.0093480674   0.067177164    0              324374.48      2.6109412e-16  0              2.9952619    
    900000   165.6          200            200            0.0031548069  -1.3695805e-37  0              0.0094644206   0.0098028415   0              47334.413      2.6109412e-16  0              2.9952244    
   1000000   165.6          200            200            0.0031642408  -2.315705e-37   0              0.0094927223   0.001368838    0              6609.6287      2.6109412e-16  0              2.9952156    
   1100000   165.6          200            200            0.0031659147   9.4970544e-39  0              0.0094977442   0.00018360987  0              886.58634      2.6109412e-16  0              2.9952142    
   1200000   165.6          200            200            0.0031658632   2.516626e-39   0              0.0094975895   2.3661928e-05  0              114.25498      2.6109412e-16  0              2.9952143    
   1300000   165.6          200            200            0.0031655998   5.2413224e-39  0              0.0094967994   2.9240484e-06  0              14.119183      2.6109412e-16  0              2.9952146    
   1400000   165.6          200            200            0.003165415    1.7178667e-38  0              0.0094962451   3.4510908e-07  0              1.6664082      2.6109412e-16  0              2.9952148    
   1500000   165.6          200            200            0.0031653161   2.0769754e-38  0              0.0094959482   3.863676e-08   0              0.18656309     2.6109412e-16  0              2.9952149    
   1600000   165.6          200            200            0.003165269    2.0553872e-38  0              0.009495807    4.0574427e-09  0              0.019591939    2.6109412e-16  0              2.995215     
   1700000   165.6          200            200            0.0031652481  -8.4868449e-40  0              0.0094957442   3.922127e-10   0              0.0018938547   2.6109412e-16  0              2.995215     
   1800000   165.6          200            200            0.0031652392   1.0116456e-38  0              0.0094957177   3.3727558e-11  0              0.0001628583   2.6109412e-16  0              2.995215     
   1900000   165.6          200            200            0.0031652356  -1.5008403e-38  0              0.0094957068   2.4049574e-12  0              1.1612678e-05  2.6109412e-16  0              2.995215     
   2000000   165.6          200            200            0.0031652342   9.3577066e-39  0              0.0094957025   1.1824583e-13  0              5.7096678e-07  2.6109412e-16  0              2.995215     
   2100000   165.6          200            200            0.0031652336  -3.0150012e-38  0              0.0094957008   1.6543385e-15  0              7.9882086e-09  2.6109412e-16  0              2.995215     
   2200000   165.6          200            200            0.0031652334   2.6575815e-38  0              0.0094957001   2.8420205e-16  0              1.37231e-09    2.6109412e-16  0              2.995215     
   2300000   165.6          200            200            0.0031652333   3.6360928e-38  0              0.0094956999   3.1654445e-16  0              1.5284798e-09  2.6109412e-16  0              2.995215     
   2400000   165.6          200            200            0.0031652333  -3.0462604e-38  0              0.0094956998   1.1437074e-16  0              5.5225537e-10  2.6109412e-16  0              2.995215     
   2500000   165.6          200            200            0.0031652333  -6.3074981e-39  0              0.0094956998   2.9391642e-17  0              1.4192172e-10  2.6109412e-16  0              2.995215     
   2600000   165.6          200            200            0.0031652333   2.0469854e-38  0              0.0094956998   6.5637425e-18  0              3.1693964e-11  2.6109412e-16  0              2.995215     
   2700000   165.6          200            200            0.0031652333   2.9713888e-38  0              0.0094956998   1.2261382e-18  0              5.9205826e-12  2.6109412e-16  0              2.995215     
   2800000   165.6          200            200            0.0031652333   3.3570324e-38  0              0.0094956998   2.6694112e-19  0              1.2889631e-12  2.6109412e-16  0              2.995215     
   2900000   165.6          200            200            0.0031652333   9.8612869e-39  0              0.0094956998   2.450256e-20   0              1.1831409e-13  2.6109412e-16  0              2.995215     
   3000000   165.6          200            200            0.0031652333  -1.5199135e-38  0              0.0094956998   4.6307629e-20  0              2.2360297e-13  2.6109412e-16  0              2.995215     
Loop time of 65.6646 on 4 procs for 3000000 steps with 51 atoms

Performance: 39473340.443 ns/day, 0.000 hours/ns, 45686.737 timesteps/s
100.0% CPU use with 4 MPI tasks x 1 OpenMP threads

MPI task timing breakdown:
Section |  min time  |  avg time  |  max time  |%varavg| %total
---------------------------------------------------------------
Pair    | 0.31215    | 1.644      | 5.3653     | 167.7 |  2.50
Neigh   | 0.084437   | 0.085015   | 0.086611   |   0.3 |  0.13
Comm    | 26.145     | 33.03      | 38.896     |  86.0 | 50.30
Output  | 0.062523   | 0.062614   | 0.062692   |   0.0 |  0.10
Modify  | 15.748     | 21.793     | 29.422     | 124.0 | 33.19
Other   |            | 9.049      |            |       | 13.78

Nlocal:          12.75 ave          51 max           0 min
Histogram: 3 0 0 0 0 0 0 0 0 1
Nghost:          39.25 ave          52 max           1 min
Histogram: 1 0 0 0 0 0 0 0 0 3
Neighs:           6.25 ave          25 max           0 min
Histogram: 3 0 0 0 0 0 0 0 0 1

Total # of neighbors = 25
Ave neighs/atom = 0.49019608
Neighbor list builds = 166
Dangerous builds = 0

undump D1

############ Add spring between top chain to supp particle and then equilibrium  ###########

#fix sp1 support spring couple slider1 ${K0} ${lenspr} NULL NULL 0                                 # Add spring

#dump 		D2 all custom 100000 add_${num}*.dump id type diameter mass xu yu zu

#fix add1 all print 10 "${p0} ${distance} ${slider_z}" file add_distance_${num}.txt screen no      # out put step, distance(spring length), z-position of top chain

#run 1000000

#undump D2

#unfix add1

########## Pulling the supporting particle with constant velocity #############

#fix m1 support move linear 0.1 0 0 units box                                                      # apply constant velocity to supporting particles along x-direction V=0.1m/s

#fix move1 all print 100 "${p0} ${distance} ${slider_z}" file move_distance_${num}.txt screen no

#dump 		1 all custom 50000 move_${num}_*.dump id type diameter mass xu yu zu

#run 1000000

clear
  using 1 OpenMP thread(s) per MPI task

next num

jump SELF startloop

include granular.in
### Simulation of contact between two chain

##################### Simulation setup ####################

units micro                              # units
dimension	3                            # dimension
boundary	p p p                        # boundary condition p: periodic
atom_style	sphere                       # atom style
#processors * * 1

####################### Parameter ##################################

variable ind equal ${num}
variable ind equal 2

#variable lat0 equal 1                    #
variable lat1 equal 3+(251*0.01)+(v_ind*0.01)  # .491+(v_ind*0.001)       # Lattice distance of bottom chain
variable lat2 equal 3                    # Lattice distance of top chain
variable d1 equal 3                      # Diamter of particle at bottom chain
variable d2 equal 3                      # Diamter of particle at top chain
#variable d3 equal 1                      # Diamter of supporting particle

variable n2e1 equal 10*v_lat2             # Half length of top chain. 1500 is number of particles
variable n1e1 equal 1.5*v_n2e1*(v_lat1/v_lat2)             # Half length of bottom chain, which is 1.5 time larger than top chain
variable n1e2 equal -v_n1e1
variable n2e2 equal -v_n2e1
#variable lenspr equal -(v_n2e1+100)           # length of the spring connecting top chain and supporting particle
#variable lenspr1 equal -v_lenspr-0.1         # Position of supporting particle upper bound
#variable lenspr2 equal -v_lenspr+0.1         # Position of supporting particle lower bound

variable den equal 2.2 #grams/cm^3      # micrometer^3=10^-12 cm^3 Density of materials

variable V1 equal (1/6)*PI*(v_d1^3)     # Volume of particle 1
variable V2 equal (1/6)*PI*(v_d2^3)     # Volume of particle 2
#variable V3 equal (1/6)*PI*(v_d3^3)     # Volume of particle 3

variable mass1 equal v_den*v_V1  # Mass of particle 1 (picograms)
variable mass2 equal v_den*v_V2  # Mass of particle 2
#variable mass3 equal v_den*v_V3  # Mass of particle 3

# E GPa to picogram/(micrometer-microsecond^2)= 10^3 Pa= 10^-6 GPa
# Force unit(picogram-micrometer/microsecond^2)=10^-9 N= 1nN
# Spring stiffness (force/distance) 10^-3 N/m

variable K0 equal (1500/50)*(10^5)             # Spring stiffness conneting top chain and sup particle
variable E equal 100*(10^6)                    # Young's Modulus using for Hertz/material model
variable PR equal 0.3                          # Poisson's ratio using for Hertz/material model
variable Fn equal -1000                        # Force apply to each particles in top chain
variable dt equal 0.00001                      # Time step units microsecond
variable lgv equal 0.5                         #damping for langevin thermostat for slider


################### Creating the model #################################
lattice sc ${lat1}                                                               # Bottom chain type1
lattice sc 5.53                                                               
Lattice spacing in x,y,z = 5.53 5.53 5.53

region box block ${n1e2} ${n1e1} -100 100 -100 100 units box
region box block -82.95 ${n1e1} -100 100 -100 100 units box
region box block -82.95 82.95 -100 100 -100 100 units box
region substrate block ${n1e2} ${n1e1} -0.5 0.5 0 0.5 units box
region substrate block -82.95 ${n1e1} -0.5 0.5 0 0.5 units box
region substrate block -82.95 82.95 -0.5 0.5 0 0.5 units box

create_box 2 box
Created orthogonal box = (-82.95 -100 -100) to (82.95 100 100)
  1 by 2 by 2 MPI processor grid
create_atoms 1 region substrate
Created 30 atoms
  using lattice units in orthogonal box = (-82.95 -100 -100) to (82.95 100 100)
  create_atoms CPU = 0.000 seconds

lattice sc ${lat2}                                                             # Top chain type2
lattice sc 3                                                             
Lattice spacing in x,y,z = 3 3 3

region slider1 block ${n2e2} ${n2e1} -0.1 0.1 5.9 6.1 units box
region slider1 block -30 ${n2e1} -0.1 0.1 5.9 6.1 units box
region slider1 block -30 30 -0.1 0.1 5.9 6.1 units box

create_atoms 2 region slider1
Created 21 atoms
  using lattice units in orthogonal box = (-82.95 -100 -100) to (82.95 100 100)
  create_atoms CPU = 0.003 seconds

#lattice sc ${lat0}                                                             # Supporting particle type3

#region support block ${lenspr1} ${lenspr2} -0.1 0.1 7.9 8.1 units box

#create_atoms 3 region support

set type 1 diameter ${d1}                    # Set mass and diameter for each particles type
set type 1 diameter 3                    
Setting atom values ...
  30 settings made for diameter
set type 1 mass ${mass1}
set type 1 mass 31.101767270539
Setting atom values ...
  30 settings made for mass
set type 2 diameter ${d2}
set type 2 diameter 3
Setting atom values ...
  21 settings made for diameter
set type 2 mass ${mass2}
set type 2 mass 31.101767270539
Setting atom values ...
  21 settings made for mass
#set type 3 diameter ${d3}
#set type 3 mass ${mass3}

group substrate region substrate           # Define gorup
30 atoms in group substrate
group slider1 region slider1
21 atoms in group slider1
#group support region support
#group substrate_slider union substrate slider1

########################## Potential ###################################
pair_style granular
pair_coeff 1 1 hertz/material 0.00000001 0.001 ${PR} tangential mindlin NULL 0.1 0.01 damping viscoelastic              ########### set E between each particle in same type is small to neglect their interaction
pair_coeff 1 1 hertz/material 0.00000001 0.001 0.3 tangential mindlin NULL 0.1 0.01 damping viscoelastic              
pair_coeff 2 2 hertz/material 0.00000001 0.001 ${PR} tangential mindlin NULL 0.1 0.01 damping viscoelastic
pair_coeff 2 2 hertz/material 0.00000001 0.001 0.3 tangential mindlin NULL 0.1 0.01 damping viscoelastic
#pair_coeff 3 3 hertz/material ${E} 0.001 ${PR} tangential mindlin NULL 0.1 0.01 damping viscoelastic
pair_coeff 1 2 hertz/material ${E} 0.001 ${PR} tangential mindlin NULL 0.1 0.01 damping viscoelastic
pair_coeff 1 2 hertz/material 100000000 0.001 ${PR} tangential mindlin NULL 0.1 0.01 damping viscoelastic
pair_coeff 1 2 hertz/material 100000000 0.001 0.3 tangential mindlin NULL 0.1 0.01 damping viscoelastic
#pair_coeff 1 3 hertz/material 0.00000001 0.001 ${PR} tangential mindlin NULL 0.1 0.01 damping viscoelastic
#pair_coeff 2 3 hertz/material 0.00000001 0.001 ${PR} tangential mindlin NULL 0.1 0.01 damping viscoelastic
comm_modify     vel yes
neigh_modify    delay 0 every 1 check yes

### Compute properties ###

compute 1 slider1 com                      # Compute the center of mass of top chain
#compute 2 support com                      # Compute the center of mass of supporting particle

variable p0 equal "step"

variable slider_z equal "c_1[3]"          # output the position of top chain in z-direction

#variable distance equal "c_2[1]-c_1[1]"   # Distance between COM of top chain and supporting particle

thermo 100000
thermo_style custom step lx ly lz press pxx pyy pzz ke pe temp c_1[1] c_1[2] c_1[3] #c_2[1] c_2[2] c_2[3] v_distance

############### Fix ##################


############## Equilibrium the system with apply force ########################

fix force_slider1 slider1 setforce NULL 0 NULL                                # Fix top chain not to move in y-direction

fix f_sub substrate freeze                                                    # Freeze the bottom chain

fix rigid_top slider1 rigid/nve group 1 slider1 langevin 0 0 ${lgv} 6987532   # NVE+langevin
fix rigid_top slider1 rigid/nve group 1 slider1 langevin 0 0 0.5 6987532   
  1 rigid bodies with 21 atoms

fix add slider1 addforce 0 0 ${Fn} every 1                                    # Add force to top layer
fix add slider1 addforce 0 0 -1000 every 1                                    

timestep ${dt}
timestep 1e-05

# fix  nve_1 slider1 nve

dump 		D1 all custom 100000 Equi_${num}_*.dump id type diameter mass xu yu zu fx fy fz
dump 		D1 all custom 100000 Equi_2_*.dump id type diameter mass xu yu zu fx fy fz

run 3000000
Generated 0 of 1 mixed pair_coeff terms from geometric mixing rule
Neighbor list info ...
  update every 1 steps, delay 0 steps, check yes
  max neighbors/atom: 2000, page size: 100000
  master list distance cutoff = 3.1
  ghost atom cutoff = 3.1
  binsize = 1.55, bins = 108 130 130
  1 neighbor lists, perpetual/occasional/extra = 1 0 0
  (1) pair granular, perpetual
      attributes: half, newton on, size, history
      pair build: half/size/bin/newton
      stencil: half/bin/3d
      bin: standard
Per MPI rank memory allocation (min/avg/max) = 14.82 | 18.29 | 19.45 Mbytes
   Step           Lx             Ly             Lz           Press           Pxx            Pyy            Pzz           KinEng         PotEng          Temp          c_1[1]         c_1[2]         c_1[3]    
         0   165.9          200            200            0              0              0              0              0              0              0              2.6109412e-16  0              6            
    100000   165.9          200            200            0.0025282625   2.6133952e-39  0              0.0075847874   11967.094      0              5.7784816e+10  2.6109412e-16  0              3.3384703    
    200000   165.9          200            200            0.00077881453 -2.8148882e-36  0              0.0023364436   2333.9601      0              1.1269858e+10  2.6109412e-16  0              3.1034562    
    300000   165.9          200            200           -0.00012217075  3.875862e-36   0             -0.00036651226  156.30665      0              7.5474889e+08  2.6109412e-16  0              3.0357292    
    400000   165.9          200            200            0.011447641    4.8690117e-38  0              0.034342923    28.986591      0              1.3996587e+08  2.6109412e-16  0              2.9886592    
    500000   165.9          200            200            0.00059780955 -2.6941982e-35  0              0.0017934287   0.14829962     0              716085.77      2.6109412e-16  0              2.9984314    
    600000   165.9          200            200            0.0024114305   3.1296734e-35  0              0.0072342915   2.1314675      0              10292094       2.6109412e-16  0              2.9959871    
    700000   165.9          200            200            0.0029606267   7.9813648e-37  0              0.0088818802   0.42277863     0              2041446.7      2.6109412e-16  0              2.9954109    
    800000   165.9          200            200            0.0031077304   2.6338669e-36  0              0.0093231913   0.066271192    0              319999.87      2.6109412e-16  0              2.9952647    
    900000   165.9          200            200            0.0031480785   1.6239357e-38  0              0.0094442355   0.0097282096   0              46974.043      2.6109412e-16  0              2.9952255    
   1000000   165.9          200            200            0.0031581345   1.8243631e-37  0              0.0094744035   0.0013658998   0              6595.4412      2.6109412e-16  0              2.995216     
   1100000   165.9          200            200            0.0031600484  -2.9544017e-38  0              0.0094801453   0.00018420475  0              889.4588       2.6109412e-16  0              2.9952143    
   1200000   165.9          200            200            0.0031600873   5.303866e-39   0              0.009480262    2.3869843e-05  0              115.25893      2.6109412e-16  0              2.9952144    
   1300000   165.9          200            200            0.0031598574   1.2779746e-39  0              0.0094795722   2.9671704e-06  0              14.327404      2.6109412e-16  0              2.9952146    
   1400000   165.9          200            200            0.0031596847   3.9402379e-39  0              0.0094790542   3.5251007e-07  0              1.702145       2.6109412e-16  0              2.9952148    
   1500000   165.9          200            200            0.0031595901  -5.7997122e-39  0              0.0094787703   3.9771034e-08  0              0.19204009     2.6109412e-16  0              2.9952149    
   1600000   165.9          200            200            0.0031595445   6.6516702e-39  0              0.0094786335   4.2167881e-09  0              0.020361361    2.6109412e-16  0              2.995215     
   1700000   165.9          200            200            0.0031595241   2.2089672e-38  0              0.0094785723   4.1287059e-10  0              0.0019936043   2.6109412e-16  0              2.995215     
   1800000   165.9          200            200            0.0031595154  -2.6223024e-39  0              0.0094785462   3.6179864e-11  0              0.00017469961  2.6109412e-16  0              2.995215     
   1900000   165.9          200            200            0.0031595118  -1.6949404e-38  0              0.0094785355   2.6642579e-12  0              1.2864748e-05  2.6109412e-16  0              2.995215     
   2000000   165.9          200            200            0.0031595104   6.9529488e-39  0              0.0094785312   1.4067933e-13  0              6.7929015e-07  2.6109412e-16  0              2.995215     
   2100000   165.9          200            200            0.0031595098  -1.06448e-38    0              0.0094785295   2.746363e-15   0              1.3261204e-08  2.6109412e-16  0              2.995215     
   2200000   165.9          200            200            0.0031595096   2.3205503e-38  0              0.0094785289   1.57196e-16    0              7.5904324e-10  2.6109412e-16  0              2.995215     
   2300000   165.9          200            200            0.0031595096   1.3879132e-38  0              0.0094785287   2.6341787e-16  0              1.2719506e-09  2.6109412e-16  0              2.995215     
   2400000   165.9          200            200            0.0031595095  -1.2517664e-38  0              0.0094785286   1.0313679e-16  0              4.9801064e-10  2.6109412e-16  0              2.995215     
   2500000   165.9          200            200            0.0031595095   3.6998999e-38  0              0.0094785285   2.7456605e-17  0              1.3257812e-10  2.6109412e-16  0              2.995215     
   2600000   165.9          200            200            0.0031595095   3.7080737e-38  0              0.0094785285   6.2530017e-18  0              3.0193507e-11  2.6109412e-16  0              2.995215     
   2700000   165.9          200            200            0.0031595095   1.5898527e-38  0              0.0094785285   1.2424761e-18  0              5.9994726e-12  2.6109412e-16  0              2.995215     
   2800000   165.9          200            200            0.0031595095  -6.9976321e-39  0              0.0094785285   2.6637412e-19  0              1.2862253e-12  2.6109412e-16  0              2.995215     
   2900000   165.9          200            200            0.0031595095  -1.7410334e-39  0              0.0094785285   1.5476934e-20  0              7.4732573e-14  2.6109412e-16  0              2.995215     
   3000000   165.9          200            200            0.0031595095  -1.6070154e-39  0              0.0094785285   6.9428553e-20  0              3.3524563e-13  2.6109412e-16  0              2.995215     
Loop time of 65.5418 on 4 procs for 3000000 steps with 51 atoms

Performance: 39547309.788 ns/day, 0.000 hours/ns, 45772.349 timesteps/s
100.0% CPU use with 4 MPI tasks x 1 OpenMP threads

MPI task timing breakdown:
Section |  min time  |  avg time  |  max time  |%varavg| %total
---------------------------------------------------------------
Pair    | 0.32821    | 1.6272     | 5.3223     | 167.3 |  2.48
Neigh   | 0.085245   | 0.085775   | 0.087289   |   0.3 |  0.13
Comm    | 25.953     | 32.871     | 38.747     |  86.5 | 50.15
Output  | 0.082997   | 0.083084   | 0.083162   |   0.0 |  0.13
Modify  | 15.736     | 21.77      | 29.377     | 122.9 | 33.22
Other   |            | 9.105      |            |       | 13.89

Nlocal:          12.75 ave          51 max           0 min
Histogram: 3 0 0 0 0 0 0 0 0 1
Nghost:          39.25 ave          52 max           1 min
Histogram: 1 0 0 0 0 0 0 0 0 3
Neighs:           6.25 ave          25 max           0 min
Histogram: 3 0 0 0 0 0 0 0 0 1

Total # of neighbors = 25
Ave neighs/atom = 0.49019608
Neighbor list builds = 166
Dangerous builds = 0

undump D1

############ Add spring between top chain to supp particle and then equilibrium  ###########

#fix sp1 support spring couple slider1 ${K0} ${lenspr} NULL NULL 0                                 # Add spring

#dump 		D2 all custom 100000 add_${num}*.dump id type diameter mass xu yu zu

#fix add1 all print 10 "${p0} ${distance} ${slider_z}" file add_distance_${num}.txt screen no      # out put step, distance(spring length), z-position of top chain

#run 1000000

#undump D2

#unfix add1

########## Pulling the supporting particle with constant velocity #############

#fix m1 support move linear 0.1 0 0 units box                                                      # apply constant velocity to supporting particles along x-direction V=0.1m/s

#fix move1 all print 100 "${p0} ${distance} ${slider_z}" file move_distance_${num}.txt screen no

#dump 		1 all custom 50000 move_${num}_*.dump id type diameter mass xu yu zu

#run 1000000

clear
  using 1 OpenMP thread(s) per MPI task

next num

jump SELF startloop

include granular.in
### Simulation of contact between two chain

##################### Simulation setup ####################

units micro                              # units
dimension	3                            # dimension
boundary	p p p                        # boundary condition p: periodic
atom_style	sphere                       # atom style
#processors * * 1

####################### Parameter ##################################

variable ind equal ${num}
variable ind equal 3

#variable lat0 equal 1                    #
variable lat1 equal 3+(251*0.01)+(v_ind*0.01)  # .491+(v_ind*0.001)       # Lattice distance of bottom chain
variable lat2 equal 3                    # Lattice distance of top chain
variable d1 equal 3                      # Diamter of particle at bottom chain
variable d2 equal 3                      # Diamter of particle at top chain
#variable d3 equal 1                      # Diamter of supporting particle

variable n2e1 equal 10*v_lat2             # Half length of top chain. 1500 is number of particles
variable n1e1 equal 1.5*v_n2e1*(v_lat1/v_lat2)             # Half length of bottom chain, which is 1.5 time larger than top chain
variable n1e2 equal -v_n1e1
variable n2e2 equal -v_n2e1
#variable lenspr equal -(v_n2e1+100)           # length of the spring connecting top chain and supporting particle
#variable lenspr1 equal -v_lenspr-0.1         # Position of supporting particle upper bound
#variable lenspr2 equal -v_lenspr+0.1         # Position of supporting particle lower bound

variable den equal 2.2 #grams/cm^3      # micrometer^3=10^-12 cm^3 Density of materials

variable V1 equal (1/6)*PI*(v_d1^3)     # Volume of particle 1
variable V2 equal (1/6)*PI*(v_d2^3)     # Volume of particle 2
#variable V3 equal (1/6)*PI*(v_d3^3)     # Volume of particle 3

variable mass1 equal v_den*v_V1  # Mass of particle 1 (picograms)
variable mass2 equal v_den*v_V2  # Mass of particle 2
#variable mass3 equal v_den*v_V3  # Mass of particle 3

# E GPa to picogram/(micrometer-microsecond^2)= 10^3 Pa= 10^-6 GPa
# Force unit(picogram-micrometer/microsecond^2)=10^-9 N= 1nN
# Spring stiffness (force/distance) 10^-3 N/m

variable K0 equal (1500/50)*(10^5)             # Spring stiffness conneting top chain and sup particle
variable E equal 100*(10^6)                    # Young's Modulus using for Hertz/material model
variable PR equal 0.3                          # Poisson's ratio using for Hertz/material model
variable Fn equal -1000                        # Force apply to each particles in top chain
variable dt equal 0.00001                      # Time step units microsecond
variable lgv equal 0.5                         #damping for langevin thermostat for slider


################### Creating the model #################################
lattice sc ${lat1}                                                               # Bottom chain type1
lattice sc 5.54                                                               
Lattice spacing in x,y,z = 5.54 5.54 5.54

region box block ${n1e2} ${n1e1} -100 100 -100 100 units box
region box block -83.1 ${n1e1} -100 100 -100 100 units box
region box block -83.1 83.1 -100 100 -100 100 units box
region substrate block ${n1e2} ${n1e1} -0.5 0.5 0 0.5 units box
region substrate block -83.1 ${n1e1} -0.5 0.5 0 0.5 units box
region substrate block -83.1 83.1 -0.5 0.5 0 0.5 units box

create_box 2 box
Created orthogonal box = (-83.1 -100 -100) to (83.1 100 100)
  1 by 2 by 2 MPI processor grid
create_atoms 1 region substrate
Created 30 atoms
  using lattice units in orthogonal box = (-83.1 -100 -100) to (83.1 100 100)
  create_atoms CPU = 0.000 seconds

lattice sc ${lat2}                                                             # Top chain type2
lattice sc 3                                                             
Lattice spacing in x,y,z = 3 3 3

region slider1 block ${n2e2} ${n2e1} -0.1 0.1 5.9 6.1 units box
region slider1 block -30 ${n2e1} -0.1 0.1 5.9 6.1 units box
region slider1 block -30 30 -0.1 0.1 5.9 6.1 units box

create_atoms 2 region slider1
Created 21 atoms
  using lattice units in orthogonal box = (-83.1 -100 -100) to (83.1 100 100)
  create_atoms CPU = 0.003 seconds

#lattice sc ${lat0}                                                             # Supporting particle type3

#region support block ${lenspr1} ${lenspr2} -0.1 0.1 7.9 8.1 units box

#create_atoms 3 region support

set type 1 diameter ${d1}                    # Set mass and diameter for each particles type
set type 1 diameter 3                    
Setting atom values ...
  30 settings made for diameter
set type 1 mass ${mass1}
set type 1 mass 31.101767270539
Setting atom values ...
  30 settings made for mass
set type 2 diameter ${d2}
set type 2 diameter 3
Setting atom values ...
  21 settings made for diameter
set type 2 mass ${mass2}
set type 2 mass 31.101767270539
Setting atom values ...
  21 settings made for mass
#set type 3 diameter ${d3}
#set type 3 mass ${mass3}

group substrate region substrate           # Define gorup
30 atoms in group substrate
group slider1 region slider1
21 atoms in group slider1
#group support region support
#group substrate_slider union substrate slider1

########################## Potential ###################################
pair_style granular
pair_coeff 1 1 hertz/material 0.00000001 0.001 ${PR} tangential mindlin NULL 0.1 0.01 damping viscoelastic              ########### set E between each particle in same type is small to neglect their interaction
pair_coeff 1 1 hertz/material 0.00000001 0.001 0.3 tangential mindlin NULL 0.1 0.01 damping viscoelastic              
pair_coeff 2 2 hertz/material 0.00000001 0.001 ${PR} tangential mindlin NULL 0.1 0.01 damping viscoelastic
pair_coeff 2 2 hertz/material 0.00000001 0.001 0.3 tangential mindlin NULL 0.1 0.01 damping viscoelastic
#pair_coeff 3 3 hertz/material ${E} 0.001 ${PR} tangential mindlin NULL 0.1 0.01 damping viscoelastic
pair_coeff 1 2 hertz/material ${E} 0.001 ${PR} tangential mindlin NULL 0.1 0.01 damping viscoelastic
pair_coeff 1 2 hertz/material 100000000 0.001 ${PR} tangential mindlin NULL 0.1 0.01 damping viscoelastic
pair_coeff 1 2 hertz/material 100000000 0.001 0.3 tangential mindlin NULL 0.1 0.01 damping viscoelastic
#pair_coeff 1 3 hertz/material 0.00000001 0.001 ${PR} tangential mindlin NULL 0.1 0.01 damping viscoelastic
#pair_coeff 2 3 hertz/material 0.00000001 0.001 ${PR} tangential mindlin NULL 0.1 0.01 damping viscoelastic
comm_modify     vel yes
neigh_modify    delay 0 every 1 check yes

### Compute properties ###

compute 1 slider1 com                      # Compute the center of mass of top chain
#compute 2 support com                      # Compute the center of mass of supporting particle

variable p0 equal "step"

variable slider_z equal "c_1[3]"          # output the position of top chain in z-direction

#variable distance equal "c_2[1]-c_1[1]"   # Distance between COM of top chain and supporting particle

thermo 100000
thermo_style custom step lx ly lz press pxx pyy pzz ke pe temp c_1[1] c_1[2] c_1[3] #c_2[1] c_2[2] c_2[3] v_distance

############### Fix ##################


############## Equilibrium the system with apply force ########################

fix force_slider1 slider1 setforce NULL 0 NULL                                # Fix top chain not to move in y-direction

fix f_sub substrate freeze                                                    # Freeze the bottom chain

fix rigid_top slider1 rigid/nve group 1 slider1 langevin 0 0 ${lgv} 6987532   # NVE+langevin
fix rigid_top slider1 rigid/nve group 1 slider1 langevin 0 0 0.5 6987532   
  1 rigid bodies with 21 atoms

fix add slider1 addforce 0 0 ${Fn} every 1                                    # Add force to top layer
fix add slider1 addforce 0 0 -1000 every 1                                    

timestep ${dt}
timestep 1e-05

# fix  nve_1 slider1 nve

dump 		D1 all custom 100000 Equi_${num}_*.dump id type diameter mass xu yu zu fx fy fz
dump 		D1 all custom 100000 Equi_3_*.dump id type diameter mass xu yu zu fx fy fz

run 3000000
Generated 0 of 1 mixed pair_coeff terms from geometric mixing rule
Neighbor list info ...
  update every 1 steps, delay 0 steps, check yes
  max neighbors/atom: 2000, page size: 100000
  master list distance cutoff = 3.1
  ghost atom cutoff = 3.1
  binsize = 1.55, bins = 108 130 130
  1 neighbor lists, perpetual/occasional/extra = 1 0 0
  (1) pair granular, perpetual
      attributes: half, newton on, size, history
      pair build: half/size/bin/newton
      stencil: half/bin/3d
      bin: standard
Per MPI rank memory allocation (min/avg/max) = 14.82 | 18.29 | 19.45 Mbytes
   Step           Lx             Ly             Lz           Press           Pxx            Pyy            Pzz           KinEng         PotEng          Temp          c_1[1]         c_1[2]         c_1[3]    
         0   166.2          200            200            0              0              0              0              0              0              0              2.6109412e-16  0              6            
    100000   166.2          200            200            0.0025253451  -3.537934e-37   0              0.0075760354   11979.309      0              5.7843795e+10  2.6109412e-16  0              3.3378301    
    200000   166.2          200            200            0.00078170988  3.5218616e-38  0              0.0023451296   2354.7366      0              1.137018e+10   2.6109412e-16  0              3.1023433    
    300000   166.2          200            200           -0.00012025766  1.0200329e-36  0             -0.00036077298  151.3459       0              7.3079517e+08  2.6109412e-16  0              3.0359638    
    400000   166.2          200            200            0.011290116    1.2270517e-36  0              0.033870349    33.816661      0              1.6328855e+08  2.6109412e-16  0              2.988747     
    500000   166.2          200            200            0.00060180331  1.4827438e-35  0              0.0018054099   0.26203641     0              1265280        2.6109412e-16  0              2.9984249    
    600000   166.2          200            200            0.0023880889   4.5718806e-36  0              0.0071642667   2.0237697      0              9772059.5      2.6109412e-16  0              2.9960086    
    700000   166.2          200            200            0.002946118    1.4239124e-36  0              0.008838354    0.40985214     0              1979029.3      2.6109412e-16  0              2.9954205    
    800000   166.2          200            200            0.0030984114   1.675301e-36   0              0.0092952342   0.064921103    0              313480.77      2.6109412e-16  0              2.9952685    
    900000   166.2          200            200            0.0031409617   2.1515223e-37  0              0.0094228852   0.009611227    0              46409.176      2.6109412e-16  0              2.9952269    
   1000000   166.2          200            200            0.0031518935  -2.8210744e-38  0              0.0094556804   0.0013600446   0              6567.1684      2.6109412e-16  0              2.9952165    
   1100000   166.2          200            200            0.003154145   -5.7444058e-38  0              0.0094624349   0.00018481374  0              892.3994       2.6109412e-16  0              2.9952145    
   1200000   166.2          200            200            0.0031543111   8.9554941e-40  0              0.0094629333   2.4134595e-05  0              116.53732      2.6109412e-16  0              2.9952144    
   1300000   166.2          200            200            0.0031541282   5.1274295e-39  0              0.0094623845   3.0247903e-06  0              14.60563       2.6109412e-16  0              2.9952147    
   1400000   166.2          200            200            0.0031539725   6.798321e-39   0              0.0094619175   3.6263759e-07  0              1.7510471      2.6109412e-16  0              2.9952148    
   1500000   166.2          200            200            0.0031538839   4.1157636e-39  0              0.0094616516   4.1348561e-08  0              0.1996574      2.6109412e-16  0              2.9952149    
   1600000   166.2          200            200            0.0031538404   8.7358291e-39  0              0.0094615211   4.4414333e-09  0              0.021446092    2.6109412e-16  0              2.995215     
   1700000   166.2          200            200            0.0031538207   3.1158702e-38  0              0.009461462    4.4238128e-10  0              0.0021361009   2.6109412e-16  0              2.995215     
   1800000   166.2          200            200            0.0031538122  -5.0588816e-39  0              0.0094614366   3.973847e-11   0              0.00019188285  2.6109412e-16  0              2.995215     
   1900000   166.2          200            200            0.0031538087   6.1409913e-39  0              0.0094614261   3.0489038e-12  0              1.4722065e-05  2.6109412e-16  0              2.995215     
   2000000   166.2          200            200            0.0031538073  -4.2796934e-38  0              0.0094614219   1.755053e-13   0              8.4745228e-07  2.6109412e-16  0              2.995215     
   2100000   166.2          200            200            0.0031538068   3.1817392e-38  0              0.0094614203   4.7508641e-15  0              2.2940222e-08  2.6109412e-16  0              2.995215     
   2200000   166.2          200            200            0.0031538065   1.5142232e-40  0              0.0094614196   4.1204055e-17  0              1.9895964e-10  2.6109412e-16  0              2.995215     
   2300000   166.2          200            200            0.0031538065  -3.9427206e-38  0              0.0094614194   1.9632302e-16  0              9.4797361e-10  2.6109412e-16  0              2.995215     
   2400000   166.2          200            200            0.0031538064   1.8863266e-38  0              0.0094614193   8.7553033e-17  0              4.2276226e-10  2.6109412e-16  0              2.995215     
   2500000   166.2          200            200            0.0031538064   2.6804596e-38  0              0.0094614193   2.4596086e-17  0              1.187657e-10   2.6109412e-16  0              2.995215     
   2600000   166.2          200            200            0.0031538064  -4.3632058e-39  0              0.0094614193   5.8601318e-18  0              2.8296479e-11  2.6109412e-16  0              2.995215     
   2700000   166.2          200            200            0.0031538064   4.1273785e-38  0              0.0094614193   1.1155927e-18  0              5.386798e-12   2.6109412e-16  0              2.995215     
   2800000   166.2          200            200            0.0031538064  -6.0314456e-38  0              0.0094614193   2.4891605e-19  0              1.2019265e-12  2.6109412e-16  0              2.995215     
   2900000   166.2          200            200            0.0031538064  -7.0825508e-38  0              0.0094614193   9.4714468e-21  0              4.5734227e-14  2.6109412e-16  0              2.995215     
   3000000   166.2          200            200            0.0031538064  -1.235483e-38   0              0.0094614193   7.157154e-20   0              3.4559335e-13  2.6109412e-16  0              2.995215     
Loop time of 65.3306 on 4 procs for 3000000 steps with 51 atoms

Performance: 39675143.263 ns/day, 0.000 hours/ns, 45920.305 timesteps/s
100.0% CPU use with 4 MPI tasks x 1 OpenMP threads

MPI task timing breakdown:
Section |  min time  |  avg time  |  max time  |%varavg| %total
---------------------------------------------------------------
Pair    | 0.32116    | 1.5881     | 5.2233     | 166.6 |  2.43
Neigh   | 0.084155   | 0.084702   | 0.086209   |   0.3 |  0.13
Comm    | 26.095     | 32.812     | 38.602     |  84.6 | 50.22
Output  | 0.060917   | 0.060995   | 0.061056   |   0.0 |  0.09
Modify  | 15.766     | 21.708     | 29.204     | 122.1 | 33.23
Other   |            | 9.077      |            |       | 13.89

Nlocal:          12.75 ave          51 max           0 min
Histogram: 3 0 0 0 0 0 0 0 0 1
Nghost:          39.25 ave          52 max           1 min
Histogram: 1 0 0 0 0 0 0 0 0 3
Neighs:           6.25 ave          25 max           0 min
Histogram: 3 0 0 0 0 0 0 0 0 1

Total # of neighbors = 25
Ave neighs/atom = 0.49019608
Neighbor list builds = 164
Dangerous builds = 0

undump D1

############ Add spring between top chain to supp particle and then equilibrium  ###########

#fix sp1 support spring couple slider1 ${K0} ${lenspr} NULL NULL 0                                 # Add spring

#dump 		D2 all custom 100000 add_${num}*.dump id type diameter mass xu yu zu

#fix add1 all print 10 "${p0} ${distance} ${slider_z}" file add_distance_${num}.txt screen no      # out put step, distance(spring length), z-position of top chain

#run 1000000

#undump D2

#unfix add1

########## Pulling the supporting particle with constant velocity #############

#fix m1 support move linear 0.1 0 0 units box                                                      # apply constant velocity to supporting particles along x-direction V=0.1m/s

#fix move1 all print 100 "${p0} ${distance} ${slider_z}" file move_distance_${num}.txt screen no

#dump 		1 all custom 50000 move_${num}_*.dump id type diameter mass xu yu zu

#run 1000000

clear
  using 1 OpenMP thread(s) per MPI task

next num

jump SELF startloop

include granular.in
### Simulation of contact between two chain

##################### Simulation setup ####################

units micro                              # units
dimension	3                            # dimension
boundary	p p p                        # boundary condition p: periodic
atom_style	sphere                       # atom style
#processors * * 1

####################### Parameter ##################################

variable ind equal ${num}
variable ind equal 4

#variable lat0 equal 1                    #
variable lat1 equal 3+(251*0.01)+(v_ind*0.01)  # .491+(v_ind*0.001)       # Lattice distance of bottom chain
variable lat2 equal 3                    # Lattice distance of top chain
variable d1 equal 3                      # Diamter of particle at bottom chain
variable d2 equal 3                      # Diamter of particle at top chain
#variable d3 equal 1                      # Diamter of supporting particle

variable n2e1 equal 10*v_lat2             # Half length of top chain. 1500 is number of particles
variable n1e1 equal 1.5*v_n2e1*(v_lat1/v_lat2)             # Half length of bottom chain, which is 1.5 time larger than top chain
variable n1e2 equal -v_n1e1
variable n2e2 equal -v_n2e1
#variable lenspr equal -(v_n2e1+100)           # length of the spring connecting top chain and supporting particle
#variable lenspr1 equal -v_lenspr-0.1         # Position of supporting particle upper bound
#variable lenspr2 equal -v_lenspr+0.1         # Position of supporting particle lower bound

variable den equal 2.2 #grams/cm^3      # micrometer^3=10^-12 cm^3 Density of materials

variable V1 equal (1/6)*PI*(v_d1^3)     # Volume of particle 1
variable V2 equal (1/6)*PI*(v_d2^3)     # Volume of particle 2
#variable V3 equal (1/6)*PI*(v_d3^3)     # Volume of particle 3

variable mass1 equal v_den*v_V1  # Mass of particle 1 (picograms)
variable mass2 equal v_den*v_V2  # Mass of particle 2
#variable mass3 equal v_den*v_V3  # Mass of particle 3

# E GPa to picogram/(micrometer-microsecond^2)= 10^3 Pa= 10^-6 GPa
# Force unit(picogram-micrometer/microsecond^2)=10^-9 N= 1nN
# Spring stiffness (force/distance) 10^-3 N/m

variable K0 equal (1500/50)*(10^5)             # Spring stiffness conneting top chain and sup particle
variable E equal 100*(10^6)                    # Young's Modulus using for Hertz/material model
variable PR equal 0.3                          # Poisson's ratio using for Hertz/material model
variable Fn equal -1000                        # Force apply to each particles in top chain
variable dt equal 0.00001                      # Time step units microsecond
variable lgv equal 0.5                         #damping for langevin thermostat for slider


################### Creating the model #################################
lattice sc ${lat1}                                                               # Bottom chain type1
lattice sc 5.55                                                               
Lattice spacing in x,y,z = 5.55 5.55 5.55

region box block ${n1e2} ${n1e1} -100 100 -100 100 units box
region box block -83.25 ${n1e1} -100 100 -100 100 units box
region box block -83.25 83.25 -100 100 -100 100 units box
region substrate block ${n1e2} ${n1e1} -0.5 0.5 0 0.5 units box
region substrate block -83.25 ${n1e1} -0.5 0.5 0 0.5 units box
region substrate block -83.25 83.25 -0.5 0.5 0 0.5 units box

create_box 2 box
Created orthogonal box = (-83.25 -100 -100) to (83.25 100 100)
  1 by 2 by 2 MPI processor grid
create_atoms 1 region substrate
Created 30 atoms
  using lattice units in orthogonal box = (-83.25 -100 -100) to (83.25 100 100)
  create_atoms CPU = 0.000 seconds

lattice sc ${lat2}                                                             # Top chain type2
lattice sc 3                                                             
Lattice spacing in x,y,z = 3 3 3

region slider1 block ${n2e2} ${n2e1} -0.1 0.1 5.9 6.1 units box
region slider1 block -30 ${n2e1} -0.1 0.1 5.9 6.1 units box
region slider1 block -30 30 -0.1 0.1 5.9 6.1 units box

create_atoms 2 region slider1
Created 21 atoms
  using lattice units in orthogonal box = (-83.25 -100 -100) to (83.25 100 100)
  create_atoms CPU = 0.001 seconds

#lattice sc ${lat0}                                                             # Supporting particle type3

#region support block ${lenspr1} ${lenspr2} -0.1 0.1 7.9 8.1 units box

#create_atoms 3 region support

set type 1 diameter ${d1}                    # Set mass and diameter for each particles type
set type 1 diameter 3                    
Setting atom values ...
  30 settings made for diameter
set type 1 mass ${mass1}
set type 1 mass 31.101767270539
Setting atom values ...
  30 settings made for mass
set type 2 diameter ${d2}
set type 2 diameter 3
Setting atom values ...
  21 settings made for diameter
set type 2 mass ${mass2}
set type 2 mass 31.101767270539
Setting atom values ...
  21 settings made for mass
#set type 3 diameter ${d3}
#set type 3 mass ${mass3}

group substrate region substrate           # Define gorup
30 atoms in group substrate
group slider1 region slider1
21 atoms in group slider1
#group support region support
#group substrate_slider union substrate slider1

########################## Potential ###################################
pair_style granular
pair_coeff 1 1 hertz/material 0.00000001 0.001 ${PR} tangential mindlin NULL 0.1 0.01 damping viscoelastic              ########### set E between each particle in same type is small to neglect their interaction
pair_coeff 1 1 hertz/material 0.00000001 0.001 0.3 tangential mindlin NULL 0.1 0.01 damping viscoelastic              
pair_coeff 2 2 hertz/material 0.00000001 0.001 ${PR} tangential mindlin NULL 0.1 0.01 damping viscoelastic
pair_coeff 2 2 hertz/material 0.00000001 0.001 0.3 tangential mindlin NULL 0.1 0.01 damping viscoelastic
#pair_coeff 3 3 hertz/material ${E} 0.001 ${PR} tangential mindlin NULL 0.1 0.01 damping viscoelastic
pair_coeff 1 2 hertz/material ${E} 0.001 ${PR} tangential mindlin NULL 0.1 0.01 damping viscoelastic
pair_coeff 1 2 hertz/material 100000000 0.001 ${PR} tangential mindlin NULL 0.1 0.01 damping viscoelastic
pair_coeff 1 2 hertz/material 100000000 0.001 0.3 tangential mindlin NULL 0.1 0.01 damping viscoelastic
#pair_coeff 1 3 hertz/material 0.00000001 0.001 ${PR} tangential mindlin NULL 0.1 0.01 damping viscoelastic
#pair_coeff 2 3 hertz/material 0.00000001 0.001 ${PR} tangential mindlin NULL 0.1 0.01 damping viscoelastic
comm_modify     vel yes
neigh_modify    delay 0 every 1 check yes

### Compute properties ###

compute 1 slider1 com                      # Compute the center of mass of top chain
#compute 2 support com                      # Compute the center of mass of supporting particle

variable p0 equal "step"

variable slider_z equal "c_1[3]"          # output the position of top chain in z-direction

#variable distance equal "c_2[1]-c_1[1]"   # Distance between COM of top chain and supporting particle

thermo 100000
thermo_style custom step lx ly lz press pxx pyy pzz ke pe temp c_1[1] c_1[2] c_1[3] #c_2[1] c_2[2] c_2[3] v_distance

############### Fix ##################


############## Equilibrium the system with apply force ########################

fix force_slider1 slider1 setforce NULL 0 NULL                                # Fix top chain not to move in y-direction

fix f_sub substrate freeze                                                    # Freeze the bottom chain

fix rigid_top slider1 rigid/nve group 1 slider1 langevin 0 0 ${lgv} 6987532   # NVE+langevin
fix rigid_top slider1 rigid/nve group 1 slider1 langevin 0 0 0.5 6987532   
  1 rigid bodies with 21 atoms

fix add slider1 addforce 0 0 ${Fn} every 1                                    # Add force to top layer
fix add slider1 addforce 0 0 -1000 every 1                                    

timestep ${dt}
timestep 1e-05

# fix  nve_1 slider1 nve

dump 		D1 all custom 100000 Equi_${num}_*.dump id type diameter mass xu yu zu fx fy fz
dump 		D1 all custom 100000 Equi_4_*.dump id type diameter mass xu yu zu fx fy fz

run 3000000
Generated 0 of 1 mixed pair_coeff terms from geometric mixing rule
Neighbor list info ...
  update every 1 steps, delay 0 steps, check yes
  max neighbors/atom: 2000, page size: 100000
  master list distance cutoff = 3.1
  ghost atom cutoff = 3.1
  binsize = 1.55, bins = 108 130 130
  1 neighbor lists, perpetual/occasional/extra = 1 0 0
  (1) pair granular, perpetual
      attributes: half, newton on, size, history
      pair build: half/size/bin/newton
      stencil: half/bin/3d
      bin: standard
Per MPI rank memory allocation (min/avg/max) = 14.82 | 18.29 | 19.45 Mbytes
   Step           Lx             Ly             Lz           Press           Pxx            Pyy            Pzz           KinEng         PotEng          Temp          c_1[1]         c_1[2]         c_1[3]    
         0   166.5          200            200            0              0              0              0              0              0              0              2.6109412e-16  0              6            
    100000   166.5          200            200            0.0025224068   2.387405e-37   0              0.0075672204   11991.226      0              5.7901341e+10  2.6109412e-16  0              3.3372283    
    200000   166.5          200            200            0.00078536476 -4.3947562e-37  0              0.0023560943   2379.3163      0              1.1488867e+10  2.6109412e-16  0              3.1010264    
    300000   166.5          200            200           -0.00011805158  4.8080385e-36  0             -0.00035415475  145.63805      0              7.0323403e+08  2.6109412e-16  0              3.0362343    
    400000   166.5          200            200            0.011098266   -7.9918472e-36  0              0.033294799    39.808736      0              1.9222214e+08  2.6109412e-16  0              2.9888579    
[...]
   2900000   194.7          200            200            0.0026921552   1.3557873e-38  0              0.0080764657   1.4488912e-22  0              7.77353e-16    2.6109412e-16  0              2.995215     
   3000000   194.7          200            200            0.0026921552   4.0572399e-38  0              0.0080764657   1.5231314e-19  0              8.1718405e-13  2.6109412e-16  0              2.995215     
Loop time of 62.9225 on 4 procs for 3000000 steps with 50 atoms

Performance: 41193508.898 ns/day, 0.000 hours/ns, 47677.672 timesteps/s
100.0% CPU use with 4 MPI tasks x 1 OpenMP threads

MPI task timing breakdown:
Section |  min time  |  avg time  |  max time  |%varavg| %total
---------------------------------------------------------------
Pair    | 0.3135     | 1.5025     | 4.8678     | 158.6 |  2.39
Neigh   | 0.098554   | 0.099205   | 0.10081    |   0.3 |  0.16
Comm    | 25.131     | 31.649     | 37.312     |  83.9 | 50.30
Output  | 0.063275   | 0.063355   | 0.063417   |   0.0 |  0.10
Modify  | 15.021     | 20.863     | 28.008     | 120.1 | 33.16
Other   |            | 8.745      |            |       | 13.90

Nlocal:           12.5 ave          50 max           0 min
Histogram: 3 0 0 0 0 0 0 0 0 1
Nghost:           37.5 ave          50 max           0 min
Histogram: 1 0 0 0 0 0 0 0 0 3
Neighs:           5.75 ave          23 max           0 min
Histogram: 3 0 0 0 0 0 0 0 0 1

Total # of neighbors = 23
Ave neighs/atom = 0.46
Neighbor list builds = 166
Dangerous builds = 0

undump D1

############ Add spring between top chain to supp particle and then equilibrium  ###########

#fix sp1 support spring couple slider1 ${K0} ${lenspr} NULL NULL 0                                 # Add spring

#dump 		D2 all custom 100000 add_${num}*.dump id type diameter mass xu yu zu

#fix add1 all print 10 "${p0} ${distance} ${slider_z}" file add_distance_${num}.txt screen no      # out put step, distance(spring length), z-position of top chain

#run 1000000

#undump D2

#unfix add1

########## Pulling the supporting particle with constant velocity #############

#fix m1 support move linear 0.1 0 0 units box                                                      # apply constant velocity to supporting particles along x-direction V=0.1m/s

#fix move1 all print 100 "${p0} ${distance} ${slider_z}" file move_distance_${num}.txt screen no

#dump 		1 all custom 50000 move_${num}_*.dump id type diameter mass xu yu zu

#run 1000000

clear
  using 1 OpenMP thread(s) per MPI task

next num

jump SELF startloop

include granular.in
### Simulation of contact between two chain

##################### Simulation setup ####################

units micro                              # units
dimension	3                            # dimension
boundary	p p p                        # boundary condition p: periodic
atom_style	sphere                       # atom style
#processors * * 1

####################### Parameter ##################################

variable ind equal ${num}
variable ind equal 99

#variable lat0 equal 1                    #
variable lat1 equal 3+(251*0.01)+(v_ind*0.01)  # .491+(v_ind*0.001)       # Lattice distance of bottom chain
variable lat2 equal 3                    # Lattice distance of top chain
variable d1 equal 3                      # Diamter of particle at bottom chain
variable d2 equal 3                      # Diamter of particle at top chain
#variable d3 equal 1                      # Diamter of supporting particle

variable n2e1 equal 10*v_lat2             # Half length of top chain. 1500 is number of particles
variable n1e1 equal 1.5*v_n2e1*(v_lat1/v_lat2)             # Half length of bottom chain, which is 1.5 time larger than top chain
variable n1e2 equal -v_n1e1
variable n2e2 equal -v_n2e1
#variable lenspr equal -(v_n2e1+100)           # length of the spring connecting top chain and supporting particle
#variable lenspr1 equal -v_lenspr-0.1         # Position of supporting particle upper bound
#variable lenspr2 equal -v_lenspr+0.1         # Position of supporting particle lower bound

variable den equal 2.2 #grams/cm^3      # micrometer^3=10^-12 cm^3 Density of materials

variable V1 equal (1/6)*PI*(v_d1^3)     # Volume of particle 1
variable V2 equal (1/6)*PI*(v_d2^3)     # Volume of particle 2
#variable V3 equal (1/6)*PI*(v_d3^3)     # Volume of particle 3

variable mass1 equal v_den*v_V1  # Mass of particle 1 (picograms)
variable mass2 equal v_den*v_V2  # Mass of particle 2
#variable mass3 equal v_den*v_V3  # Mass of particle 3

# E GPa to picogram/(micrometer-microsecond^2)= 10^3 Pa= 10^-6 GPa
# Force unit(picogram-micrometer/microsecond^2)=10^-9 N= 1nN
# Spring stiffness (force/distance) 10^-3 N/m

variable K0 equal (1500/50)*(10^5)             # Spring stiffness conneting top chain and sup particle
variable E equal 100*(10^6)                    # Young's Modulus using for Hertz/material model
variable PR equal 0.3                          # Poisson's ratio using for Hertz/material model
variable Fn equal -1000                        # Force apply to each particles in top chain
variable dt equal 0.00001                      # Time step units microsecond
variable lgv equal 0.5                         #damping for langevin thermostat for slider


################### Creating the model #################################
lattice sc ${lat1}                                                               # Bottom chain type1
lattice sc 6.5                                                               
Lattice spacing in x,y,z = 6.5 6.5 6.5

region box block ${n1e2} ${n1e1} -100 100 -100 100 units box
region box block -97.5 ${n1e1} -100 100 -100 100 units box
region box block -97.5 97.5 -100 100 -100 100 units box
region substrate block ${n1e2} ${n1e1} -0.5 0.5 0 0.5 units box
region substrate block -97.5 ${n1e1} -0.5 0.5 0 0.5 units box
region substrate block -97.5 97.5 -0.5 0.5 0 0.5 units box

create_box 2 box
Created orthogonal box = (-97.5 -100 -100) to (97.5 100 100)
  1 by 2 by 2 MPI processor grid
create_atoms 1 region substrate
Created 30 atoms
  using lattice units in orthogonal box = (-97.5 -100 -100) to (97.5 100 100)
  create_atoms CPU = 0.000 seconds

lattice sc ${lat2}                                                             # Top chain type2
lattice sc 3                                                             
Lattice spacing in x,y,z = 3 3 3

region slider1 block ${n2e2} ${n2e1} -0.1 0.1 5.9 6.1 units box
region slider1 block -30 ${n2e1} -0.1 0.1 5.9 6.1 units box
region slider1 block -30 30 -0.1 0.1 5.9 6.1 units box

create_atoms 2 region slider1
Created 21 atoms
  using lattice units in orthogonal box = (-97.5 -100 -100) to (97.5 100 100)
  create_atoms CPU = 0.001 seconds

#lattice sc ${lat0}                                                             # Supporting particle type3

#region support block ${lenspr1} ${lenspr2} -0.1 0.1 7.9 8.1 units box

#create_atoms 3 region support

set type 1 diameter ${d1}                    # Set mass and diameter for each particles type
set type 1 diameter 3                    
Setting atom values ...
  30 settings made for diameter
set type 1 mass ${mass1}
set type 1 mass 31.101767270539
Setting atom values ...
  30 settings made for mass
set type 2 diameter ${d2}
set type 2 diameter 3
Setting atom values ...
  21 settings made for diameter
set type 2 mass ${mass2}
set type 2 mass 31.101767270539
Setting atom values ...
  21 settings made for mass
#set type 3 diameter ${d3}
#set type 3 mass ${mass3}

group substrate region substrate           # Define gorup
30 atoms in group substrate
group slider1 region slider1
21 atoms in group slider1
#group support region support
#group substrate_slider union substrate slider1

########################## Potential ###################################
pair_style granular
pair_coeff 1 1 hertz/material 0.00000001 0.001 ${PR} tangential mindlin NULL 0.1 0.01 damping viscoelastic              ########### set E between each particle in same type is small to neglect their interaction
pair_coeff 1 1 hertz/material 0.00000001 0.001 0.3 tangential mindlin NULL 0.1 0.01 damping viscoelastic              
pair_coeff 2 2 hertz/material 0.00000001 0.001 ${PR} tangential mindlin NULL 0.1 0.01 damping viscoelastic
pair_coeff 2 2 hertz/material 0.00000001 0.001 0.3 tangential mindlin NULL 0.1 0.01 damping viscoelastic
#pair_coeff 3 3 hertz/material ${E} 0.001 ${PR} tangential mindlin NULL 0.1 0.01 damping viscoelastic
pair_coeff 1 2 hertz/material ${E} 0.001 ${PR} tangential mindlin NULL 0.1 0.01 damping viscoelastic
pair_coeff 1 2 hertz/material 100000000 0.001 ${PR} tangential mindlin NULL 0.1 0.01 damping viscoelastic
pair_coeff 1 2 hertz/material 100000000 0.001 0.3 tangential mindlin NULL 0.1 0.01 damping viscoelastic
#pair_coeff 1 3 hertz/material 0.00000001 0.001 ${PR} tangential mindlin NULL 0.1 0.01 damping viscoelastic
#pair_coeff 2 3 hertz/material 0.00000001 0.001 ${PR} tangential mindlin NULL 0.1 0.01 damping viscoelastic
comm_modify     vel yes
neigh_modify    delay 0 every 1 check yes

### Compute properties ###

compute 1 slider1 com                      # Compute the center of mass of top chain
#compute 2 support com                      # Compute the center of mass of supporting particle

variable p0 equal "step"

variable slider_z equal "c_1[3]"          # output the position of top chain in z-direction

#variable distance equal "c_2[1]-c_1[1]"   # Distance between COM of top chain and supporting particle

thermo 100000
thermo_style custom step lx ly lz press pxx pyy pzz ke pe temp c_1[1] c_1[2] c_1[3] #c_2[1] c_2[2] c_2[3] v_distance

############### Fix ##################


############## Equilibrium the system with apply force ########################

fix force_slider1 slider1 setforce NULL 0 NULL                                # Fix top chain not to move in y-direction

fix f_sub substrate freeze                                                    # Freeze the bottom chain

fix rigid_top slider1 rigid/nve group 1 slider1 langevin 0 0 ${lgv} 6987532   # NVE+langevin
fix rigid_top slider1 rigid/nve group 1 slider1 langevin 0 0 0.5 6987532   
  1 rigid bodies with 21 atoms

fix add slider1 addforce 0 0 ${Fn} every 1                                    # Add force to top layer
fix add slider1 addforce 0 0 -1000 every 1                                    

timestep ${dt}
timestep 1e-05

# fix  nve_1 slider1 nve

dump 		D1 all custom 100000 Equi_${num}_*.dump id type diameter mass xu yu zu fx fy fz
dump 		D1 all custom 100000 Equi_99_*.dump id type diameter mass xu yu zu fx fy fz

run 3000000
Generated 0 of 1 mixed pair_coeff terms from geometric mixing rule
Neighbor list info ...
  update every 1 steps, delay 0 steps, check yes
  max neighbors/atom: 2000, page size: 100000
  master list distance cutoff = 3.1
  ghost atom cutoff = 3.1
  binsize = 1.55, bins = 126 130 130
  1 neighbor lists, perpetual/occasional/extra = 1 0 0
  (1) pair granular, perpetual
      attributes: half, newton on, size, history
      pair build: half/size/bin/newton
      stencil: half/bin/3d
      bin: standard
Per MPI rank memory allocation (min/avg/max) = 15.17 | 18.64 | 19.8 Mbytes
   Step           Lx             Ly             Lz           Press           Pxx            Pyy            Pzz           KinEng         PotEng          Temp          c_1[1]         c_1[2]         c_1[3]    
         0   195            200            200            0              0              0              0              0              0              0              2.6109412e-16  0              6            
    100000   195            200            200            0.0021466199   2.1278468e-36  0              0.0064398596   11928.858      0              5.7600185e+10  2.6109412e-16  0              3.3406158    
    200000   195            200            200            0.00065327366 -1.9887687e-36  0              0.001959821    2281.4002      0              1.1016065e+10  2.6109412e-16  0              3.1062988    
    300000   195            200            200           -0.00010780012 -3.1742885e-36  0             -0.00032340035  170.10802      0              8.2139076e+08  2.6109412e-16  0              3.0350828    
    400000   195            200            200            0.010020602   -1.6807867e-38  0              0.030061805    17.171079      0              82912994       2.6109412e-16  0              2.9884504    
    500000   195            200            200            0.0005012651   2.8930625e-35  0              0.0015037953   0.00061844743  0              2986.2613      2.6109412e-16  0              2.9984397    
    600000   195            200            200            0.0020999981   7.3396433e-36  0              0.0062999943   2.4356904      0              11761077       2.6109412e-16  0              2.9959234    
    700000   195            200            200            0.0025416546  -8.480169e-38   0              0.0076249638   0.45715598     0              2207442.6      2.6109412e-16  0              2.995383     
    800000   195            200            200            0.0026531053   1.8350078e-36  0              0.007959316    0.069646322    0              336297.17      2.6109412e-16  0              2.9952537    
    900000   195            200            200            0.002681794   -2.8807866e-38  0              0.008045382    0.0099867349   0              48222.369      2.6109412e-16  0              2.9952213    
   1000000   195            200            200            0.0026881547   3.2776812e-38  0              0.008064464    0.0013718595   0              6624.2186      2.6109412e-16  0              2.9952144    
   1100000   195            200            200            0.0026889521  -9.1482501e-38  0              0.0080668564   0.00018105374  0              874.24369      2.6109412e-16  0              2.9952137    
   1200000   195            200            200            0.0026886774   2.1306131e-39  0              0.0080660323   2.2943808e-05  0              110.78744      2.6109412e-16  0              2.9952142    
   1300000   195            200            200            0.00268837     2.0719122e-39  0              0.0080651101   2.7842852e-06  0              13.444317      2.6109412e-16  0              2.9952146    
   1400000   195            200            200            0.0026881834  -9.2336595e-40  0              0.0080645501   3.2193297e-07  0              1.5544991      2.6109412e-16  0              2.9952148    
   1500000   195            200            200            0.002688089    6.5653985e-39  0              0.008064267    3.5171478e-08  0              0.16983048     2.6109412e-16  0              2.9952149    
   1600000   195            200            200            0.0026880455  -8.9002789e-39  0              0.0080641365   3.581e-09      0              0.017291367    2.6109412e-16  0              2.995215     
   1700000   195            200            200            0.0026880266  -1.8655684e-38  0              0.0080640797   3.3181189e-10  0              0.0016022009   2.6109412e-16  0              2.995215     
   1800000   195            200            200            0.0026880187   1.0167711e-38  0              0.0080640561   2.6751018e-11  0              0.00012917109  2.6109412e-16  0              2.995215     
   1900000   195            200            200            0.0026880155   1.1540267e-38  0              0.0080640465   1.6974768e-12  0              8.196508e-06   2.6109412e-16  0              2.995215     
   2000000   195            200            200            0.0026880142   2.4958128e-38  0              0.0080640427   6.2108886e-14  0              2.9990158e-07  2.6109412e-16  0              2.995215     
   2100000   195            200            200            0.0026880138   9.4625763e-39  0              0.0080640413   2.7328473e-17  0              1.3195942e-10  2.6109412e-16  0              2.995215     
   2200000   195            200            200            0.0026880136   7.7899462e-39  0              0.0080640407   8.8993418e-16  0              4.2971737e-09  2.6109412e-16  0              2.995215     
   2300000   195            200            200            0.0026880135   1.6875155e-38  0              0.0080640405   5.044285e-16   0              2.4357047e-09  2.6109412e-16  0              2.995215     
   2400000   195            200            200            0.0026880135   1.4687608e-38  0              0.0080640405   1.5250444e-16  0              7.3638934e-10  2.6109412e-16  0              2.995215     
   2500000   195            200            200            0.0026880135   2.0423836e-39  0              0.0080640404   3.5715714e-17  0              1.724584e-10   2.6109412e-16  0              2.995215     
   2600000   195            200            200            0.0026880135   2.186899e-38   0              0.0080640404   7.5223779e-18  0              3.6322871e-11  2.6109412e-16  0              2.995215     
   2700000   195            200            200            0.0026880135   3.3910637e-38  0              0.0080640404   1.4100086e-18  0              6.8084269e-12  2.6109412e-16  0              2.995215     
   2800000   195            200            200            0.0026880135  -5.9544625e-39  0              0.0080640404   2.8245493e-19  0              1.3638738e-12  2.6109412e-16  0              2.995215     
   2900000   195            200            200            0.0026880135   3.8309709e-38  0              0.0080640404   5.36365e-21    0              2.5899146e-14  2.6109412e-16  0              2.995215     
   3000000   195            200            200            0.0026880135   3.4106454e-38  0              0.0080640404   5.5839852e-20  0              2.6963066e-13  2.6109412e-16  0              2.995215     
Loop time of 64.2154 on 4 procs for 3000000 steps with 51 atoms

Performance: 40364148.145 ns/day, 0.000 hours/ns, 46717.764 timesteps/s
100.0% CPU use with 4 MPI tasks x 1 OpenMP threads

MPI task timing breakdown:
Section |  min time  |  avg time  |  max time  |%varavg| %total
---------------------------------------------------------------
Pair    | 0.30856    | 1.5293     | 4.9754     | 160.9 |  2.38
Neigh   | 0.098562   | 0.099172   | 0.10077    |   0.3 |  0.15
Comm    | 25.796     | 32.659     | 38.467     |  86.1 | 50.86
Output  | 0.061302   | 0.061384   | 0.061445   |   0.0 |  0.10
Modify  | 15.198     | 21.148     | 28.648     | 123.8 | 32.93
Other   |            | 8.719      |            |       | 13.58

Nlocal:          12.75 ave          51 max           0 min
Histogram: 3 0 0 0 0 0 0 0 0 1
Nghost:          39.25 ave          52 max           1 min
Histogram: 1 0 0 0 0 0 0 0 0 3
Neighs:           5.75 ave          23 max           0 min
Histogram: 3 0 0 0 0 0 0 0 0 1

Total # of neighbors = 23
Ave neighs/atom = 0.45098039
Neighbor list builds = 166
Dangerous builds = 0

undump D1

############ Add spring between top chain to supp particle and then equilibrium  ###########

#fix sp1 support spring couple slider1 ${K0} ${lenspr} NULL NULL 0                                 # Add spring

#dump 		D2 all custom 100000 add_${num}*.dump id type diameter mass xu yu zu

#fix add1 all print 10 "${p0} ${distance} ${slider_z}" file add_distance_${num}.txt screen no      # out put step, distance(spring length), z-position of top chain

#run 1000000

#undump D2

#unfix add1

########## Pulling the supporting particle with constant velocity #############

#fix m1 support move linear 0.1 0 0 units box                                                      # apply constant velocity to supporting particles along x-direction V=0.1m/s

#fix move1 all print 100 "${p0} ${distance} ${slider_z}" file move_distance_${num}.txt screen no

#dump 		1 all custom 50000 move_${num}_*.dump id type diameter mass xu yu zu

#run 1000000

clear
  using 1 OpenMP thread(s) per MPI task

next num

jump SELF startloop
Total wall time: 1:46:43
