ITEM: TIMESTEP
800000
ITEM: NUMBER OF ATOMS
4001
ITEM: BOX BOUNDS pp pp pp
-4.2426406871192903e+03 4.2426406871192903e+03
-5.0000000000000000e+01 5.0000000000000000e+01
-5.0000000000000000e+01 5.0000000000000000e+01
ITEM: ATOMS id type diameter mass xu yu zu fx fy fz
1 1 3 31.1018 -4242.64068712 0 0 0 0 0
2 1 3 31.1018 -4238.39804643 0 0 0 0 0
3 1 3 31.1018 -4234.15540575 0 0 0 0 0
4 1 3 31.1018 -4229.91276506 0 0 0 0 0
5 1 3 31.1018 -4225.67012437 0 0 0 0 0
6 1 3 31.1018 -4221.42748368 0 0 0 0 0
7 1 3 31.1018 -4217.184843 0 0 0 0 0
8 1 3 31.1018 -4212.94220231 0 0 0 0 0
9 1 3 31.1018 -4208.69956162 0 0 0 0 0
10 1 3 31.1018 -4204.45692094 0 0 0 0 0
11 1 3 31.1018 -4200.21428025 0 0 0 0 0
12 1 3 31.1018 -4195.97163956 0 0 0 0 0
13 1 3 31.1018 -4191.72899887 0 0 0 0 0
14 1 3 31.1018 -4187.48635819 0 0 0 0 0
15 1 3 31.1018 -4183.2437175 0 0 0 0 0
16 1 3 31.1018 -4179.00107681 0 0 0 0 0
17 1 3 31.1018 -4174.75843613 0 0 0 0 0
18 1 3 31.1018 -4170.51579544 0 0 0 0 0
19 1 3 31.1018 -4166.27315475 0 0 0 0 0
20 1 3 31.1018 -4162.03051406 0 0 0 0 0
21 1 3 31.1018 -4157.78787338 0 0 0 0 0
22 1 3 31.1018 -4153.54523269 0 0 0 0 0
23 1 3 31.1018 -4149.302592 0 0 0 0 0
24 1 3 31.1018 -4145.05995132 0 0 0 0 0
25 1 3 31.1018 -4140.81731063 0 0 0 0 0
26 1 3 31.1018 -4136.57466994 0 0 0 0 0
27 1 3 31.1018 -4132.33202925 0 0 0 0 0
28 1 3 31.1018 -4128.08938857 0 0 0 0 0
29 1 3 31.1018 -4123.84674788 0 0 0 0 0
30 1 3 31.1018 -4119.60410719 0 0 0 0 0
31 1 3 31.1018 -4115.36146651 0 0 0 0 0
32 1 3 31.1018 -4111.11882582 0 0 0 0 0
33 1 3 31.1018 -4106.87618513 0 0 0 0 0
34 1 3 31.1018 -4102.63354444 0 0 0 0 0
35 1 3 31.1018 -4098.39090376 0 0 0 0 0
36 1 3 31.1018 -4094.14826307 0 0 0 0 0
37 1 3 31.1018 -4089.90562238 0 0 0 0 0
38 1 3 31.1018 -4085.6629817 0 0 0 0 0
39 1 3 31.1018 -4081.42034101 0 0 0 0 0
40 1 3 31.1018 -4077.17770032 0 0 0 0 0
41 1 3 31.1018 -4072.93505963 0 0 0 0 0
42 1 3 31.1018 -4068.69241895 0 0 0 0 0
43 1 3 31.1018 -4064.44977826 0 0 0 0 0
44 1 3 31.1018 -4060.20713757 0 0 0 0 0
45 1 3 31.1018 -4055.96449689 0 0 0 0 0
46 1 3 31.1018 -4051.7218562 0 0 0 0 0
47 1 3 31.1018 -4047.47921551 0 0 0 0 0
48 1 3 31.1018 -4043.23657482 0 0 0 0 0
49 1 3 31.1018 -4038.99393414 0 0 0 0 0
50 1 3 31.1018 -4034.75129345 0 0 0 0 0
51 1 3 31.1018 -4030.50865276 0 0 0 0 0
52 1 3 31.1018 -4026.26601208 0 0 0 0 0
53 1 3 31.1018 -4022.02337139 0 0 0 0 0
54 1 3 31.1018 -4017.7807307 0 0 0 0 0
55 1 3 31.1018 -4013.53809001 0 0 0 0 0
56 1 3 31.1018 -4009.29544933 0 0 0 0 0
57 1 3 31.1018 -4005.05280864 0 0 0 0 0
58 1 3 31.1018 -4000.81016795 0 0 0 0 0
59 1 3 31.1018 -3996.56752727 0 0 0 0 0
60 1 3 31.1018 -3992.32488658 0 0 0 0 0
61 1 3 31.1018 -3988.08224589 0 0 0 0 0
62 1 3 31.1018 -3983.83960521 0 0 0 0 0
63 1 3 31.1018 -3979.59696452 0 0 0 0 0
64 1 3 31.1018 -3975.35432383 0 0 0 0 0
65 1 3 31.1018 -3971.11168314 0 0 0 0 0
66 1 3 31.1018 -3966.86904246 0 0 0 0 0
67 1 3 31.1018 -3962.62640177 0 0 0 0 0
68 1 3 31.1018 -3958.38376108 0 0 0 0 0
69 1 3 31.1018 -3954.1411204 0 0 0 0 0
70 1 3 31.1018 -3949.89847971 0 0 0 0 0
71 1 3 31.1018 -3945.65583902 0 0 0 0 0
72 1 3 31.1018 -3941.41319833 0 0 0 0 0
73 1 3 31.1018 -3937.17055765 0 0 0 0 0
74 1 3 31.1018 -3932.92791696 0 0 0 0 0
75 1 3 31.1018 -3928.68527627 0 0 0 0 0
76 1 3 31.1018 -3924.44263559 0 0 0 0 0
77 1 3 31.1018 -3920.1999949 0 0 0 0 0
78 1 3 31.1018 -3915.95735421 0 0 0 0 0
79 1 3 31.1018 -3911.71471352 0 0 0 0 0
80 1 3 31.1018 -3907.47207284 0 0 0 0 0
81 1 3 31.1018 -3903.22943215 0 0 0 0 0
82 1 3 31.1018 -3898.98679146 0 0 0 0 0
83 1 3 31.1018 -3894.74415078 0 0 0 0 0
84 1 3 31.1018 -3890.50151009 0 0 0 0 0
85 1 3 31.1018 -3886.2588694 0 0 0 0 0
86 1 3 31.1018 -3882.01622871 0 0 0 0 0
87 1 3 31.1018 -3877.77358803 0 0 0 0 0
88 1 3 31.1018 -3873.53094734 0 0 0 0 0
89 1 3 31.1018 -3869.28830665 0 0 0 0 0
90 1 3 31.1018 -3865.04566597 0 0 0 0 0
91 1 3 31.1018 -3860.80302528 0 0 0 0 0
92 1 3 31.1018 -3856.56038459 0 0 0 0 0
93 1 3 31.1018 -3852.3177439 0 0 0 0 0
94 1 3 31.1018 -3848.07510322 0 0 0 0 0
95 1 3 31.1018 -3843.83246253 0 0 0 0 0
96 1 3 31.1018 -3839.58982184 0 0 0 0 0
97 1 3 31.1018 -3835.34718116 0 0 0 0 0
98 1 3 31.1018 -3831.10454047 0 0 0 0 0
99 1 3 31.1018 -3826.86189978 0 0 0 0 0
100 1 3 31.1018 -3822.61925909 0 0 0 0 0
101 1 3 31.1018 -3818.37661841 0 0 0 0 0
102 1 3 31.1018 -3814.13397772 0 0 0 0 0
103 1 3 31.1018 -3809.89133703 0 0 0 0 0
104 1 3 31.1018 -3805.64869635 0 0 0 0 0
105 1 3 31.1018 -3801.40605566 0 0 0 0 0
106 1 3 31.1018 -3797.16341497 0 0 0 0 0
107 1 3 31.1018 -3792.92077428 0 0 0 0 0
108 1 3 31.1018 -3788.6781336 0 0 0 0 0
109 1 3 31.1018 -3784.43549291 0 0 0 0 0
110 1 3 31.1018 -3780.19285222 0 0 0 0 0
111 1 3 31.1018 -3775.95021154 0 0 0 0 0
112 1 3 31.1018 -3771.70757085 0 0 0 0 0
113 1 3 31.1018 -3767.46493016 0 0 0 0 0
114 1 3 31.1018 -3763.22228947 0 0 0 0 0
115 1 3 31.1018 -3758.97964879 0 0 0 0 0
116 1 3 31.1018 -3754.7370081 0 0 0 0 0
117 1 3 31.1018 -3750.49436741 0 0 0 0 0
118 1 3 31.1018 -3746.25172673 0 0 0 0 0
119 1 3 31.1018 -3742.00908604 0 0 0 0 0
120 1 3 31.1018 -3737.76644535 0 0 0 0 0
121 1 3 31.1018 -3733.52380466 0 0 0 0 0
122 1 3 31.1018 -3729.28116398 0 0 0 0 0
123 1 3 31.1018 -3725.03852329 0 0 0 0 0
124 1 3 31.1018 -3720.7958826 0 0 0 0 0
125 1 3 31.1018 -3716.55324192 0 0 0 0 0
126 1 3 31.1018 -3712.31060123 0 0 0 0 0
127 1 3 31.1018 -3708.06796054 0 0 0 0 0
128 1 3 31.1018 -3703.82531986 0 0 0 0 0
129 1 3 31.1018 -3699.58267917 0 0 0 0 0
130 1 3 31.1018 -3695.34003848 0 0 0 0 0
131 1 3 31.1018 -3691.09739779 0 0 0 0 0
132 1 3 31.1018 -3686.85475711 0 0 0 0 0
133 1 3 31.1018 -3682.61211642 0 0 0 0 0
134 1 3 31.1018 -3678.36947573 0 0 0 0 0
135 1 3 31.1018 -3674.12683505 0 0 0 0 0
136 1 3 31.1018 -3669.88419436 0 0 0 0 0
137 1 3 31.1018 -3665.64155367 0 0 0 0 0
138 1 3 31.1018 -3661.39891298 0 0 0 0 0
139 1 3 31.1018 -3657.1562723 0 0 0 0 0
140 1 3 31.1018 -3652.91363161 0 0 0 0 0
141 1 3 31.1018 -3648.67099092 0 0 0 0 0
142 1 3 31.1018 -3644.42835024 0 0 0 0 0
143 1 3 31.1018 -3640.18570955 0 0 0 0 0
144 1 3 31.1018 -3635.94306886 0 0 0 0 0
145 1 3 31.1018 -3631.70042817 0 0 0 0 0
146 1 3 31.1018 -3627.45778749 0 0 0 0 0
147 1 3 31.1018 -3623.2151468 0 0 0 0 0
148 1 3 31.1018 -3618.97250611 0 0 0 0 0
149 1 3 31.1018 -3614.72986543 0 0 0 0 0
150 1 3 31.1018 -3610.48722474 0 0 0 0 0
151 1 3 31.1018 -3606.24458405 0 0 0 0 0
152 1 3 31.1018 -3602.00194336 0 0 0 0 0
153 1 3 31.1018 -3597.75930268 0 0 0 0 0
154 1 3 31.1018 -3593.51666199 0 0 0 0 0
155 1 3 31.1018 -3589.2740213 0 0 0 0 0
156 1 3 31.1018 -3585.03138062 0 0 0 0 0
157 1 3 31.1018 -3580.78873993 0 0 0 0 0
158 1 3 31.1018 -3576.54609924 0 0 0 0 0
159 1 3 31.1018 -3572.30345855 0 0 0 0 0
160 1 3 31.1018 -3568.06081787 0 0 0 0 0
161 1 3 31.1018 -3563.81817718 0 0 0 0 0
162 1 3 31.1018 -3559.57553649 0 0 0 0 0
163 1 3 31.1018 -3555.33289581 0 0 0 0 0
164 1 3 31.1018 -3551.09025512 0 0 0 0 0
165 1 3 31.1018 -3546.84761443 0 0 0 0 0
166 1 3 31.1018 -3542.60497374 0 0 0 0 0
167 1 3 31.1018 -3538.36233306 0 0 0 0 0
168 1 3 31.1018 -3534.11969237 0 0 0 0 0
169 1 3 31.1018 -3529.87705168 0 0 0 0 0
170 1 3 31.1018 -3525.634411 0 0 0 0 0
171 1 3 31.1018 -3521.39177031 0 0 0 0 0
172 1 3 31.1018 -3517.14912962 0 0 0 0 0
173 1 3 31.1018 -3512.90648893 0 0 0 0 0
174 1 3 31.1018 -3508.66384825 0 0 0 0 0
175 1 3 31.1018 -3504.42120756 0 0 0 0 0
176 1 3 31.1018 -3500.17856687 0 0 0 0 0
177 1 3 31.1018 -3495.93592619 0 0 0 0 0
178 1 3 31.1018 -3491.6932855 0 0 0 0 0
179 1 3 31.1018 -3487.45064481 0 0 0 0 0
180 1 3 31.1018 -3483.20800412 0 0 0 0 0
181 1 3 31.1018 -3478.96536344 0 0 0 0 0
182 1 3 31.1018 -3474.72272275 0 0 0 0 0
183 1 3 31.1018 -3470.48008206 0 0 0 0 0
184 1 3 31.1018 -3466.23744138 0 0 0 0 0
185 1 3 31.1018 -3461.99480069 0 0 0 0 0
186 1 3 31.1018 -3457.75216 0 0 0 0 0
187 1 3 31.1018 -3453.50951932 0 0 0 0 0
188 1 3 31.1018 -3449.26687863 0 0 0 0 0
189 1 3 31.1018 -3445.02423794 0 0 0 0 0
190 1 3 31.1018 -3440.78159725 0 0 0 0 0
191 1 3 31.1018 -3436.53895657 0 0 0 0 0
192 1 3 31.1018 -3432.29631588 0 0 0 0 0
193 1 3 31.1018 -3428.05367519 0 0 0 0 0
194 1 3 31.1018 -3423.81103451 0 0 0 0 0
195 1 3 31.1018 -3419.56839382 0 0 0 0 0
196 1 3 31.1018 -3415.32575313 0 0 0 0 0
197 1 3 31.1018 -3411.08311244 0 0 0 0 0
198 1 3 31.1018 -3406.84047176 0 0 0 0 0
199 1 3 31.1018 -3402.59783107 0 0 0 0 0
200 1 3 31.1018 -3398.35519038 0 0 0 0 0
201 1 3 31.1018 -3394.1125497 0 0 0 0 0
202 1 3 31.1018 -3389.86990901 0 0 0 0 0
203 1 3 31.1018 -3385.62726832 0 0 0 0 0
204 1 3 31.1018 -3381.38462763 0 0 0 0 0
205 1 3 31.1018 -3377.14198695 0 0 0 0 0
206 1 3 31.1018 -3372.89934626 0 0 0 0 0
207 1 3 31.1018 -3368.65670557 0 0 0 0 0
208 1 3 31.1018 -3364.41406489 0 0 0 0 0
209 1 3 31.1018 -3360.1714242 0 0 0 0 0
210 1 3 31.1018 -3355.92878351 0 0 0 0 0
211 1 3 31.1018 -3351.68614282 0 0 0 0 0
212 1 3 31.1018 -3347.44350214 0 0 0 0 0
213 1 3 31.1018 -3343.20086145 0 0 0 0 0
214 1 3 31.1018 -3338.95822076 0 0 0 0 0
215 1 3 31.1018 -3334.71558008 0 0 0 0 0
216 1 3 31.1018 -3330.47293939 0 0 0 0 0
217 1 3 31.1018 -3326.2302987 0 0 0 0 0
218 1 3 31.1018 -3321.98765801 0 0 0 0 0
219 1 3 31.1018 -3317.74501733 0 0 0 0 0
220 1 3 31.1018 -3313.50237664 0 0 0 0 0
221 1 3 31.1018 -3309.25973595 0 0 0 0 0
222 1 3 31.1018 -3305.01709527 0 0 0 0 0
223 1 3 31.1018 -3300.77445458 0 0 0 0 0
224 1 3 31.1018 -3296.53181389 0 0 0 0 0
225 1 3 31.1018 -3292.2891732 0 0 0 0 0
226 1 3 31.1018 -3288.04653252 0 0 0 0 0
227 1 3 31.1018 -3283.80389183 0 0 0 0 0
228 1 3 31.1018 -3279.56125114 0 0 0 0 0
229 1 3 31.1018 -3275.31861046 0 0 0 0 0
230 1 3 31.1018 -3271.07596977 0 0 0 0 0
231 1 3 31.1018 -3266.83332908 0 0 0 0 0
232 1 3 31.1018 -3262.59068839 0 0 0 0 0
233 1 3 31.1018 -3258.34804771 0 0 0 0 0
234 1 3 31.1018 -3254.10540702 0 0 0 0 0
235 1 3 31.1018 -3249.86276633 0 0 0 0 0
236 1 3 31.1018 -3245.62012565 0 0 0 0 0
237 1 3 31.1018 -3241.37748496 0 0 0 0 0
238 1 3 31.1018 -3237.13484427 0 0 0 0 0
239 1 3 31.1018 -3232.89220358 0 0 0 0 0
240 1 3 31.1018 -3228.6495629 0 0 0 0 0
241 1 3 31.1018 -3224.40692221 0 0 0 0 0
242 1 3 31.1018 -3220.16428152 0 0 0 0 0
243 1 3 31.1018 -3215.92164084 0 0 0 0 0
244 1 3 31.1018 -3211.67900015 0 0 0 0 0
245 1 3 31.1018 -3207.43635946 0 0 0 0 0
246 1 3 31.1018 -3203.19371878 0 0 0 0 0
247 1 3 31.1018 -3198.95107809 0 0 0 0 0
248 1 3 31.1018 -3194.7084374 0 0 0 0 0
249 1 3 31.1018 -3190.46579671 0 0 0 0 0
250 1 3 31.1018 -3186.22315603 0 0 0 0 0
251 1 3 31.1018 -3181.98051534 0 0 0 0 0
252 1 3 31.1018 -3177.73787465 0 0 0 0 0
253 1 3 31.1018 -3173.49523397 0 0 0 0 0
254 1 3 31.1018 -3169.25259328 0 0 0 0 0
255 1 3 31.1018 -3165.00995259 0 0 0 0 0
256 1 3 31.1018 -3160.7673119 0 0 0 0 0
257 1 3 31.1018 -3156.52467122 0 0 0 0 0
258 1 3 31.1018 -3152.28203053 0 0 0 0 0
259 1 3 31.1018 -3148.03938984 0 0 0 0 0
260 1 3 31.1018 -3143.79674916 0 0 0 0 0
261 1 3 31.1018 -3139.55410847 0 0 0 0 0
262 1 3 31.1018 -3135.31146778 0 0 0 0 0
263 1 3 31.1018 -3131.06882709 0 0 0 0 0
264 1 3 31.1018 -3126.82618641 0 0 0 0 0
265 1 3 31.1018 -3122.58354572 0 0 0 0 0
266 1 3 31.1018 -3118.34090503 0 0 0 0 0
267 1 3 31.1018 -3114.09826435 0 0 0 0 0
268 1 3 31.1018 -3109.85562366 0 0 0 0 0
269 1 3 31.1018 -3105.61298297 0 0 0 0 0
270 1 3 31.1018 -3101.37034228 0 0 0 0 0
271 1 3 31.1018 -3097.1277016 0 0 0 0 0
272 1 3 31.1018 -3092.88506091 0 0 0 0 0
273 1 3 31.1018 -3088.64242022 0 0 0 0 0
274 1 3 31.1018 -3084.39977954 0 0 0 0 0
275 1 3 31.1018 -3080.15713885 0 0 0 0 0
276 1 3 31.1018 -3075.91449816 0 0 0 0 0
277 1 3 31.1018 -3071.67185747 0 0 0 0 0
278 1 3 31.1018 -3067.42921679 0 0 0 0 0
279 1 3 31.1018 -3063.1865761 0 0 0 0 0
280 1 3 31.1018 -3058.94393541 0 0 0 0 0
281 1 3 31.1018 -3054.70129473 0 0 0 0 0
282 1 3 31.1018 -3050.45865404 0 0 0 0 0
283 1 3 31.1018 -3046.21601335 0 0 0 0 0
284 1 3 31.1018 -3041.97337266 0 0 0 0 0
285 1 3 31.1018 -3037.73073198 0 0 0 0 0
286 1 3 31.1018 -3033.48809129 0 0 0 0 0
287 1 3 31.1018 -3029.2454506 0 0 0 0 0
288 1 3 31.1018 -3025.00280992 0 0 0 0 0
289 1 3 31.1018 -3020.76016923 0 0 0 0 0
290 1 3 31.1018 -3016.51752854 0 0 0 0 0
291 1 3 31.1018 -3012.27488785 0 0 0 0 0
292 1 3 31.1018 -3008.03224717 0 0 0 0 0
293 1 3 31.1018 -3003.78960648 0 0 0 0 0
294 1 3 31.1018 -2999.54696579 0 0 0 0 0
295 1 3 31.1018 -2995.30432511 0 0 0 0 0
296 1 3 31.1018 -2991.06168442 0 0 0 0 0
297 1 3 31.1018 -2986.81904373 0 0 0 0 0
298 1 3 31.1018 -2982.57640304 0 0 0 0 0
299 1 3 31.1018 -2978.33376236 0 0 0 0 0
300 1 3 31.1018 -2974.09112167 0 0 0 0 0
301 1 3 31.1018 -2969.84848098 0 0 0 0 0
302 1 3 31.1018 -2965.6058403 0 0 0 0 0
303 1 3 31.1018 -2961.36319961 0 0 0 0 0
304 1 3 31.1018 -2957.12055892 0 0 0 0 0
305 1 3 31.1018 -2952.87791824 0 0 0 0 0
306 1 3 31.1018 -2948.63527755 0 0 0 0 0
307 1 3 31.1018 -2944.39263686 0 0 0 0 0
308 1 3 31.1018 -2940.14999617 0 0 0 0 0
309 1 3 31.1018 -2935.90735549 0 0 0 0 0
310 1 3 31.1018 -2931.6647148 0 0 0 0 0
311 1 3 31.1018 -2927.42207411 0 0 0 0 0
312 1 3 31.1018 -2923.17943343 0 0 0 0 0
313 1 3 31.1018 -2918.93679274 0 0 0 0 0
314 1 3 31.1018 -2914.69415205 0 0 0 0 0
315 1 3 31.1018 -2910.45151136 0 0 0 0 0
316 1 3 31.1018 -2906.20887068 0 0 0 0 0
317 1 3 31.1018 -2901.96622999 0 0 0 0 0
318 1 3 31.1018 -2897.7235893 0 0 0 0 0
319 1 3 31.1018 -2893.48094862 0 0 0 0 0
320 1 3 31.1018 -2889.23830793 0 0 0 0 0
321 1 3 31.1018 -2884.99566724 0 0 0 0 0
322 1 3 31.1018 -2880.75302655 0 0 0 0 0
323 1 3 31.1018 -2876.51038587 0 0 0 0 0
324 1 3 31.1018 -2872.26774518 0 0 0 0 0
325 1 3 31.1018 -2868.02510449 0 0 0 0 0
326 1 3 31.1018 -2863.78246381 0 0 0 0 0
327 1 3 31.1018 -2859.53982312 0 0 0 0 0
328 1 3 31.1018 -2855.29718243 0 0 0 0 0
329 1 3 31.1018 -2851.05454174 0 0 0 0 0
330 1 3 31.1018 -2846.81190106 0 0 0 0 0
331 1 3 31.1018 -2842.56926037 0 0 0 0 0
332 1 3 31.1018 -2838.32661968 0 0 0 0 0
333 1 3 31.1018 -2834.083979 0 0 0 0 0
334 1 3 31.1018 -2829.84133831 0 0 0 0 0
335 1 3 31.1018 -2825.59869762 0 0 0 0 0
336 1 3 31.1018 -2821.35605693 0 0 0 0 0
337 1 3 31.1018 -2817.11341625 0 0 0 0 0
338 1 3 31.1018 -2812.87077556 0 0 0 0 0
339 1 3 31.1018 -2808.62813487 0 0 0 0 0
340 1 3 31.1018 -2804.38549419 0 0 0 0 0
341 1 3 31.1018 -2800.1428535 0 0 0 0 0
342 1 3 31.1018 -2795.90021281 0 0 0 0 0
343 1 3 31.1018 -2791.65757212 0 0 0 0 0
344 1 3 31.1018 -2787.41493144 0 0 0 0 0
345 1 3 31.1018 -2783.17229075 0 0 0 0 0
346 1 3 31.1018 -2778.92965006 0 0 0 0 0
347 1 3 31.1018 -2774.68700938 0 0 0 0 0
348 1 3 31.1018 -2770.44436869 0 0 0 0 0
349 1 3 31.1018 -2766.201728 0 0 0 0 0
350 1 3 31.1018 -2761.95908731 0 0 0 0 0
351 1 3 31.1018 -2757.71644663 0 0 0 0 0
352 1 3 31.1018 -2753.47380594 0 0 0 0 0
353 1 3 31.1018 -2749.23116525 0 0 0 0 0
354 1 3 31.1018 -2744.98852457 0 0 0 0 0
355 1 3 31.1018 -2740.74588388 0 0 0 0 0
356 1 3 31.1018 -2736.50324319 0 0 0 0 0
357 1 3 31.1018 -2732.2606025 0 0 0 0 0
358 1 3 31.1018 -2728.01796182 0 0 0 0 0
359 1 3 31.1018 -2723.77532113 0 0 0 0 0
360 1 3 31.1018 -2719.53268044 0 0 0 0 0
361 1 3 31.1018 -2715.29003976 0 0 0 0 0
362 1 3 31.1018 -2711.04739907 0 0 0 0 0
363 1 3 31.1018 -2706.80475838 0 0 0 0 0
364 1 3 31.1018 -2702.56211769 0 0 0 0 0
365 1 3 31.1018 -2698.31947701 0 0 0 0 0
366 1 3 31.1018 -2694.07683632 0 0 0 0 0
367 1 3 31.1018 -2689.83419563 0 0 0 0 0
368 1 3 31.1018 -2685.59155495 0 0 0 0 0
369 1 3 31.1018 -2681.34891426 0 0 0 0 0
370 1 3 31.1018 -2677.10627357 0 0 0 0 0
371 1 3 31.1018 -2672.86363289 0 0 0 0 0
372 1 3 31.1018 -2668.6209922 0 0 0 0 0
373 1 3 31.1018 -2664.37835151 0 0 0 0 0
374 1 3 31.1018 -2660.13571082 0 0 0 0 0
375 1 3 31.1018 -2655.89307014 0 0 0 0 0
376 1 3 31.1018 -2651.65042945 0 0 0 0 0
377 1 3 31.1018 -2647.40778876 0 0 0 0 0
378 1 3 31.1018 -2643.16514808 0 0 0 0 0
379 1 3 31.1018 -2638.92250739 0 0 0 0 0
380 1 3 31.1018 -2634.6798667 0 0 0 0 0
381 1 3 31.1018 -2630.43722601 0 0 0 0 0
382 1 3 31.1018 -2626.19458533 0 0 0 0 0
383 1 3 31.1018 -2621.95194464 0 0 0 0 0
384 1 3 31.1018 -2617.70930395 0 0 0 0 0
385 1 3 31.1018 -2613.46666327 0 0 0 0 0
386 1 3 31.1018 -2609.22402258 0 0 0 0 0
387 1 3 31.1018 -2604.98138189 0 0 0 0 0
388 1 3 31.1018 -2600.7387412 0 0 0 0 0
389 1 3 31.1018 -2596.49610052 0 0 0 0 0
390 1 3 31.1018 -2592.25345983 0 0 0 0 0
391 1 3 31.1018 -2588.01081914 0 0 0 0 0
392 1 3 31.1018 -2583.76817846 0 0 0 0 0
393 1 3 31.1018 -2579.52553777 0 0 0 0 0
394 1 3 31.1018 -2575.28289708 0 0 0 0 0
395 1 3 31.1018 -2571.04025639 0 0 0 0 0
396 1 3 31.1018 -2566.79761571 0 0 0 0 0
397 1 3 31.1018 -2562.55497502 0 0 0 0 0
398 1 3 31.1018 -2558.31233433 0 0 0 0 0
399 1 3 31.1018 -2554.06969365 0 0 0 0 0
400 1 3 31.1018 -2549.82705296 0 0 0 0 0
401 1 3 31.1018 -2545.58441227 0 0 0 0 0
402 1 3 31.1018 -2541.34177158 0 0 0 0 0
403 1 3 31.1018 -2537.0991309 0 0 0 0 0
404 1 3 31.1018 -2532.85649021 0 0 0 0 0
405 1 3 31.1018 -2528.61384952 0 0 0 0 0
406 1 3 31.1018 -2524.37120884 0 0 0 0 0
407 1 3 31.1018 -2520.12856815 0 0 0 0 0
408 1 3 31.1018 -2515.88592746 0 0 0 0 0
409 1 3 31.1018 -2511.64328677 0 0 0 0 0
410 1 3 31.1018 -2507.40064609 0 0 0 0 0
411 1 3 31.1018 -2503.1580054 0 0 0 0 0
412 1 3 31.1018 -2498.91536471 0 0 0 0 0
413 1 3 31.1018 -2494.67272403 0 0 0 0 0
414 1 3 31.1018 -2490.43008334 0 0 0 0 0
415 1 3 31.1018 -2486.18744265 0 0 0 0 0
416 1 3 31.1018 -2481.94480196 0 0 0 0 0
417 1 3 31.1018 -2477.70216128 0 0 0 0 0
418 1 3 31.1018 -2473.45952059 0 0 0 0 0
419 1 3 31.1018 -2469.2168799 0 0 0 0 0
420 1 3 31.1018 -2464.97423922 0 0 0 0 0
421 1 3 31.1018 -2460.73159853 0 0 0 0 0
422 1 3 31.1018 -2456.48895784 0 0 0 0 0
423 1 3 31.1018 -2452.24631715 0 0 0 0 0
424 1 3 31.1018 -2448.00367647 0 0 0 0 0
425 1 3 31.1018 -2443.76103578 0 0 0 0 0
426 1 3 31.1018 -2439.51839509 0 0 0 0 0
427 1 3 31.1018 -2435.27575441 0 0 0 0 0
428 1 3 31.1018 -2431.03311372 0 0 0 0 0
429 1 3 31.1018 -2426.79047303 0 0 0 0 0
430 1 3 31.1018 -2422.54783235 0 0 0 0 0
431 1 3 31.1018 -2418.30519166 0 0 0 0 0
432 1 3 31.1018 -2414.06255097 0 0 0 0 0
433 1 3 31.1018 -2409.81991028 0 0 0 0 0
434 1 3 31.1018 -2405.5772696 0 0 0 0 0
435 1 3 31.1018 -2401.33462891 0 0 0 0 0
436 1 3 31.1018 -2397.09198822 0 0 0 0 0
437 1 3 31.1018 -2392.84934754 0 0 0 0 0
438 1 3 31.1018 -2388.60670685 0 0 0 0 0
439 1 3 31.1018 -2384.36406616 0 0 0 0 0
440 1 3 31.1018 -2380.12142547 0 0 0 0 0
441 1 3 31.1018 -2375.87878479 0 0 0 0 0
442 1 3 31.1018 -2371.6361441 0 0 0 0 0
443 1 3 31.1018 -2367.39350341 0 0 0 0 0
444 1 3 31.1018 -2363.15086273 0 0 0 0 0
445 1 3 31.1018 -2358.90822204 0 0 0 0 0
446 1 3 31.1018 -2354.66558135 0 0 0 0 0
447 1 3 31.1018 -2350.42294066 0 0 0 0 0
448 1 3 31.1018 -2346.18029998 0 0 0 0 0
449 1 3 31.1018 -2341.93765929 0 0 0 0 0
450 1 3 31.1018 -2337.6950186 0 0 0 0 0
451 1 3 31.1018 -2333.45237792 0 0 0 0 0
452 1 3 31.1018 -2329.20973723 0 0 0 0 0
453 1 3 31.1018 -2324.96709654 0 0 0 0 0
454 1 3 31.1018 -2320.72445585 0 0 0 0 0
455 1 3 31.1018 -2316.48181517 0 0 0 0 0
456 1 3 31.1018 -2312.23917448 0 0 0 0 0
457 1 3 31.1018 -2307.99653379 0 0 0 0 0
458 1 3 31.1018 -2303.75389311 0 0 0 0 0
459 1 3 31.1018 -2299.51125242 0 0 0 0 0
460 1 3 31.1018 -2295.26861173 0 0 0 0 0
461 1 3 31.1018 -2291.02597104 0 0 0 0 0
462 1 3 31.1018 -2286.78333036 0 0 0 0 0
463 1 3 31.1018 -2282.54068967 0 0 0 0 0
464 1 3 31.1018 -2278.29804898 0 0 0 0 0
465 1 3 31.1018 -2274.0554083 0 0 0 0 0
466 1 3 31.1018 -2269.81276761 0 0 0 0 0
467 1 3 31.1018 -2265.57012692 0 0 0 0 0
468 1 3 31.1018 -2261.32748623 0 0 0 0 0
469 1 3 31.1018 -2257.08484555 0 0 0 0 0
470 1 3 31.1018 -2252.84220486 0 0 0 0 0
471 1 3 31.1018 -2248.59956417 0 0 0 0 0
472 1 3 31.1018 -2244.35692349 0 0 0 0 0
473 1 3 31.1018 -2240.1142828 0 0 0 0 0
474 1 3 31.1018 -2235.87164211 0 0 0 0 0
475 1 3 31.1018 -2231.62900142 0 0 0 0 0
476 1 3 31.1018 -2227.38636074 0 0 0 0 0
477 1 3 31.1018 -2223.14372005 0 0 0 0 0
478 1 3 31.1018 -2218.90107936 0 0 0 0 0
479 1 3 31.1018 -2214.65843868 0 0 0 0 0
480 1 3 31.1018 -2210.41579799 0 0 0 0 0
481 1 3 31.1018 -2206.1731573 0 0 0 0 0
482 1 3 31.1018 -2201.93051661 0 0 0 0 0
483 1 3 31.1018 -2197.68787593 0 0 0 0 0
484 1 3 31.1018 -2193.44523524 0 0 0 0 0
485 1 3 31.1018 -2189.20259455 0 0 0 0 0
486 1 3 31.1018 -2184.95995387 0 0 0 0 0
487 1 3 31.1018 -2180.71731318 0 0 0 0 0
488 1 3 31.1018 -2176.47467249 0 0 0 0 0
489 1 3 31.1018 -2172.23203181 0 0 0 0 0
490 1 3 31.1018 -2167.98939112 0 0 0 0 0
491 1 3 31.1018 -2163.74675043 0 0 0 0 0
492 1 3 31.1018 -2159.50410974 0 0 0 0 0
493 1 3 31.1018 -2155.26146906 0 0 0 0 0
494 1 3 31.1018 -2151.01882837 0 0 0 0 0
495 1 3 31.1018 -2146.77618768 0 0 0 0 0
496 1 3 31.1018 -2142.533547 0 0 0 0 0
497 1 3 31.1018 -2138.29090631 0 0 0 0 0
498 1 3 31.1018 -2134.04826562 0 0 0 0 0
499 1 3 31.1018 -2129.80562493 0 0 0 0 0
500 1 3 31.1018 -2125.56298425 0 0 0 0 0
501 1 3 31.1018 -2121.32034356 0 0 0 0 0
502 1 3 31.1018 -2117.07770287 0 0 0 0 0
503 1 3 31.1018 -2112.83506219 0 0 0 0 0
504 1 3 31.1018 -2108.5924215 0 0 0 0 0
505 1 3 31.1018 -2104.34978081 0 0 0 0 0
506 1 3 31.1018 -2100.10714012 0 0 0 0 0
507 1 3 31.1018 -2095.86449944 0 0 0 0 0
508 1 3 31.1018 -2091.62185875 0 0 0 0 0
509 1 3 31.1018 -2087.37921806 0 0 0 0 0
510 1 3 31.1018 -2083.13657738 0 0 0 0 0
511 1 3 31.1018 -2078.89393669 0 0 0 0 0
512 1 3 31.1018 -2074.651296 0 0 0 0 0
513 1 3 31.1018 -2070.40865531 0 0 0 0 0
514 1 3 31.1018 -2066.16601463 0 0 0 0 0
515 1 3 31.1018 -2061.92337394 0 0 0 0 0
516 1 3 31.1018 -2057.68073325 0 0 0 0 0
517 1 3 31.1018 -2053.43809257 0 0 0 0 0
518 1 3 31.1018 -2049.19545188 0 0 0 0 0
519 1 3 31.1018 -2044.95281119 0 0 0 0 0
520 1 3 31.1018 -2040.7101705 0 0 0 0 0
521 1 3 31.1018 -2036.46752982 0 0 0 0 0
522 1 3 31.1018 -2032.22488913 0 0 0 0 0
523 1 3 31.1018 -2027.98224844 0 0 0 0 0
524 1 3 31.1018 -2023.73960776 0 0 0 0 0
525 1 3 31.1018 -2019.49696707 0 0 0 0 0
526 1 3 31.1018 -2015.25432638 0 0 0 0 0
527 1 3 31.1018 -2011.01168569 0 0 0 0 0
528 1 3 31.1018 -2006.76904501 0 0 0 0 0
529 1 3 31.1018 -2002.52640432 0 0 0 0 0
530 1 3 31.1018 -1998.28376363 0 0 0 0 0
531 1 3 31.1018 -1994.04112295 0 0 0 0 0
532 1 3 31.1018 -1989.79848226 0 0 0 0 0
533 1 3 31.1018 -1985.55584157 0 0 0 0 0
534 1 3 31.1018 -1981.31320088 0 0 0 0 0
535 1 3 31.1018 -1977.0705602 0 0 0 0 0
536 1 3 31.1018 -1972.82791951 0 0 0 0 0
537 1 3 31.1018 -1968.58527882 0 0 0 0 0
538 1 3 31.1018 -1964.34263814 0 0 0 0 0
539 1 3 31.1018 -1960.09999745 0 0 0 0 0
540 1 3 31.1018 -1955.85735676 0 0 0 0 0
541 1 3 31.1018 -1951.61471607 0 0 0 0 0
542 1 3 31.1018 -1947.37207539 0 0 0 0 0
543 1 3 31.1018 -1943.1294347 0 0 0 0 0
544 1 3 31.1018 -1938.88679401 0 0 0 0 0
545 1 3 31.1018 -1934.64415333 0 0 0 0 0
546 1 3 31.1018 -1930.40151264 0 0 0 0 0
547 1 3 31.1018 -1926.15887195 0 0 0 0 0
548 1 3 31.1018 -1921.91623127 0 0 0 0 0
549 1 3 31.1018 -1917.67359058 0 0 0 0 0
550 1 3 31.1018 -1913.43094989 0 0 0 0 0
551 1 3 31.1018 -1909.1883092 0 0 0 0 0
552 1 3 31.1018 -1904.94566852 0 0 0 0 0
553 1 3 31.1018 -1900.70302783 0 0 0 0 0
554 1 3 31.1018 -1896.46038714 0 0 0 0 0
555 1 3 31.1018 -1892.21774646 0 0 0 0 0
556 1 3 31.1018 -1887.97510577 0 0 0 0 0
557 1 3 31.1018 -1883.73246508 0 0 0 0 0
558 1 3 31.1018 -1879.48982439 0 0 0 0 0
559 1 3 31.1018 -1875.24718371 0 0 0 0 0
560 1 3 31.1018 -1871.00454302 0 0 0 0 0
561 1 3 31.1018 -1866.76190233 0 0 0 0 0
562 1 3 31.1018 -1862.51926165 0 0 0 0 0
563 1 3 31.1018 -1858.27662096 0 0 0 0 0
564 1 3 31.1018 -1854.03398027 0 0 0 0 0
565 1 3 31.1018 -1849.79133958 0 0 0 0 0
566 1 3 31.1018 -1845.5486989 0 0 0 0 0
567 1 3 31.1018 -1841.30605821 0 0 0 0 0
568 1 3 31.1018 -1837.06341752 0 0 0 0 0
569 1 3 31.1018 -1832.82077684 0 0 0 0 0
570 1 3 31.1018 -1828.57813615 0 0 0 0 0
571 1 3 31.1018 -1824.33549546 0 0 0 0 0
572 1 3 31.1018 -1820.09285477 0 0 0 0 0
573 1 3 31.1018 -1815.85021409 0 0 0 0 0
574 1 3 31.1018 -1811.6075734 0 0 0 0 0
575 1 3 31.1018 -1807.36493271 0 0 0 0 0
576 1 3 31.1018 -1803.12229203 0 0 0 0 0
577 1 3 31.1018 -1798.87965134 0 0 0 0 0
578 1 3 31.1018 -1794.63701065 0 0 0 0 0
579 1 3 31.1018 -1790.39436996 0 0 0 0 0
580 1 3 31.1018 -1786.15172928 0 0 0 0 0
581 1 3 31.1018 -1781.90908859 0 0 0 0 0
582 1 3 31.1018 -1777.6664479 0 0 0 0 0
583 1 3 31.1018 -1773.42380722 0 0 0 0 0
584 1 3 31.1018 -1769.18116653 0 0 0 0 0
585 1 3 31.1018 -1764.93852584 0 0 0 0 0
586 1 3 31.1018 -1760.69588515 0 0 0 0 0
587 1 3 31.1018 -1756.45324447 0 0 0 0 0
588 1 3 31.1018 -1752.21060378 0 0 0 0 0
589 1 3 31.1018 -1747.96796309 0 0 0 0 0
590 1 3 31.1018 -1743.72532241 0 0 0 0 0
591 1 3 31.1018 -1739.48268172 0 0 0 0 0
592 1 3 31.1018 -1735.24004103 0 0 0 0 0
593 1 3 31.1018 -1730.99740034 0 0 0 0 0
594 1 3 31.1018 -1726.75475966 0 0 0 0 0
595 1 3 31.1018 -1722.51211897 0 0 0 0 0
596 1 3 31.1018 -1718.26947828 0 0 0 0 0
597 1 3 31.1018 -1714.0268376 0 0 0 0 0
598 1 3 31.1018 -1709.78419691 0 0 0 0 0
599 1 3 31.1018 -1705.54155622 0 0 0 0 0
600 1 3 31.1018 -1701.29891553 0 0 0 0 0
601 1 3 31.1018 -1697.05627485 0 0 0 0 0
602 1 3 31.1018 -1692.81363416 0 0 0 0 0
603 1 3 31.1018 -1688.57099347 0 0 0 0 0
604 1 3 31.1018 -1684.32835279 0 0 0 0 0
605 1 3 31.1018 -1680.0857121 0 0 0 0 0
606 1 3 31.1018 -1675.84307141 0 0 0 0 0
607 1 3 31.1018 -1671.60043073 0 0 0 0 0
608 1 3 31.1018 -1667.35779004 0 0 0 0 0
609 1 3 31.1018 -1663.11514935 0 0 0 0 0
610 1 3 31.1018 -1658.87250866 0 0 0 0 0
611 1 3 31.1018 -1654.62986798 0 0 0 0 0
612 1 3 31.1018 -1650.38722729 0 0 0 0 0
613 1 3 31.1018 -1646.1445866 0 0 0 0 0
614 1 3 31.1018 -1641.90194592 0 0 0 0 0
615 1 3 31.1018 -1637.65930523 0 0 0 0 0
616 1 3 31.1018 -1633.41666454 0 0 0 0 0
617 1 3 31.1018 -1629.17402385 0 0 0 0 0
618 1 3 31.1018 -1624.93138317 0 0 0 0 0
619 1 3 31.1018 -1620.68874248 0 0 0 0 0
620 1 3 31.1018 -1616.44610179 0 0 0 0 0
621 1 3 31.1018 -1612.20346111 0 0 0 0 0
622 1 3 31.1018 -1607.96082042 0 0 0 0 0
623 1 3 31.1018 -1603.71817973 0 0 0 0 0
624 1 3 31.1018 -1599.47553904 0 0 0 0 0
625 1 3 31.1018 -1595.23289836 0 0 0 0 0
626 1 3 31.1018 -1590.99025767 0 0 0 0 0
627 1 3 31.1018 -1586.74761698 0 0 0 0 0
628 1 3 31.1018 -1582.5049763 0 0 0 0 0
629 1 3 31.1018 -1578.26233561 0 0 0 0 0
630 1 3 31.1018 -1574.01969492 0 0 0 0 0
631 1 3 31.1018 -1569.77705423 0 0 0 0 0
632 1 3 31.1018 -1565.53441355 0 0 0 0 0
633 1 3 31.1018 -1561.29177286 0 0 0 0 0
634 1 3 31.1018 -1557.04913217 0 0 0 0 0
635 1 3 31.1018 -1552.80649149 0 0 0 0 0
636 1 3 31.1018 -1548.5638508 0 0 0 0 0
637 1 3 31.1018 -1544.32121011 0 0 0 0 0
638 1 3 31.1018 -1540.07856942 0 0 0 0 0
639 1 3 31.1018 -1535.83592874 0 0 0 0 0
640 1 3 31.1018 -1531.59328805 0 0 0 0 0
641 1 3 31.1018 -1527.35064736 0 0 0 0 0
642 1 3 31.1018 -1523.10800668 0 0 0 0 0
643 1 3 31.1018 -1518.86536599 0 0 0 0 0
644 1 3 31.1018 -1514.6227253 0 0 0 0 0
645 1 3 31.1018 -1510.38008461 0 0 0 0 0
646 1 3 31.1018 -1506.13744393 0 0 0 0 0
647 1 3 31.1018 -1501.89480324 0 0 0 0 0
648 1 3 31.1018 -1497.65216255 0 0 0 0 0
649 1 3 31.1018 -1493.40952187 0 0 0 0 0
650 1 3 31.1018 -1489.16688118 0 0 0 0 0
651 1 3 31.1018 -1484.92424049 0 0 0 0 0
652 1 3 31.1018 -1480.6815998 0 0 0 0 0
653 1 3 31.1018 -1476.43895912 0 0 0 0 0
654 1 3 31.1018 -1472.19631843 0 0 0 0 0
655 1 3 31.1018 -1467.95367774 0 0 0 0 0
656 1 3 31.1018 -1463.71103706 0 0 0 0 0
657 1 3 31.1018 -1459.46839637 0 0 0 0 0
658 1 3 31.1018 -1455.22575568 0 0 0 0 0
659 1 3 31.1018 -1450.98311499 0 0 0 0 0
660 1 3 31.1018 -1446.74047431 0 0 0 0 0
661 1 3 31.1018 -1442.49783362 0 0 0 0 0
662 1 3 31.1018 -1438.25519293 0 0 0 0 0
663 1 3 31.1018 -1434.01255225 0 0 0 0 0
664 1 3 31.1018 -1429.76991156 0 0 0 0 0
665 1 3 31.1018 -1425.52727087 0 0 0 0 0
666 1 3 31.1018 -1421.28463018 0 0 0 0 0
667 1 3 31.1018 -1417.0419895 0 0 0 0 0
668 1 3 31.1018 -1412.79934881 0 0 0 0 0
669 1 3 31.1018 -1408.55670812 0 0 0 0 0
670 1 3 31.1018 -1404.31406744 0 0 0 0 0
671 1 3 31.1018 -1400.07142675 0 0 0 0 0
672 1 3 31.1018 -1395.82878606 0 0 0 0 0
673 1 3 31.1018 -1391.58614538 0 0 0 0 0
674 1 3 31.1018 -1387.34350469 0 0 0 0 0
675 1 3 31.1018 -1383.100864 0 0 0 0 0
676 1 3 31.1018 -1378.85822331 0 0 0 0 0
677 1 3 31.1018 -1374.61558263 0 0 0 0 0
678 1 3 31.1018 -1370.37294194 0 0 0 0 0
679 1 3 31.1018 -1366.13030125 0 0 0 0 0
680 1 3 31.1018 -1361.88766057 0 0 0 0 0
681 1 3 31.1018 -1357.64501988 0 0 0 0 0
682 1 3 31.1018 -1353.40237919 0 0 0 0 0
683 1 3 31.1018 -1349.1597385 0 0 0 0 0
684 1 3 31.1018 -1344.91709782 0 0 0 0 0
685 1 3 31.1018 -1340.67445713 0 0 0 0 0
686 1 3 31.1018 -1336.43181644 0 0 0 0 0
687 1 3 31.1018 -1332.18917576 0 0 0 0 0
688 1 3 31.1018 -1327.94653507 0 0 0 0 0
689 1 3 31.1018 -1323.70389438 0 0 0 0 0
690 1 3 31.1018 -1319.46125369 0 0 0 0 0
691 1 3 31.1018 -1315.21861301 0 0 0 0 0
692 1 3 31.1018 -1310.97597232 0 0 0 0 0
693 1 3 31.1018 -1306.73333163 0 0 0 0 0
694 1 3 31.1018 -1302.49069095 0 0 0 0 0
695 1 3 31.1018 -1298.24805026 0 0 0 0 0
696 1 3 31.1018 -1294.00540957 0 0 0 0 0
697 1 3 31.1018 -1289.76276888 0 0 0 0 0
698 1 3 31.1018 -1285.5201282 0 0 0 0 0
699 1 3 31.1018 -1281.27748751 0 0 0 0 0
700 1 3 31.1018 -1277.03484682 0 0 0 0 0
701 1 3 31.1018 -1272.79220614 0 0 0 0 0
702 1 3 31.1018 -1268.54956545 0 0 0 0 0
703 1 3 31.1018 -1264.30692476 0 0 0 0 0
704 1 3 31.1018 -1260.06428407 0 0 0 0 0
705 1 3 31.1018 -1255.82164339 0 0 0 0 0
706 1 3 31.1018 -1251.5790027 0 0 0 0 0
707 1 3 31.1018 -1247.33636201 0 0 0 0 0
708 1 3 31.1018 -1243.09372133 0 0 0 0 0
709 1 3 31.1018 -1238.85108064 0 0 0 0 0
710 1 3 31.1018 -1234.60843995 0 0 0 0 0
711 1 3 31.1018 -1230.36579926 0 0 0 0 0
712 1 3 31.1018 -1226.12315858 0 0 0 0 0
713 1 3 31.1018 -1221.88051789 0 0 0 0 0
714 1 3 31.1018 -1217.6378772 0 0 0 0 0
715 1 3 31.1018 -1213.39523652 0 0 0 0 0
716 1 3 31.1018 -1209.15259583 0 0 0 0 0
717 1 3 31.1018 -1204.90995514 0 0 0 0 0
718 1 3 31.1018 -1200.66731445 0 0 0 0 0
719 1 3 31.1018 -1196.42467377 0 0 0 0 0
720 1 3 31.1018 -1192.18203308 0 0 0 0 0
721 1 3 31.1018 -1187.93939239 0 0 0 0 0
722 1 3 31.1018 -1183.69675171 0 0 0 0 0
723 1 3 31.1018 -1179.45411102 0 0 0 0 0
724 1 3 31.1018 -1175.21147033 0 0 0 0 0
725 1 3 31.1018 -1170.96882964 0 0 0 0 0
726 1 3 31.1018 -1166.72618896 0 0 0 0 0
727 1 3 31.1018 -1162.48354827 0 0 0 0 0
728 1 3 31.1018 -1158.24090758 0 0 0 0 0
729 1 3 31.1018 -1153.9982669 0 0 0 0 0