LAMMPS (23 Jun 2022 - Update 1)
  using 1 OpenMP thread(s) per MPI task
Lattice spacing in x,y,z = 4.2426407 4.2426407 4.2426407
Created orthogonal box = (-4242.6407 -50 -50) to (4242.6407 50 50)
  2 by 1 by 1 MPI processor grid
Created 2000 atoms
  using lattice units in orthogonal box = (-4242.6407 -50 -50) to (4242.6407 50 50)
  create_atoms CPU = 0.001 seconds
Lattice spacing in x,y,z = 3 3 3
Created 2001 atoms
  using lattice units in orthogonal box = (-4242.6407 -50 -50) to (4242.6407 50 50)
  create_atoms CPU = 0.001 seconds
Setting atom values ...
  2000 settings made for diameter
Setting atom values ...
  2000 settings made for mass
Setting atom values ...
  2001 settings made for diameter
Setting atom values ...
  2001 settings made for mass
2000 atoms in group substrate
2001 atoms in group slider1
  1 rigid bodies with 2001 atoms
Generated 0 of 1 mixed pair_coeff terms from geometric mixing rule
Neighbor list info ...
  update every 1 steps, delay 0 steps, check yes
  max neighbors/atom: 2000, page size: 100000
  master list distance cutoff = 3.1
  ghost atom cutoff = 3.1
  binsize = 1.55, bins = 5475 65 65
  1 neighbor lists, perpetual/occasional/extra = 1 0 0
  (1) pair granular, perpetual
      attributes: half, newton on, size, history
      pair build: half/size/bin/newton
      stencil: half/bin/3d
      bin: standard
Setting up Verlet run ...
  Unit style    : micro
  Current step  : 0
  Time step     : 1e-05
Per MPI rank memory allocation (min/avg/max) = 64.15 | 64.15 | 64.15 Mbytes
   Step           Lx             Ly             Lz           Press           Pxx            Pyy            Pzz           KinEng         PotEng          Temp          c_1[1]         c_1[2]         c_1[3]    
         0   8485.2814      100            100            0              0              0              0              0              0              0              1.1971759e-13  0              6            
    100000   8485.2814      100            100            0.0099562366   1.0662337e-33  0              0.057327354    0              0              0              1.1971759e-13  0              3.3279295    
    200000   8485.2814      100            100            0.004495734   -3.8079747e-34  0              0.020038974    0              0              0              1.1971759e-13  0              3.0765603    
    300000   8485.2814      100            100            0.00031290321 -2.1324649e-33  0              0.00097119863  0              0              0              1.1971759e-13  0              3.0451262    
    400000   8485.2814      100            100            0.00081021159  3.0463837e-34  0              0.0026543464   0              0              0              1.1971759e-13  0              3.0019695    
    500000   8485.2814      100            100            0.0049882042   0.0023249744   0              0.012648654    0              0              0              1.1971759e-13  0              2.9978389    
    600000   8485.2814      100            100            0.026942794    0.0046197568   0              0.076217843    0              0              0              1.1971759e-13  0              2.9947757    
    700000   8485.2814      100            100            0.025551542    0.0046473411   0              0.072008536    0              0              0              1.1971759e-13  0              2.9949317    
    800000   8485.2814      100            100            0.025084974    0.0051663301   0              0.070088759    0              0              0              1.1971759e-13  0              2.9950035    
    900000   8485.2814      100            100            0.025021732    0.005027234    0              0.070037982    0              0              0              1.1971759e-13  0              2.9950069    
   1000000   8485.2814      100            100            0.025095882    0.0050020941   0              0.070285554    0              0              0              1.1971759e-13  0              2.9949986    
   1100000   8485.2814      100            100            0.02515252     0.0049908619   0              0.070466699    0              0              0              1.1971759e-13  0              2.9949924    
   1200000   8485.2814      100            100            0.025182074    0.0049850792   0              0.070561143    0              0              0              1.1971759e-13  0              2.9949891    
   1300000   8485.2814      100            100            0.025195715    0.0049842794   0              0.070602864    0              0              0              1.1971759e-13  0              2.9949876    
   1400000   8485.2814      100            100            0.025201104    0.0049839778   0              0.070619334    0              0              0              1.1971759e-13  0              2.994987     
   1500000   8485.2814      100            100            0.025203036    0.0049838712   0              0.070625238    0              0              0              1.1971759e-13  0              2.9949868    
   1600000   8485.2814      100            100            0.025203663    0.0049838366   0              0.070627151    0              0              0              1.1971759e-13  0              2.9949867    
   1700000   8485.2814      100            100            0.025203841    0.0049838268   0              0.070627695    0              0              0              1.1971759e-13  0              2.9949867    
   1800000   8485.2814      100            100            0.025203881    0.0049838245   0              0.070627818    0              0              0              1.1971759e-13  0              2.9949867    
   1900000   8485.2814      100            100            0.025203885    0.0049838242   0              0.070627831    0              0              0              1.1971759e-13  0              2.9949867    
   2000000   8485.2814      100            100            0.025203883    0.0049838243   0              0.070627824    0              0              0              1.1971759e-13  0              2.9949867    
   2100000   8485.2814      100            100            0.02520388     0.0049838244   0              0.070627817    0              0              0              1.1971759e-13  0              2.9949867    
   2200000   8485.2814      100            100            0.025203879    0.0049838245   0              0.070627813    0              0              0              1.1971759e-13  0              2.9949867    
   2300000   8485.2814      100            100            0.025203879    0.0049838245   0              0.070627811    0              0              0              1.1971759e-13  0              2.9949867    
   2400000   8485.2814      100            100            0.025203878    0.0049838246   0              0.07062781     0              0              0              1.1971759e-13  0              2.9949867    
   2500000   8485.2814      100            100            0.025203878    0.0049838246   0              0.07062781     0              0              0              1.1971759e-13  0              2.9949867    
   2600000   8485.2814      100            100            0.025203878    0.0049838246   0              0.07062781     0              0              0              1.1971759e-13  0              2.9949867    
   2700000   8485.2814      100            100            0.025203878    0.0049838246   0              0.07062781     0              0              0              1.1971759e-13  0              2.9949867    
   2800000   8485.2814      100            100            0.025203878    0.0049838246   0              0.07062781     0              0              0              1.1971759e-13  0              2.9949867    
   2900000   8485.2814      100            100            0.025203878    0.0049838246   0              0.07062781     0              0              0              1.1971759e-13  0              2.9949867    
   3000000   8485.2814      100            100            0.025203878    0.0049838246   0              0.07062781     0              0              0              1.1971759e-13  0              2.9949867    
Loop time of 626.674 on 2 procs for 3000000 steps with 4001 atoms

Performance: 4136123.492 ns/day, 0.000 hours/ns, 4787.180 timesteps/s
100.0% CPU use with 2 MPI tasks x 1 OpenMP threads

MPI task timing breakdown:
Section |  min time  |  avg time  |  max time  |%varavg| %total
---------------------------------------------------------------
Pair    | 172.66     | 173.38     | 174.09     |   5.4 | 27.67
Neigh   | 2.6079     | 2.6081     | 2.6082     |   0.0 |  0.42
Comm    | 14.964     | 15.669     | 16.375     |  17.8 |  2.50
Output  | 0.51625    | 0.51631    | 0.51638    |   0.0 |  0.08
Modify  | 394.77     | 394.78     | 394.79     |   0.0 | 63.00
Other   |            | 39.72      |            |       |  6.34

Nlocal:         2000.5 ave        2001 max        2000 min
Histogram: 1 0 0 0 0 0 0 0 0 1
Nghost:            2.5 ave           3 max           2 min
Histogram: 1 0 0 0 0 0 0 0 0 1
Neighs:         1371.5 ave        1372 max        1371 min
Histogram: 1 0 0 0 0 0 0 0 0 1

Total # of neighbors = 2743
Ave neighs/atom = 0.68557861
Neighbor list builds = 164
Dangerous builds = 0
  using 1 OpenMP thread(s) per MPI task
Lattice spacing in x,y,z = 4.2426407 4.2426407 4.2426407
Created orthogonal box = (-4242.6407 -50 -50) to (4242.6407 50 50)
  2 by 1 by 1 MPI processor grid
Created 2000 atoms
  using lattice units in orthogonal box = (-4242.6407 -50 -50) to (4242.6407 50 50)
  create_atoms CPU = 0.001 seconds
Lattice spacing in x,y,z = 3 3 3
Created 2001 atoms
  using lattice units in orthogonal box = (-4242.6407 -50 -50) to (4242.6407 50 50)
  create_atoms CPU = 0.001 seconds
Setting atom values ...
  2000 settings made for diameter
Setting atom values ...
  2000 settings made for mass
Setting atom values ...
  2001 settings made for diameter
Setting atom values ...
  2001 settings made for mass
2000 atoms in group substrate
2001 atoms in group slider1
  1 rigid bodies with 2001 atoms
Generated 0 of 1 mixed pair_coeff terms from geometric mixing rule
Neighbor list info ...
  update every 1 steps, delay 0 steps, check yes
  max neighbors/atom: 2000, page size: 100000
  master list distance cutoff = 3.1
  ghost atom cutoff = 3.1
  binsize = 1.55, bins = 5475 65 65
  1 neighbor lists, perpetual/occasional/extra = 1 0 0
  (1) pair granular, perpetual
      attributes: half, newton on, size, history
      pair build: half/size/bin/newton
      stencil: half/bin/3d
      bin: standard
Setting up Verlet run ...
  Unit style    : micro
  Current step  : 0
  Time step     : 1e-05
Per MPI rank memory allocation (min/avg/max) = 64.15 | 64.15 | 64.15 Mbytes
   Step           Lx             Ly             Lz           Press           Pxx            Pyy            Pzz           KinEng         PotEng          Temp          c_1[1]         c_1[2]         c_1[3]    
         0   8485.2814      100            100            0              0              0              0              0              0              0              1.1971759e-13  0              6            
    100000   8485.2814      100            100            0.009956416    1.5231909e-34  0              0.057329191    0              0              0              1.1971759e-13  0              3.3279107    
    200000   8485.2814      100            100            0.0044963751  -1.5231854e-34  0              0.020042899    0              0              0              1.1971759e-13  0              3.0765292    
    300000   8485.2814      100            100            0.00031474668  3.0463818e-34  0              0.00097711229  0              0              0              1.1971759e-13  0              3.0451312    
    400000   8485.2814      100            100            0.00081465135 -3.0463632e-34  0              0.0026701296   0              0              0              1.1971759e-13  0              3.001924     
    500000   8485.2814      100            100            0.004832266    0.0023130328   0              0.012191338    0              0              0              1.1971759e-13  0              2.9978824    
    600000   8485.2814      100            100            0.026217271    0.0052067539   0              0.073454566    0              0              0              1.1971759e-13  0              2.9948757    
    700000   8485.2814      100            100            0.024957151    0.0044715897   0              0.07040114     0              0              0              1.1971759e-13  0              2.9949935    
    800000   8485.2814      100            100            0.024719056    0.0048510708   0              0.069306247    0              0              0              1.1971759e-13  0              2.9950368    
    900000   8485.2814      100            100            0.024844918    0.0048132301   0              0.069721539    0              0              0              1.1971759e-13  0              2.9950235    
   1000000   8485.2814      100            100            0.024986955    0.0047791221   0              0.070181744    0              0              0              1.1971759e-13  0              2.9950077    
   1100000   8485.2814      100            100            0.025069914    0.004766645    0              0.070443098    0              0              0              1.1971759e-13  0              2.9949986    
   1200000   8485.2814      100            100            0.025106904    0.0047594125   0              0.070561299    0              0              0              1.1971759e-13  0              2.9949944    
   1300000   8485.2814      100            100            0.025121839    0.0047583682   0              0.070607148    0              0              0              1.1971759e-13  0              2.9949928    
   1400000   8485.2814      100            100            0.025126915    0.0047580887   0              0.070622655    0              0              0              1.1971759e-13  0              2.9949922    
   1500000   8485.2814      100            100            0.025128374    0.0047580093   0              0.070627113    0              0              0              1.1971759e-13  0              2.9949921    
   1600000   8485.2814      100            100            0.025128691    0.0047579917   0              0.070628081    0              0              0              1.1971759e-13  0              2.994992     
   1700000   8485.2814      100            100            0.025128712    0.0047579904   0              0.070628146    0              0              0              1.1971759e-13  0              2.994992     
   1800000   8485.2814      100            100            0.025128684    0.0047579918   0              0.07062806     0              0              0              1.1971759e-13  0              2.994992     
   1900000   8485.2814      100            100            0.025128662    0.0047579929   0              0.070627992    0              0              0              1.1971759e-13  0              2.994992     
   2000000   8485.2814      100            100            0.02512865     0.0047579935   0              0.070627958    0              0              0              1.1971759e-13  0              2.994992     
   2100000   8485.2814      100            100            0.025128646    0.0047579937   0              0.070627943    0              0              0              1.1971759e-13  0              2.994992     
   2200000   8485.2814      100            100            0.025128644    0.0047579938   0              0.070627937    0              0              0              1.1971759e-13  0              2.994992     
   2300000   8485.2814      100            100            0.025128643    0.0047579939   0              0.070627936    0              0              0              1.1971759e-13  0              2.994992     
   2400000   8485.2814      100            100            0.025128643    0.0047579939   0              0.070627935    0              0              0              1.1971759e-13  0              2.994992     
   2500000   8485.2814      100            100            0.025128643    0.0047579939   0              0.070627935    0              0              0              1.1971759e-13  0              2.994992     
   2600000   8485.2814      100            100            0.025128643    0.0047579939   0              0.070627935    0              0              0              1.1971759e-13  0              2.994992     
   2700000   8485.2814      100            100            0.025128643    0.0047579939   0              0.070627935    0              0              0              1.1971759e-13  0              2.994992     
   2800000   8485.2814      100            100            0.025128643    0.0047579939   0              0.070627935    0              0              0              1.1971759e-13  0              2.994992     
   2900000   8485.2814      100            100            0.025128643    0.0047579939   0              0.070627935    0              0              0              1.1971759e-13  0              2.994992     
   3000000   8485.2814      100            100            0.025128643    0.0047579939   0              0.070627935    0              0              0              1.1971759e-13  0              2.994992     
Loop time of 613.83 on 2 procs for 3000000 steps with 4001 atoms

Performance: 4222667.792 ns/day, 0.000 hours/ns, 4887.347 timesteps/s
100.0% CPU use with 2 MPI tasks x 1 OpenMP threads

MPI task timing breakdown:
Section |  min time  |  avg time  |  max time  |%varavg| %total
---------------------------------------------------------------
Pair    | 164.38     | 165.43     | 166.47     |   8.1 | 26.95
Neigh   | 2.5964     | 2.5969     | 2.5974     |   0.0 |  0.42
Comm    | 14.868     | 16.011     | 17.154     |  28.6 |  2.61
Output  | 0.51396    | 0.51402    | 0.51408    |   0.0 |  0.08
Modify  | 388.51     | 388.92     | 389.33     |   2.1 | 63.36
Other   |            | 40.36      |            |       |  6.58

Nlocal:         2000.5 ave        2001 max        2000 min
Histogram: 1 0 0 0 0 0 0 0 0 1
Nghost:            2.5 ave           3 max           2 min
Histogram: 1 0 0 0 0 0 0 0 0 1
Neighs:         1371.5 ave        1372 max        1371 min
Histogram: 1 0 0 0 0 0 0 0 0 1

Total # of neighbors = 2743
Ave neighs/atom = 0.68557861
Neighbor list builds = 164
Dangerous builds = 0
  using 1 OpenMP thread(s) per MPI task
Lattice spacing in x,y,z = 4.2426407 4.2426407 4.2426407
Created orthogonal box = (-4242.6407 -50 -50) to (4242.6407 50 50)
  2 by 1 by 1 MPI processor grid
Created 2000 atoms
  using lattice units in orthogonal box = (-4242.6407 -50 -50) to (4242.6407 50 50)
  create_atoms CPU = 0.001 seconds
Lattice spacing in x,y,z = 3 3 3
Created 2001 atoms
  using lattice units in orthogonal box = (-4242.6407 -50 -50) to (4242.6407 50 50)
  create_atoms CPU = 0.001 seconds
Setting atom values ...
  2000 settings made for diameter
Setting atom values ...
  2000 settings made for mass
Setting atom values ...
  2001 settings made for diameter
Setting atom values ...
  2001 settings made for mass
2000 atoms in group substrate
2001 atoms in group slider1
  1 rigid bodies with 2001 atoms
Generated 0 of 1 mixed pair_coeff terms from geometric mixing rule
Neighbor list info ...
  update every 1 steps, delay 0 steps, check yes
  max neighbors/atom: 2000, page size: 100000
  master list distance cutoff = 3.1
  ghost atom cutoff = 3.1
  binsize = 1.55, bins = 5475 65 65
  1 neighbor lists, perpetual/occasional/extra = 1 0 0
  (1) pair granular, perpetual
      attributes: half, newton on, size, history
      pair build: half/size/bin/newton
      stencil: half/bin/3d
      bin: standard
Setting up Verlet run ...
  Unit style    : micro
  Current step  : 0
  Time step     : 1e-05
Per MPI rank memory allocation (min/avg/max) = 64.15 | 64.15 | 64.15 Mbytes
   Step           Lx             Ly             Lz           Press           Pxx            Pyy            Pzz           KinEng         PotEng          Temp          c_1[1]         c_1[2]         c_1[3]    
         0   8485.2814      100            100            0              0              0              0              0              0              0              1.1971759e-13  0              6            
    100000   8485.2814      100            100            0.0099566126   1.5231943e-34  0              0.057331207    0              0              0              1.1971759e-13  0              3.32789      
    200000   8485.2814      100            100            0.0044970813  -7.6159357e-35  0              0.020047223    0              0              0              1.1971759e-13  0              3.0764947    
    300000   8485.2814      100            100            0.00031678155  1.5231946e-34  0              0.00098364256  0              0              0              1.1971759e-13  0              3.0451366    
    400000   8485.2814      100            100            0.00081954455 -7.615946e-34   0              0.0026875406   0              0              0              1.1971759e-13  0              3.0018734    
    500000   8485.2814      100            100            0.0046715554   0.0022770723   0              0.011743715    0              0              0              1.1971759e-13  0              2.9979264    
    600000   8485.2814      100            100            0.025278661    0.0054037623   0              0.070441846    0              0              0              1.1971759e-13  0              2.9949867    
    700000   8485.2814      100            100            0.024330824    0.0043331665   0              0.068660542    0              0              0              1.1971759e-13  0              2.9950614    
    800000   8485.2814      100            100            0.024369071    0.0045878467   0              0.068519486    0              0              0              1.1971759e-13  0              2.9950709    
    900000   8485.2814      100            100            0.024697604    0.0046414915   0              0.069451327    0              0              0              1.1971759e-13  0              2.9950392    
   1000000   8485.2814      100            100            0.024912306    0.0046133208   0              0.070123597    0              0              0              1.1971759e-13  0              2.9950157    
   1100000   8485.2814      100            100            0.025018018    0.0046051126   0              0.070448941    0              0              0              1.1971759e-13  0              2.9950042    
   1200000   8485.2814      100            100            0.025058452    0.0045989379   0              0.070576417    0              0              0              1.1971759e-13  0              2.9949997    
   1300000   8485.2814      100            100            0.025071655    0.004597265    0              0.070617701    0              0              0              1.1971759e-13  0              2.9949982    
   1400000   8485.2814      100            100            0.02507506     0.0045970832   0              0.070628096    0              0              0              1.1971759e-13  0              2.9949978    
   1500000   8485.2814      100            100            0.025075513    0.004597058    0              0.07062948     0              0              0              1.1971759e-13  0              2.9949978    
   1600000   8485.2814      100            100            0.025075358    0.0045970652   0              0.070629008    0              0              0              1.1971759e-13  0              2.9949978    
   1700000   8485.2814      100            100            0.025075193    0.0045970734   0              0.070628507    0              0              0              1.1971759e-13  0              2.9949978    
   1800000   8485.2814      100            100            0.025075105    0.0045970779   0              0.070628237    0              0              0              1.1971759e-13  0              2.9949978    
   1900000   8485.2814      100            100            0.025075068    0.0045970798   0              0.070628124    0              0              0              1.1971759e-13  0              2.9949978    
   2000000   8485.2814      100            100            0.025075055    0.0045970804   0              0.070628085    0              0              0              1.1971759e-13  0              2.9949978    
   2100000   8485.2814      100            100            0.025075051    0.0045970806   0              0.070628074    0              0              0              1.1971759e-13  0              2.9949978    
   2200000   8485.2814      100            100            0.025075051    0.0045970807   0              0.070628072    0              0              0              1.1971759e-13  0              2.9949978    
   2300000   8485.2814      100            100            0.025075051    0.0045970807   0              0.070628072    0              0              0              1.1971759e-13  0              2.9949978    
   2400000   8485.2814      100            100            0.025075051    0.0045970807   0              0.070628072    0              0              0              1.1971759e-13  0              2.9949978    
   2500000   8485.2814      100            100            0.025075051    0.0045970807   0              0.070628072    0              0              0              1.1971759e-13  0              2.9949978    
   2600000   8485.2814      100            100            0.025075051    0.0045970806   0              0.070628073    0              0              0              1.1971759e-13  0              2.9949978    
   2700000   8485.2814      100            100            0.025075051    0.0045970806   0              0.070628073    0              0              0              1.1971759e-13  0              2.9949978    
   2800000   8485.2814      100            100            0.025075051    0.0045970806   0              0.070628073    0              0              0              1.1971759e-13  0              2.9949978    
   2900000   8485.2814      100            100            0.025075051    0.0045970806   0              0.070628073    0              0              0              1.1971759e-13  0              2.9949978    
   3000000   8485.2814      100            100            0.025075051    0.0045970807   0              0.070628073    0              0              0              1.1971759e-13  0              2.9949978    
Loop time of 623.226 on 2 procs for 3000000 steps with 4001 atoms

Performance: 4159003.036 ns/day, 0.000 hours/ns, 4813.661 timesteps/s
100.0% CPU use with 2 MPI tasks x 1 OpenMP threads

MPI task timing breakdown:
Section |  min time  |  avg time  |  max time  |%varavg| %total
---------------------------------------------------------------
Pair    | 168.65     | 169.84     | 171.03     |   9.2 | 27.25
Neigh   | 2.5766     | 2.5768     | 2.5771     |   0.0 |  0.41
Comm    | 15.419     | 16.577     | 17.735     |  28.5 |  2.66
Output  | 0.51517    | 0.51522    | 0.51527    |   0.0 |  0.08
Modify  | 391.83     | 393.09     | 394.34     |   6.3 | 63.07
Other   |            | 40.63      |            |       |  6.52

Nlocal:         2000.5 ave        2001 max        2000 min
Histogram: 1 0 0 0 0 0 0 0 0 1
Nghost:            2.5 ave           3 max           2 min
Histogram: 1 0 0 0 0 0 0 0 0 1
Neighs:         1371.5 ave        1372 max        1371 min
Histogram: 1 0 0 0 0 0 0 0 0 1

Total # of neighbors = 2743
Ave neighs/atom = 0.68557861
Neighbor list builds = 164
Dangerous builds = 0
  using 1 OpenMP thread(s) per MPI task
Lattice spacing in x,y,z = 4.2426407 4.2426407 4.2426407
Created orthogonal box = (-4242.6407 -50 -50) to (4242.6407 50 50)
  2 by 1 by 1 MPI processor grid
Created 2000 atoms
  using lattice units in orthogonal box = (-4242.6407 -50 -50) to (4242.6407 50 50)
  create_atoms CPU = 0.001 seconds
Lattice spacing in x,y,z = 3 3 3
Created 2001 atoms
  using lattice units in orthogonal box = (-4242.6407 -50 -50) to (4242.6407 50 50)
  create_atoms CPU = 0.001 seconds
Setting atom values ...
  2000 settings made for diameter
Setting atom values ...
  2000 settings made for mass
Setting atom values ...
  2001 settings made for diameter
Setting atom values ...
  2001 settings made for mass
2000 atoms in group substrate
2001 atoms in group slider1
  1 rigid bodies with 2001 atoms
Generated 0 of 1 mixed pair_coeff terms from geometric mixing rule
Neighbor list info ...
  update every 1 steps, delay 0 steps, check yes
  max neighbors/atom: 2000, page size: 100000
  master list distance cutoff = 3.1
  ghost atom cutoff = 3.1
  binsize = 1.55, bins = 5475 65 65
  1 neighbor lists, perpetual/occasional/extra = 1 0 0
  (1) pair granular, perpetual
      attributes: half, newton on, size, history
      pair build: half/size/bin/newton
      stencil: half/bin/3d
      bin: standard
Setting up Verlet run ...
  Unit style    : micro
  Current step  : 0
  Time step     : 1e-05
Per MPI rank memory allocation (min/avg/max) = 64.15 | 64.15 | 64.15 Mbytes
   Step           Lx             Ly             Lz           Press           Pxx            Pyy            Pzz           KinEng         PotEng          Temp          c_1[1]         c_1[2]         c_1[3]    
         0   8485.2814      100            100            0              0              0              0              0              0              0              1.1971759e-13  0              6            
    100000   8485.2814      100            100            0.0099568265   3.8079765e-35  0              0.057333403    0              0              0              1.1971759e-13  0              3.3278674    
    200000   8485.2814      100            100            0.0044978532   3.0464013e-34  0              0.020051951    0              0              0              1.1971759e-13  0              3.0764568    
    300000   8485.2814      100            100            0.00031900884  3.4848943e-40  0              0.00099079346  0              0              0              1.1971759e-13  0              3.0451423    
    400000   8485.2814      100            100            0.00082489274  3.0463854e-34  0              0.0027065894   0              0              0              1.1971759e-13  0              3.0018176    
    500000   8485.2814      100            100            0.0045154997   0.0022336553   0              0.011317548    0              0              0              1.1971759e-13  0              2.9979698    
    600000   8485.2814      100            100            0.024199656    0.0053830598   0              0.06722542     0              0              0              1.1971759e-13  0              2.9951079    
    700000   8485.2814      100            100            0.023722689    0.0043229496   0              0.066846235    0              0              0              1.1971759e-13  0              2.9951333    
    800000   8485.2814      100            100            0.024093179    0.0044836921   0              0.067795921    0              0              0              1.1971759e-13  0              2.9951036    
    900000   8485.2814      100            100            0.024659234    0.0047015293   0              0.069276175    0              0              0              1.1971759e-13  0              2.9950519    
   1000000   8485.2814      100            100            0.024937628    0.004677747    0              0.070135137    0              0              0              1.1971759e-13  0              2.9950217    
   1100000   8485.2814      100            100            0.025054695    0.0046728745   0              0.070491211    0              0              0              1.1971759e-13  0              2.9950091    
   1200000   8485.2814      100            100            0.025091836    0.0046693825   0              0.070606127    0              0              0              1.1971759e-13  0              2.995005     
   1300000   8485.2814      100            100            0.025100144    0.0046680562   0              0.070632377    0              0              0              1.1971759e-13  0              2.9950041    
   1400000   8485.2814      100            100            0.025100607    0.004667951    0              0.07063387     0              0              0              1.1971759e-13  0              2.995004     
   1500000   8485.2814      100            100            0.025099765    0.0046679875   0              0.070631308    0              0              0              1.1971759e-13  0              2.9950041    
   1600000   8485.2814      100            100            0.025099156    0.004668015    0              0.070629454    0              0              0              1.1971759e-13  0              2.9950041    
   1700000   8485.2814      100            100            0.025098877    0.0046680278   0              0.070628603    0              0              0              1.1971759e-13  0              2.9950042    
   1800000   8485.2814      100            100            0.025098778    0.0046680324   0              0.070628302    0              0              0              1.1971759e-13  0              2.9950042    
   1900000   8485.2814      100            100            0.025098752    0.0046680336   0              0.070628223    0              0              0              1.1971759e-13  0              2.9950042    
   2000000   8485.2814      100            100            0.025098748    0.0046680338   0              0.070628212    0              0              0              1.1971759e-13  0              2.9950042    
   2100000   8485.2814      100            100            0.02509875     0.0046680338   0              0.070628215    0              0              0              1.1971759e-13  0              2.9950042    
   2200000   8485.2814      100            100            0.025098751    0.0046680337   0              0.070628219    0              0              0              1.1971759e-13  0              2.9950042    
   2300000   8485.2814      100            100            0.025098752    0.0046680337   0              0.070628221    0              0              0              1.1971759e-13  0              2.9950042    
   2400000   8485.2814      100            100            0.025098752    0.0046680337   0              0.070628222    0              0              0              1.1971759e-13  0              2.9950042    
   2500000   8485.2814      100            100            0.025098752    0.0046680337   0              0.070628222    0              0              0              1.1971759e-13  0              2.9950042    
   2600000   8485.2814      100            100            0.025098752    0.0046680337   0              0.070628222    0              0              0              1.1971759e-13  0              2.9950042    
   2700000   8485.2814      100            100            0.025098752    0.0046680337   0              0.070628222    0              0              0              1.1971759e-13  0              2.9950042    
   2800000   8485.2814      100            100            0.025098752    0.0046680337   0              0.070628222    0              0              0              1.1971759e-13  0              2.9950042    
   2900000   8485.2814      100            100            0.025098752    0.0046680337   0              0.070628222    0              0              0              1.1971759e-13  0              2.9950042    
   3000000   8485.2814      100            100            0.025098752    0.0046680337   0              0.070628222    0              0              0              1.1971759e-13  0              2.9950042    
Loop time of 613.47 on 2 procs for 3000000 steps with 4001 atoms

Performance: 4225142.843 ns/day, 0.000 hours/ns, 4890.212 timesteps/s
99.9% CPU use with 2 MPI tasks x 1 OpenMP threads

MPI task timing breakdown:
Section |  min time  |  avg time  |  max time  |%varavg| %total
---------------------------------------------------------------
Pair    | 167.53     | 167.78     | 168.03     |   1.9 | 27.35
Neigh   | 2.5877     | 2.588      | 2.5883     |   0.0 |  0.42
Comm    | 15.709     | 15.939     | 16.169     |   5.8 |  2.60
Output  | 0.51504    | 0.5151     | 0.51516    |   0.0 |  0.08
Modify  | 385.43     | 385.5      | 385.56     |   0.3 | 62.84
Other   |            | 41.15      |            |       |  6.71

Nlocal:         2000.5 ave        2001 max        2000 min
Histogram: 1 0 0 0 0 0 0 0 0 1
Nghost:            2.5 ave           3 max           2 min
Histogram: 1 0 0 0 0 0 0 0 0 1
Neighs:         1371.5 ave        1372 max        1371 min
Histogram: 1 0 0 0 0 0 0 0 0 1

Total # of neighbors = 2743
Ave neighs/atom = 0.68557861
Neighbor list builds = 164
Dangerous builds = 0
  using 1 OpenMP thread(s) per MPI task
Lattice spacing in x,y,z = 4.2426407 4.2426407 4.2426407
Created orthogonal box = (-4242.6407 -50 -50) to (4242.6407 50 50)
  2 by 1 by 1 MPI processor grid
Created 2000 atoms
  using lattice units in orthogonal box = (-4242.6407 -50 -50) to (4242.6407 50 50)
  create_atoms CPU = 0.001 seconds
Lattice spacing in x,y,z = 3 3 3
Created 2001 atoms
  using lattice units in orthogonal box = (-4242.6407 -50 -50) to (4242.6407 50 50)
  create_atoms CPU = 0.001 seconds
Setting atom values ...
  2000 settings made for diameter
Setting atom values ...
  2000 settings made for mass
Setting atom values ...
  2001 settings made for diameter
Setting atom values ...
  2001 settings made for mass
2000 atoms in group substrate
2001 atoms in group slider1
  1 rigid bodies with 2001 atoms
Generated 0 of 1 mixed pair_coeff terms from geometric mixing rule
Neighbor list info ...
  update every 1 steps, delay 0 steps, check yes
  max neighbors/atom: 2000, page size: 100000
  master list distance cutoff = 3.1
  ghost atom cutoff = 3.1
  binsize = 1.55, bins = 5475 65 65
  1 neighbor lists, perpetual/occasional/extra = 1 0 0
  (1) pair granular, perpetual
      attributes: half, newton on, size, history
      pair build: half/size/bin/newton
      stencil: half/bin/3d
      bin: standard
Setting up Verlet run ...
  Unit style    : micro
  Current step  : 0
  Time step     : 1e-05
Per MPI rank memory allocation (min/avg/max) = 64.15 | 64.15 | 64.15 Mbytes
   Step           Lx             Ly             Lz           Press           Pxx            Pyy            Pzz           KinEng         PotEng          Temp          c_1[1]         c_1[2]         c_1[3]    
         0   8485.2814      100            100            0              0              0              0              0              0              0              1.1971759e-13  0              6            
    100000   8485.2814      100            100            0.0099570578  -5.3311649e-34  0              0.057335779    0              0              0              1.1971759e-13  0              3.3278427    
    200000   8485.2814      100            100            0.0044986909   9.5199389e-36  0              0.020057083    0              0              0              1.1971759e-13  0              3.0764155    
    300000   8485.2814      100            100            0.00032142938 -1.5231831e-34  0              0.00099856854  0              0              0              1.1971759e-13  0              3.0451483    
    400000   8485.2814      100            100            0.00083069804  7.9683e-41     0              0.0027272886   0              0              0              1.1971759e-13  0              3.0017564    
    500000   8485.2814      100            100            0.0043801041   0.0022169925   0              0.01092669     0              0              0              1.1971759e-13  0              2.9980115    
    600000   8485.2814      100            100            0.023205619    0.0057623628   0              0.063863619    0              0              0              1.1971759e-13  0              2.9952375    
    700000   8485.2814      100            100            0.023032964    0.0040545054   0              0.065045301    0              0              0              1.1971759e-13  0              2.9952062    
    800000   8485.2814      100            100            0.023907235    0.0045014577   0              0.06722028     0              0              0              1.1971759e-13  0              2.9951316    
    900000   8485.2814      100            100            0.024668872    0.0047586733   0              0.069247943    0              0              0              1.1971759e-13  0              2.9950601    
   1000000   8485.2814      100            100            0.0249908      0.0047382178   0              0.070234184    0              0              0              1.1971759e-13  0              2.9950252    
   1100000   8485.2814      100            100            0.025101122    0.0047343125   0              0.070569055    0              0              0              1.1971759e-13  0              2.9950132    
   1200000   8485.2814      100            100            0.025125838    0.0047333655   0              0.07064415     0              0              0              1.1971759e-13  0              2.9950105    
   1300000   8485.2814      100            100            0.025126476    0.0047333171   0              0.070646111    0              0              0              1.1971759e-13  0              2.9950104    
   1400000   8485.2814      100            100            0.025123594    0.0047334494   0              0.070637333    0              0              0              1.1971759e-13  0              2.9950107    
   1500000   8485.2814      100            100            0.025121707    0.0047335184   0              0.070631603    0              0              0              1.1971759e-13  0              2.9950109    
   1600000   8485.2814      100            100            0.025120915    0.0047335475   0              0.070629197    0              0              0              1.1971759e-13  0              2.995011     
   1700000   8485.2814      100            100            0.025120672    0.0047335566   0              0.07062846     0              0              0              1.1971759e-13  0              2.995011     
   1800000   8485.2814      100            100            0.025120627    0.0047335583   0              0.070628322    0              0              0              1.1971759e-13  0              2.995011     
   1900000   8485.2814      100            100            0.025120631    0.0047335582   0              0.070628335    0              0              0              1.1971759e-13  0              2.995011     
   2000000   8485.2814      100            100            0.02512064     0.0047335579   0              0.070628361    0              0              0              1.1971759e-13  0              2.995011     
   2100000   8485.2814      100            100            0.025120645    0.0047335577   0              0.070628376    0              0              0              1.1971759e-13  0              2.995011     
   2200000   8485.2814      100            100            0.025120647    0.0047335576   0              0.070628382    0              0              0              1.1971759e-13  0              2.995011     
   2300000   8485.2814      100            100            0.025120647    0.0047335576   0              0.070628384    0              0              0              1.1971759e-13  0              2.995011     
   2400000   8485.2814      100            100            0.025120647    0.0047335576   0              0.070628384    0              0              0              1.1971759e-13  0              2.995011     
   2500000   8485.2814      100            100            0.025120647    0.0047335576   0              0.070628384    0              0              0              1.1971759e-13  0              2.995011     
   2600000   8485.2814      100            100            0.025120647    0.0047335576   0              0.070628384    0              0              0              1.1971759e-13  0              2.995011     
   2700000   8485.2814      100            100            0.025120647    0.0047335576   0              0.070628384    0              0              0              1.1971759e-13  0              2.995011     
   2800000   8485.2814      100            100            0.025120647    0.0047335576   0              0.070628384    0              0              0              1.1971759e-13  0              2.995011     
   2900000   8485.2814      100            100            0.025120647    0.0047335576   0              0.070628384    0              0              0              1.1971759e-13  0              2.995011     
   3000000   8485.2814      100            100            0.025120647    0.0047335576   0              0.070628384    0              0              0              1.1971759e-13  0              2.995011     
Loop time of 611.557 on 2 procs for 3000000 steps with 4001 atoms

Performance: 4238360.969 ns/day, 0.000 hours/ns, 4905.510 timesteps/s
100.0% CPU use with 2 MPI tasks x 1 OpenMP threads

MPI task timing breakdown:
Section |  min time  |  avg time  |  max time  |%varavg| %total
---------------------------------------------------------------
Pair    | 164.11     | 166.14     | 168.18     |  15.8 | 27.17
Neigh   | 2.5743     | 2.5746     | 2.575      |   0.0 |  0.42
Comm    | 14.814     | 16.855     | 18.896     |  49.7 |  2.76
Output  | 0.51396    | 0.51403    | 0.5141     |   0.0 |  0.08
Modify  | 385.5      | 385.53     | 385.56     |   0.1 | 63.04
Other   |            | 39.94      |            |       |  6.53

Nlocal:         2000.5 ave        2001 max        2000 min
Histogram: 1 0 0 0 0 0 0 0 0 1
Nghost:            2.5 ave           3 max           2 min
Histogram: 1 0 0 0 0 0 0 0 0 1
Neighs:         1371.5 ave        1372 max        1371 min
Histogram: 1 0 0 0 0 0 0 0 0 1

Total # of neighbors = 2743
Ave neighs/atom = 0.68557861
Neighbor list builds = 164
Dangerous builds = 0
  using 1 OpenMP thread(s) per MPI task
Lattice spacing in x,y,z = 4.2426407 4.2426407 4.2426407
Created orthogonal box = (-4242.6407 -50 -50) to (4242.6407 50 50)
  2 by 1 by 1 MPI processor grid
Created 2000 atoms
  using lattice units in orthogonal box = (-4242.6407 -50 -50) to (4242.6407 50 50)
  create_atoms CPU = 0.001 seconds
Lattice spacing in x,y,z = 3 3 3
Created 2001 atoms
  using lattice units in orthogonal box = (-4242.6407 -50 -50) to (4242.6407 50 50)
  create_atoms CPU = 0.001 seconds
Setting atom values ...
  2000 settings made for diameter
Setting atom values ...
  2000 settings made for mass
Setting atom values ...
  2001 settings made for diameter
Setting atom values ...
  2001 settings made for mass
2000 atoms in group substrate
2001 atoms in group slider1
  1 rigid bodies with 2001 atoms
Generated 0 of 1 mixed pair_coeff terms from geometric mixing rule
Neighbor list info ...
  update every 1 steps, delay 0 steps, check yes
  max neighbors/atom: 2000, page size: 100000
  master list distance cutoff = 3.1
  ghost atom cutoff = 3.1
  binsize = 1.55, bins = 5475 65 65
  1 neighbor lists, perpetual/occasional/extra = 1 0 0
  (1) pair granular, perpetual
      attributes: half, newton on, size, history
      pair build: half/size/bin/newton
      stencil: half/bin/3d
      bin: standard
Setting up Verlet run ...
  Unit style    : micro
  Current step  : 0
  Time step     : 1e-05
Per MPI rank memory allocation (min/avg/max) = 64.15 | 64.15 | 64.15 Mbytes
   Step           Lx             Ly             Lz           Press           Pxx            Pyy            Pzz           KinEng         PotEng          Temp          c_1[1]         c_1[2]         c_1[3]    
         0   8485.2814      100            100            0              0              0              0              0              0              0              1.1971759e-13  0              6            
    100000   8485.2814      100            100            0.0099573065   2.3698711e-40  0              0.057338337    0              0              0              1.1971759e-13  0              3.3278161    
    200000   8485.2814      100            100            0.0044995948   7.6159554e-35  0              0.020062622    0              0              0              1.1971759e-13  0              3.0763708    
    300000   8485.2814      100            100            0.00032404435  7.6159667e-35  0              0.0010069725   0              0              0              1.1971759e-13  0              3.0451547    
    400000   8485.2814      100            100            0.00083696162 -1.5231839e-34  0              0.0027496481   0              0              0              1.1971759e-13  0              3.0016898    
    500000   8485.2814      100            100            0.0042606959   0.0021999705   0              0.010584291    0              0              0              1.1971759e-13  0              2.9980501    
    600000   8485.2814      100            100            0.021801302    0.0049766862   0              0.060435646    0              0              0              1.1971759e-13  0              2.9953733    
    700000   8485.2814      100            100            0.02241556     0.0038816671   0              0.063365665    0              0              0              1.1971759e-13  0              2.995276     
    800000   8485.2814      100            100            0.023778653    0.0044478912   0              0.066888073    0              0              0              1.1971759e-13  0              2.9951514    
    900000   8485.2814      100            100            0.024719732    0.0047492827   0              0.069409919    0              0              0              1.1971759e-13  0              2.9950619    
   1000000   8485.2814      100            100            0.025050682    0.0047297407   0              0.070422308    0              0              0              1.1971759e-13  0              2.995026     
   1100000   8485.2814      100            100            0.025132554    0.0047271075   0              0.070670556    0              0              0              1.1971759e-13  0              2.995017     
   1200000   8485.2814      100            100            0.02513594     0.0047269688   0              0.070680852    0              0              0              1.1971759e-13  0              2.9950166    
   1300000   8485.2814      100            100            0.025126978    0.0047272496   0              0.070653686    0              0              0              1.1971759e-13  0              2.9950175    
   1400000   8485.2814      100            100            0.025121252    0.0047274325   0              0.070636323    0              0              0              1.1971759e-13  0              2.9950181    
   1500000   8485.2814      100            100            0.025119085    0.0047275024   0              0.070629754    0              0              0              1.1971759e-13  0              2.9950184    
   1600000   8485.2814      100            100            0.025118579    0.004727519    0              0.070628219    0              0              0              1.1971759e-13  0              2.9950184    
   1700000   8485.2814      100            100            0.025118572    0.0047275194   0              0.070628198    0              0              0              1.1971759e-13  0              2.9950184    
   1800000   8485.2814      100            100            0.025118636    0.0047275174   0              0.070628391    0              0              0              1.1971759e-13  0              2.9950184    
   1900000   8485.2814      100            100            0.025118675    0.0047275162   0              0.070628508    0              0              0              1.1971759e-13  0              2.9950184    
   2000000   8485.2814      100            100            0.025118689    0.0047275158   0              0.070628551    0              0              0              1.1971759e-13  0              2.9950184    
   2100000   8485.2814      100            100            0.025118692    0.0047275157   0              0.07062856     0              0              0              1.1971759e-13  0              2.9950184    
   2200000   8485.2814      100            100            0.025118692    0.0047275157   0              0.07062856     0              0              0              1.1971759e-13  0              2.9950184    
   2300000   8485.2814      100            100            0.025118691    0.0047275157   0              0.070628559    0              0              0              1.1971759e-13  0              2.9950184    
   2400000   8485.2814      100            100            0.025118691    0.0047275157   0              0.070628558    0              0              0              1.1971759e-13  0              2.9950184    
   2500000   8485.2814      100            100            0.025118691    0.0047275157   0              0.070628558    0              0              0              1.1971759e-13  0              2.9950184    
   2600000   8485.2814      100            100            0.025118691    0.0047275157   0              0.070628558    0              0              0              1.1971759e-13  0              2.9950184    
   2700000   8485.2814      100            100            0.025118691    0.0047275157   0              0.070628558    0              0              0              1.1971759e-13  0              2.9950184    
   2800000   8485.2814      100            100            0.025118691    0.0047275157   0              0.070628558    0              0              0              1.1971759e-13  0              2.9950184    
   2900000   8485.2814      100            100            0.025118691    0.0047275157   0              0.070628558    0              0              0              1.1971759e-13  0              2.9950184    
   3000000   8485.2814      100            100            0.025118691    0.0047275157   0              0.070628558    0              0              0              1.1971759e-13  0              2.9950184    
Loop time of 604.453 on 2 procs for 3000000 steps with 4001 atoms

Performance: 4288175.276 ns/day, 0.000 hours/ns, 4963.166 timesteps/s
99.9% CPU use with 2 MPI tasks x 1 OpenMP threads

MPI task timing breakdown:
Section |  min time  |  avg time  |  max time  |%varavg| %total
---------------------------------------------------------------
Pair    | 161.17     | 161.31     | 161.45     |   1.1 | 26.69
Neigh   | 2.5802     | 2.5805     | 2.5807     |   0.0 |  0.43
Comm    | 15.556     | 15.63      | 15.704     |   1.9 |  2.59
Output  | 0.51241    | 0.51247    | 0.51254    |   0.0 |  0.08
Modify  | 384.36     | 384.42     | 384.48     |   0.3 | 63.60
Other   |            | 40         |            |       |  6.62

Nlocal:         2000.5 ave        2001 max        2000 min
Histogram: 1 0 0 0 0 0 0 0 0 1
Nghost:            2.5 ave           3 max           2 min
Histogram: 1 0 0 0 0 0 0 0 0 1
Neighs:         1371.5 ave        1372 max        1371 min
Histogram: 1 0 0 0 0 0 0 0 0 1

Total # of neighbors = 2743
Ave neighs/atom = 0.68557861
Neighbor list builds = 164
Dangerous builds = 0
  using 1 OpenMP thread(s) per MPI task
Lattice spacing in x,y,z = 4.2426407 4.2426407 4.2426407
Created orthogonal box = (-4242.6407 -50 -50) to (4242.6407 50 50)
  2 by 1 by 1 MPI processor grid
Created 2000 atoms
  using lattice units in orthogonal box = (-4242.6407 -50 -50) to (4242.6407 50 50)
  create_atoms CPU = 0.001 seconds
Lattice spacing in x,y,z = 3 3 3
Created 2001 atoms
  using lattice units in orthogonal box = (-4242.6407 -50 -50) to (4242.6407 50 50)
  create_atoms CPU = 0.001 seconds
Setting atom values ...
  2000 settings made for diameter
Setting atom values ...
  2000 settings made for mass
Setting atom values ...
  2001 settings made for diameter
Setting atom values ...
  2001 settings made for mass
2000 atoms in group substrate
2001 atoms in group slider1
  1 rigid bodies with 2001 atoms
Generated 0 of 1 mixed pair_coeff terms from geometric mixing rule
Neighbor list info ...
  update every 1 steps, delay 0 steps, check yes
  max neighbors/atom: 2000, page size: 100000
  master list distance cutoff = 3.1
  ghost atom cutoff = 3.1
  binsize = 1.55, bins = 5475 65 65
  1 neighbor lists, perpetual/occasional/extra = 1 0 0
  (1) pair granular, perpetual
      attributes: half, newton on, size, history
      pair build: half/size/bin/newton
      stencil: half/bin/3d
      bin: standard
Setting up Verlet run ...
  Unit style    : micro
  Current step  : 0
  Time step     : 1e-05
Per MPI rank memory allocation (min/avg/max) = 64.15 | 64.15 | 64.15 Mbytes
   Step           Lx             Ly             Lz           Press           Pxx            Pyy            Pzz           KinEng         PotEng          Temp          c_1[1]         c_1[2]         c_1[3]    
         0   8485.2814      100            100            0              0              0              0              0              0              0              1.1971759e-13  0              6            
    100000   8485.2814      100            100            0.0099575728  -1.9039862e-35  0              0.057341078    0              0              0              1.1971759e-13  0              3.3277874    
    200000   8485.2814      100            100            0.0045005652   1.6765458e-39  0              0.02006857     0              0              0              1.1971759e-13  0              3.0763227    
    300000   8485.2814      100            100            0.00032685419 -3.0463552e-34  0              0.0010160078   0              0              0              1.1971759e-13  0              3.0451613    
    400000   8485.2814      100            100            0.00084368457 -6.0927483e-34  0              0.0027736776   0              0              0              1.1971759e-13  0              3.0016176    
    500000   8485.2814      100            100            0.0041558641   0.0021642661   0              0.010304503    0              0              0              1.1971759e-13  0              2.9980841    
    600000   8485.2814      100            100            0.020403195    0.0041790563   0              0.057037944    0              0              0              1.1971759e-13  0              2.9955122    
    700000   8485.2814      100            100            0.022030411    0.0041533201   0              0.061938281    0              0              0              1.1971759e-13  0              2.9953379    
    800000   8485.2814      100            100            0.023760176    0.0043867372   0              0.066893796    0              0              0              1.1971759e-13  0              2.9951597    
    900000   8485.2814      100            100            0.024829626    0.0047083308   0              0.069780562    0              0              0              1.1971759e-13  0              2.9950569    
   1000000   8485.2814      100            100            0.025122116    0.0046920448   0              0.070674307    0              0              0              1.1971759e-13  0              2.995025     
   1100000   8485.2814      100            100            0.025152277    0.0046899694   0              0.070766862    0              0              0              1.1971759e-13  0              2.9950215    
   1200000   8485.2814      100            100            0.025129393    0.0046905916   0              0.070697587    0              0              0              1.1971759e-13  0              2.9950239    
   1300000   8485.2814      100            100            0.025112878    0.0046910476   0              0.070647586    0              0              0              1.1971759e-13  0              2.9950256    
   1400000   8485.2814      100            100            0.025106982    0.0046912115   0              0.070629735    0              0              0              1.1971759e-13  0              2.9950263    
   1500000   8485.2814      100            100            0.025105997    0.0046912398   0              0.070626752    0              0              0              1.1971759e-13  0              2.9950264    
   1600000   8485.2814      100            100            0.025106254    0.0046912332   0              0.070627529    0              0              0              1.1971759e-13  0              2.9950263    
   1700000   8485.2814      100            100            0.025106526    0.0046912258   0              0.070628351    0              0              0              1.1971759e-13  0              2.9950263    
   1800000   8485.2814      100            100            0.025106639    0.0046912227   0              0.070628694    0              0              0              1.1971759e-13  0              2.9950263    
   1900000   8485.2814      100            100            0.025106664    0.004691222    0              0.070628769    0              0              0              1.1971759e-13  0              2.9950263    
   2000000   8485.2814      100            100            0.025106662    0.004691222    0              0.070628764    0              0              0              1.1971759e-13  0              2.9950263    
   2100000   8485.2814      100            100            0.025106658    0.0046912221   0              0.070628751    0              0              0              1.1971759e-13  0              2.9950263    
   2200000   8485.2814      100            100            0.025106656    0.0046912222   0              0.070628745    0              0              0              1.1971759e-13  0              2.9950263    
   2300000   8485.2814      100            100            0.025106655    0.0046912222   0              0.070628743    0              0              0              1.1971759e-13  0              2.9950263    
   2400000   8485.2814      100            100            0.025106655    0.0046912222   0              0.070628743    0              0              0              1.1971759e-13  0              2.9950263    
   2500000   8485.2814      100            100            0.025106655    0.0046912222   0              0.070628744    0              0              0              1.1971759e-13  0              2.9950263    
   2600000   8485.2814      100            100            0.025106655    0.0046912222   0              0.070628744    0              0              0              1.1971759e-13  0              2.9950263    
   2700000   8485.2814      100            100            0.025106655    0.0046912222   0              0.070628744    0              0              0              1.1971759e-13  0              2.9950263    
   2800000   8485.2814      100            100            0.025106655    0.0046912222   0              0.070628744    0              0              0              1.1971759e-13  0              2.9950263    
   2900000   8485.2814      100            100            0.025106655    0.0046912222   0              0.070628744    0              0              0              1.1971759e-13  0              2.9950263    
   3000000   8485.2814      100            100            0.025106655    0.0046912222   0              0.070628744    0              0              0              1.1971759e-13  0              2.9950263    
Loop time of 596.601 on 2 procs for 3000000 steps with 4001 atoms

Performance: 4344613.782 ns/day, 0.000 hours/ns, 5028.488 timesteps/s
100.0% CPU use with 2 MPI tasks x 1 OpenMP threads

MPI task timing breakdown:
Section |  min time  |  avg time  |  max time  |%varavg| %total
---------------------------------------------------------------
Pair    | 151.12     | 153.55     | 155.97     |  19.6 | 25.74
Neigh   | 2.5932     | 2.594      | 2.5948     |   0.0 |  0.43
Comm    | 14.134     | 16.661     | 19.188     |  61.9 |  2.79
Output  | 0.51243    | 0.51246    | 0.51249    |   0.0 |  0.09
Modify  | 383.21     | 383.23     | 383.26     |   0.1 | 64.24
Other   |            | 40.05      |            |       |  6.71

Nlocal:         2000.5 ave        2001 max        2000 min
Histogram: 1 0 0 0 0 0 0 0 0 1
Nghost:            2.5 ave           3 max           2 min
Histogram: 1 0 0 0 0 0 0 0 0 1
Neighs:         1371.5 ave        1372 max        1371 min
Histogram: 1 0 0 0 0 0 0 0 0 1

Total # of neighbors = 2743
Ave neighs/atom = 0.68557861
Neighbor list builds = 164
Dangerous builds = 0
  using 1 OpenMP thread(s) per MPI task
Lattice spacing in x,y,z = 4.2426407 4.2426407 4.2426407
Created orthogonal box = (-4242.6407 -50 -50) to (4242.6407 50 50)
  2 by 1 by 1 MPI processor grid
Created 2000 atoms
  using lattice units in orthogonal box = (-4242.6407 -50 -50) to (4242.6407 50 50)
  create_atoms CPU = 0.001 seconds
Lattice spacing in x,y,z = 3 3 3
Created 2001 atoms
  using lattice units in orthogonal box = (-4242.6407 -50 -50) to (4242.6407 50 50)
  create_atoms CPU = 0.001 seconds
Setting atom values ...
  2000 settings made for diameter
Setting atom values ...
  2000 settings made for mass
Setting atom values ...
  2001 settings made for diameter
Setting atom values ...
  2001 settings made for mass
2000 atoms in group substrate
2001 atoms in group slider1
  1 rigid bodies with 2001 atoms
Generated 0 of 1 mixed pair_coeff terms from geometric mixing rule
Neighbor list info ...
  update every 1 steps, delay 0 steps, check yes
  max neighbors/atom: 2000, page size: 100000
  master list distance cutoff = 3.1
  ghost atom cutoff = 3.1
  binsize = 1.55, bins = 5475 65 65
  1 neighbor lists, perpetual/occasional/extra = 1 0 0
  (1) pair granular, perpetual
      attributes: half, newton on, size, history
      pair build: half/size/bin/newton
      stencil: half/bin/3d
      bin: standard
Setting up Verlet run ...
  Unit style    : micro
  Current step  : 0
  Time step     : 1e-05
Per MPI rank memory allocation (min/avg/max) = 64.15 | 64.15 | 64.15 Mbytes
   Step           Lx             Ly             Lz           Press           Pxx            Pyy            Pzz           KinEng         PotEng          Temp          c_1[1]         c_1[2]         c_1[3]    
         0   8485.2814      100            100            0              0              0              0              0              0              0              1.1971759e-13  0              6            
    100000   8485.2814      100            100            0.0099578567   7.3145149e-41  0              0.057344003    0              0              0              1.1971759e-13  0              3.3277567    
    200000   8485.2814      100            100            0.0045016026  -1.142392e-34   0              0.02007493     0              0              0              1.1971759e-13  0              3.076271     
    300000   8485.2814      100            100            0.0003298602  -1.5231886e-33  0              0.0010256797   0              0              0              1.1971759e-13  0              3.0451681    
    400000   8485.2814      100            100            0.00085086889 -3.0463757e-34  0              0.0027993907   0              0              0              1.1971759e-13  0              3.0015397    
    500000   8485.2814      100            100            0.0040669341   0.0020988448   0              0.010102403    0              0              0              1.1971759e-13  0              2.9981121    
    600000   8485.2814      100            100            0.019206013    0.0038460988   0              0.053778068    0              0              0              1.1971759e-13  0              2.99565      
    700000   8485.2814      100            100            0.021772849    0.0044126585   0              0.060906018    0              0              0              1.1971759e-13  0              2.9953861    
    800000   8485.2814      100            100            0.023876988    0.0043176297   0              0.067313375    0              0              0              1.1971759e-13  0              2.9951536    
    900000   8485.2814      100            100            0.024990378    0.004636177    0              0.070334978    0              0              0              1.1971759e-13  0              2.9950459    
   1000000   8485.2814      100            100            0.025189484    0.00463628     0              0.070932173    0              0              0              1.1971759e-13  0              2.9950243    
   1100000   8485.2814      100            100            0.025150344    0.0046347729   0              0.070816259    0              0              0              1.1971759e-13  0              2.9950282    
   1200000   8485.2814      100            100            0.025105236    0.0046359065   0              0.070679802    0              0              0              1.1971759e-13  0              2.9950329    
   1300000   8485.2814      100            100            0.025088335    0.0046363282   0              0.070628676    0              0              0              1.1971759e-13  0              2.9950347    
   1400000   8485.2814      100            100            0.025086123    0.0046363856   0              0.070621984    0              0              0              1.1971759e-13  0              2.995035     
   1500000   8485.2814      100            100            0.02508731     0.0046363575   0              0.070625574    0              0              0              1.1971759e-13  0              2.9950348    
   1600000   8485.2814      100            100            0.025088188    0.004636336    0              0.070628229    0              0              0              1.1971759e-13  0              2.9950347    
   1700000   8485.2814      100            100            0.025088458    0.0046363293   0              0.070629046    0              0              0              1.1971759e-13  0              2.9950347    
   1800000   8485.2814      100            100            0.025088472    0.0046363289   0              0.070629089    0              0              0              1.1971759e-13  0              2.9950347    
   1900000   8485.2814      100            100            0.025088443    0.0046363296   0              0.070629       0              0              0              1.1971759e-13  0              2.9950347    
   2000000   8485.2814      100            100            0.025088427    0.00463633     0              0.070628951    0              0              0              1.1971759e-13  0              2.9950347    
   2100000   8485.2814      100            100            0.025088423    0.0046363301   0              0.070628939    0              0              0              1.1971759e-13  0              2.9950347    
   2200000   8485.2814      100            100            0.025088423    0.0046363301   0              0.070628939    0              0              0              1.1971759e-13  0              2.9950347    
   2300000   8485.2814      100            100            0.025088424    0.0046363301   0              0.070628941    0              0              0              1.1971759e-13  0              2.9950347    
   2400000   8485.2814      100            100            0.025088424    0.0046363301   0              0.070628942    0              0              0              1.1971759e-13  0              2.9950347    
   2500000   8485.2814      100            100            0.025088424    0.0046363301   0              0.070628942    0              0              0              1.1971759e-13  0              2.9950347    
   2600000   8485.2814      100            100            0.025088424    0.0046363301   0              0.070628942    0              0              0              1.1971759e-13  0              2.9950347    
   2700000   8485.2814      100            100            0.025088424    0.0046363301   0              0.070628942    0              0              0              1.1971759e-13  0              2.9950347    
   2800000   8485.2814      100            100            0.025088424    0.0046363301   0              0.070628942    0              0              0              1.1971759e-13  0              2.9950347    
   2900000   8485.2814      100            100            0.025088424    0.0046363301   0              0.070628942    0              0              0              1.1971759e-13  0              2.9950347    
   3000000   8485.2814      100            100            0.025088424    0.0046363301   0              0.070628942    0              0              0              1.1971759e-13  0              2.9950347    
Loop time of 598.053 on 2 procs for 3000000 steps with 4001 atoms

Performance: 4334063.693 ns/day, 0.000 hours/ns, 5016.277 timesteps/s
100.0% CPU use with 2 MPI tasks x 1 OpenMP threads

MPI task timing breakdown:
Section |  min time  |  avg time  |  max time  |%varavg| %total
---------------------------------------------------------------
Pair    | 155.39     | 155.55     | 155.7      |   1.2 | 26.01
Neigh   | 2.6131     | 2.6132     | 2.6133     |   0.0 |  0.44
Comm    | 15         | 15.175     | 15.35      |   4.5 |  2.54
Output  | 0.51265    | 0.51268    | 0.51271    |   0.0 |  0.09
Modify  | 384.3      | 384.51     | 384.72     |   1.1 | 64.29
Other   |            | 39.7       |            |       |  6.64

Nlocal:         2000.5 ave        2001 max        2000 min
Histogram: 1 0 0 0 0 0 0 0 0 1
Nghost:            2.5 ave           3 max           2 min
Histogram: 1 0 0 0 0 0 0 0 0 1
Neighs:         1371.5 ave        1372 max        1371 min
Histogram: 1 0 0 0 0 0 0 0 0 1

Total # of neighbors = 2743
Ave neighs/atom = 0.68557861
Neighbor list builds = 164
Dangerous builds = 0
  using 1 OpenMP thread(s) per MPI task
Lattice spacing in x,y,z = 4.2426407 4.2426407 4.2426407
Created orthogonal box = (-4242.6407 -50 -50) to (4242.6407 50 50)
  2 by 1 by 1 MPI processor grid
Created 2000 atoms
  using lattice units in orthogonal box = (-4242.6407 -50 -50) to (4242.6407 50 50)
  create_atoms CPU = 0.001 seconds
Lattice spacing in x,y,z = 3 3 3
Created 2001 atoms
  using lattice units in orthogonal box = (-4242.6407 -50 -50) to (4242.6407 50 50)
  create_atoms CPU = 0.001 seconds
Setting atom values ...
  2000 settings made for diameter
Setting atom values ...
  2000 settings made for mass
Setting atom values ...
  2001 settings made for diameter
Setting atom values ...
  2001 settings made for mass
2000 atoms in group substrate
2001 atoms in group slider1
  1 rigid bodies with 2001 atoms
Generated 0 of 1 mixed pair_coeff terms from geometric mixing rule
Neighbor list info ...
  update every 1 steps, delay 0 steps, check yes
  max neighbors/atom: 2000, page size: 100000
  master list distance cutoff = 3.1
  ghost atom cutoff = 3.1
  binsize = 1.55, bins = 5475 65 65
  1 neighbor lists, perpetual/occasional/extra = 1 0 0
  (1) pair granular, perpetual
      attributes: half, newton on, size, history
      pair build: half/size/bin/newton
      stencil: half/bin/3d
      bin: standard
Setting up Verlet run ...
  Unit style    : micro
  Current step  : 0
  Time step     : 1e-05
Per MPI rank memory allocation (min/avg/max) = 64.15 | 64.15 | 64.15 Mbytes
   Step           Lx             Ly             Lz           Press           Pxx            Pyy            Pzz           KinEng         PotEng          Temp          c_1[1]         c_1[2]         c_1[3]    
         0   8485.2814      100            100            0              0              0              0              0              0              0              1.1971759e-13  0              6            
    100000   8485.2814      100            100            0.0099581585  -7.6159358e-35  0              0.057347113    0              0              0              1.1971759e-13  0              3.327724     
    200000   8485.2814      100            100            0.0045027072   1.9039885e-35  0              0.020081703    0              0              0              1.1971759e-13  0              3.0762159    
    300000   8485.2814      100            100            0.00033306306 -3.0463614e-34  0              0.0010359915   0              0              0              1.1971759e-13  0              3.0451752    
    400000   8485.2814      100            100            0.00085851607 -1.5231858e-34  0              0.0028267997   0              0              0              1.1971759e-13  0              3.0014557    
    500000   8485.2814      100            100            0.0040107753   0.0020391928   0              0.0099931823   0              0              0              1.1971759e-13  0              2.9981323    
    600000   8485.2814      100            100            0.018401975    0.0044384938   0              0.050772084    0              0              0              1.1971759e-13  0              2.9957819    
    700000   8485.2814      100            100            0.021650646    0.0045338254   0              0.060418117    0              0              0              1.1971759e-13  0              2.9954145    
    800000   8485.2814      100            100            0.024156052    0.004287102    0              0.068181154    0              0              0              1.1971759e-13  0              2.995132     
    900000   8485.2814      100            100            0.025195033    0.0045952725   0              0.070989849    0              0              0              1.1971759e-13  0              2.9950319    
   1000000   8485.2814      100            100            0.025242996    0.0046177876   0              0.071111202    0              0              0              1.1971759e-13  0              2.9950269    
   1100000   8485.2814      100            100            0.025135742    0.0046215813   0              0.070785646    0              0              0              1.1971759e-13  0              2.9950381    
   1200000   8485.2814      100            100            0.025084608    0.0046226836   0              0.070631141    0              0              0              1.1971759e-13  0              2.9950435    
   1300000   8485.2814      100            100            0.02507728     0.0046228442   0              0.070608995    0              0              0              1.1971759e-13  0              2.9950444    
   1400000   8485.2814      100            100            0.025081022    0.0046227687   0              0.070620296    0              0              0              1.1971759e-13  0              2.995044     
   1500000   8485.2814      100            100            0.0250836      0.0046227149   0              0.070628086    0              0              0              1.1971759e-13  0              2.9950437    
   1600000   8485.2814      100            100            0.025084197    0.0046227021   0              0.070629888    0              0              0              1.1971759e-13  0              2.9950436    
   1700000   8485.2814      100            100            0.025084104    0.0046227039   0              0.070629609    0              0              0              1.1971759e-13  0              2.9950436    
   1800000   8485.2814      100            100            0.025083985    0.0046227064   0              0.070629249    0              0              0              1.1971759e-13  0              2.9950437    
   1900000   8485.2814      100            100            0.025083947    0.0046227072   0              0.070629133    0              0              0              1.1971759e-13  0              2.9950437    
   2000000   8485.2814      100            100            0.025083946    0.0046227072   0              0.070629131    0              0              0              1.1971759e-13  0              2.9950437    
[...]
   3000000   8485.2814      100            100            0.024506776    0.0028815942   0              0.070638733    0              0              0              1.1971759e-13  0              2.9954499    
Loop time of 595.605 on 2 procs for 3000000 steps with 4001 atoms

Performance: 4351876.541 ns/day, 0.000 hours/ns, 5036.894 timesteps/s
100.0% CPU use with 2 MPI tasks x 1 OpenMP threads

MPI task timing breakdown:
Section |  min time  |  avg time  |  max time  |%varavg| %total
---------------------------------------------------------------
Pair    | 149.8      | 152.12     | 154.43     |  18.8 | 25.54
Neigh   | 2.5625     | 2.5629     | 2.5634     |   0.0 |  0.43
Comm    | 14.086     | 16.471     | 18.857     |  58.8 |  2.77
Output  | 0.51258    | 0.51261    | 0.51264    |   0.0 |  0.09
Modify  | 384.45     | 384.51     | 384.57     |   0.3 | 64.56
Other   |            | 39.43      |            |       |  6.62

Nlocal:         2000.5 ave        2001 max        2000 min
Histogram: 1 0 0 0 0 0 0 0 0 1
Nghost:            2.5 ave           3 max           2 min
Histogram: 1 0 0 0 0 0 0 0 0 1
Neighs:         1371.5 ave        1372 max        1371 min
Histogram: 1 0 0 0 0 0 0 0 0 1

Total # of neighbors = 2743
Ave neighs/atom = 0.68557861
Neighbor list builds = 164
Dangerous builds = 0
  using 1 OpenMP thread(s) per MPI task
Lattice spacing in x,y,z = 4.2426407 4.2426407 4.2426407
Created orthogonal box = (-4242.6407 -50 -50) to (4242.6407 50 50)
  2 by 1 by 1 MPI processor grid
Created 2000 atoms
  using lattice units in orthogonal box = (-4242.6407 -50 -50) to (4242.6407 50 50)
  create_atoms CPU = 0.001 seconds
Lattice spacing in x,y,z = 3 3 3
Created 2001 atoms
  using lattice units in orthogonal box = (-4242.6407 -50 -50) to (4242.6407 50 50)
  create_atoms CPU = 0.001 seconds
Setting atom values ...
  2000 settings made for diameter
Setting atom values ...
  2000 settings made for mass
Setting atom values ...
  2001 settings made for diameter
Setting atom values ...
  2001 settings made for mass
2000 atoms in group substrate
2001 atoms in group slider1
  1 rigid bodies with 2001 atoms
Generated 0 of 1 mixed pair_coeff terms from geometric mixing rule
Neighbor list info ...
  update every 1 steps, delay 0 steps, check yes
  max neighbors/atom: 2000, page size: 100000
  master list distance cutoff = 3.1
  ghost atom cutoff = 3.1
  binsize = 1.55, bins = 5475 65 65
  1 neighbor lists, perpetual/occasional/extra = 1 0 0
  (1) pair granular, perpetual
      attributes: half, newton on, size, history
      pair build: half/size/bin/newton
      stencil: half/bin/3d
      bin: standard
Setting up Verlet run ...
  Unit style    : micro
  Current step  : 0
  Time step     : 1e-05
Per MPI rank memory allocation (min/avg/max) = 64.15 | 64.15 | 64.15 Mbytes
   Step           Lx             Ly             Lz           Press           Pxx            Pyy            Pzz           KinEng         PotEng          Temp          c_1[1]         c_1[2]         c_1[3]    
         0   8485.2814      100            100            0              0              0              0              0              0              0              1.1971759e-13  0              6            
    100000   8485.2814      100            100            0.0099728534   1.5231963e-34  0              0.057499441    0              0              0              1.1971759e-13  0              3.3260881    
    200000   8485.2814      100            100            0.0045572013   3.0463937e-34  0              0.020417497    0              0              0              1.1971759e-13  0              3.0734205    
    300000   8485.2814      100            100            0.00049149375 -5.7881207e-33  0              0.0015545409   0              0              0              1.1971759e-13  0              3.0453236    
    400000   8485.2814      100            100            0.017488939    0.0014435107   0              0.051499772    0              0              0              1.1971759e-13  0              2.9962897    
    500000   8485.2814      100            100            0.056090767   -0.00038417253  0              0.16865692     0              0              0              1.1971759e-13  0              2.9930071    
    600000   8485.2814      100            100            0.01914572     0.0022974346   0              0.055147081    0              0              0              1.1971759e-13  0              2.9960167    
    700000   8485.2814      100            100            0.022072178    0.0034392626   0              0.06277794     0              0              0              1.1971759e-13  0              2.9957375    
    800000   8485.2814      100            100            0.023560356    0.0030169762   0              0.067664177    0              0              0              1.1971759e-13  0              2.9955719    
    900000   8485.2814      100            100            0.02416056     0.0029461173   0              0.069535574    0              0              0              1.1971759e-13  0              2.9955102    
   1000000   8485.2814      100            100            0.024388432    0.0029361979   0              0.070229099    0              0              0              1.1971759e-13  0              2.9954875    
   1100000   8485.2814      100            100            0.024469955    0.0029227576   0              0.070487108    0              0              0              1.1971759e-13  0              2.9954791    
   1200000   8485.2814      100            100            0.024501304    0.0029210329   0              0.07058288     0              0              0              1.1971759e-13  0              2.995476     
   1300000   8485.2814      100            100            0.024512992    0.0029205817   0              0.070618394    0              0              0              1.1971759e-13  0              2.9954749    
   1400000   8485.2814      100            100            0.024517325    0.0029204172   0              0.070631558    0              0              0              1.1971759e-13  0              2.9954745    
   1500000   8485.2814      100            100            0.024518931    0.0029203566   0              0.070636436    0              0              0              1.1971759e-13  0              2.9954743    
   1600000   8485.2814      100            100            0.024519526    0.0029203342   0              0.070638243    0              0              0              1.1971759e-13  0              2.9954742    
   1700000   8485.2814      100            100            0.024519746    0.0029203259   0              0.070638913    0              0              0              1.1971759e-13  0              2.9954742    
   1800000   8485.2814      100            100            0.024519828    0.0029203228   0              0.070639161    0              0              0              1.1971759e-13  0              2.9954742    
   1900000   8485.2814      100            100            0.024519858    0.0029203217   0              0.070639252    0              0              0              1.1971759e-13  0              2.9954742    
   2000000   8485.2814      100            100            0.024519869    0.0029203213   0              0.070639286    0              0              0              1.1971759e-13  0              2.9954742    
   2100000   8485.2814      100            100            0.024519873    0.0029203211   0              0.070639299    0              0              0              1.1971759e-13  0              2.9954742    
   2200000   8485.2814      100            100            0.024519875    0.0029203211   0              0.070639303    0              0              0              1.1971759e-13  0              2.9954742    
   2300000   8485.2814      100            100            0.024519875    0.002920321    0              0.070639305    0              0              0              1.1971759e-13  0              2.9954742    
   2400000   8485.2814      100            100            0.024519876    0.002920321    0              0.070639306    0              0              0              1.1971759e-13  0              2.9954742    
   2500000   8485.2814      100            100            0.024519876    0.002920321    0              0.070639306    0              0              0              1.1971759e-13  0              2.9954742    
   2600000   8485.2814      100            100            0.024519876    0.002920321    0              0.070639306    0              0              0              1.1971759e-13  0              2.9954742    
   2700000   8485.2814      100            100            0.024519876    0.002920321    0              0.070639306    0              0              0              1.1971759e-13  0              2.9954742    
   2800000   8485.2814      100            100            0.024519876    0.002920321    0              0.070639306    0              0              0              1.1971759e-13  0              2.9954742    
   2900000   8485.2814      100            100            0.024519876    0.002920321    0              0.070639306    0              0              0              1.1971759e-13  0              2.9954742    
   3000000   8485.2814      100            100            0.024519876    0.002920321    0              0.070639306    0              0              0              1.1971759e-13  0              2.9954742    
Loop time of 592.313 on 2 procs for 3000000 steps with 4001 atoms

Performance: 4376066.265 ns/day, 0.000 hours/ns, 5064.892 timesteps/s
100.0% CPU use with 2 MPI tasks x 1 OpenMP threads

MPI task timing breakdown:
Section |  min time  |  avg time  |  max time  |%varavg| %total
---------------------------------------------------------------
Pair    | 151.51     | 152.37     | 153.24     |   7.0 | 25.72
Neigh   | 2.5766     | 2.5766     | 2.5766     |   0.0 |  0.44
Comm    | 14.207     | 15.092     | 15.978     |  22.8 |  2.55
Output  | 0.51246    | 0.5125     | 0.51255    |   0.0 |  0.09
Modify  | 382.27     | 382.36     | 382.46     |   0.5 | 64.55
Other   |            | 39.4       |            |       |  6.65

Nlocal:         2000.5 ave        2001 max        2000 min
Histogram: 1 0 0 0 0 0 0 0 0 1
Nghost:            2.5 ave           3 max           2 min
Histogram: 1 0 0 0 0 0 0 0 0 1
Neighs:         1371.5 ave        1372 max        1371 min
Histogram: 1 0 0 0 0 0 0 0 0 1

Total # of neighbors = 2743
Ave neighs/atom = 0.68557861
Neighbor list builds = 164
Dangerous builds = 0
  using 1 OpenMP thread(s) per MPI task
Lattice spacing in x,y,z = 4.2426407 4.2426407 4.2426407
Created orthogonal box = (-4242.6407 -50 -50) to (4242.6407 50 50)
  2 by 1 by 1 MPI processor grid
Created 2000 atoms
  using lattice units in orthogonal box = (-4242.6407 -50 -50) to (4242.6407 50 50)
  create_atoms CPU = 0.001 seconds
Lattice spacing in x,y,z = 3 3 3
Created 2001 atoms
  using lattice units in orthogonal box = (-4242.6407 -50 -50) to (4242.6407 50 50)
  create_atoms CPU = 0.001 seconds
Setting atom values ...
  2000 settings made for diameter
Setting atom values ...
  2000 settings made for mass
Setting atom values ...
  2001 settings made for diameter
Setting atom values ...
  2001 settings made for mass
2000 atoms in group substrate
2001 atoms in group slider1
  1 rigid bodies with 2001 atoms
Generated 0 of 1 mixed pair_coeff terms from geometric mixing rule
Neighbor list info ...
  update every 1 steps, delay 0 steps, check yes
  max neighbors/atom: 2000, page size: 100000
  master list distance cutoff = 3.1
  ghost atom cutoff = 3.1
  binsize = 1.55, bins = 5475 65 65
  1 neighbor lists, perpetual/occasional/extra = 1 0 0
  (1) pair granular, perpetual
      attributes: half, newton on, size, history
      pair build: half/size/bin/newton
      stencil: half/bin/3d
      bin: standard
Setting up Verlet run ...
  Unit style    : micro
  Current step  : 0
  Time step     : 1e-05
Per MPI rank memory allocation (min/avg/max) = 64.15 | 64.15 | 64.15 Mbytes
   Step           Lx             Ly             Lz           Press           Pxx            Pyy            Pzz           KinEng         PotEng          Temp          c_1[1]         c_1[2]         c_1[3]    
         0   8485.2814      100            100            0              0              0              0              0              0              0              1.1971759e-13  0              6            
    100000   8485.2814      100            100            0.0099737168  -3.8079738e-35  0              0.057508419    0              0              0              1.1971759e-13  0              3.3259909    
    200000   8485.2814      100            100            0.0045604121   4.569572e-34   0              0.020437375    0              0              0              1.1971759e-13  0              3.0732528    
    300000   8485.2814      100            100            0.00050081964  6.0928034e-34  0              0.0015855827   0              0              0              1.1971759e-13  0              3.045321     
    400000   8485.2814      100            100            0.021080363    0.0021178411   0              0.06160451     0              0              0              1.1971759e-13  0              2.9959371    
    500000   8485.2814      100            100            0.054644749    1.5136795e-05  0              0.16392629     0              0              0              1.1971759e-13  0              2.9931373    
    600000   8485.2814      100            100            0.023631318    0.0021553099   0              0.068748854    0              0              0              1.1971759e-13  0              2.995577     
    700000   8485.2814      100            100            0.024830306    0.0035378927   0              0.070954395    0              0              0              1.1971759e-13  0              2.9954953    
    800000   8485.2814      100            100            0.025063106    0.0031599636   0              0.072029518    0              0              0              1.1971759e-13  0              2.9954573    
    900000   8485.2814      100            100            0.024880398    0.0030709539   0              0.071570256    0              0              0              1.1971759e-13  0              2.9954704    
   1000000   8485.2814      100            100            0.024727697    0.0030851108   0              0.071097982    0              0              0              1.1971759e-13  0              2.9954848    
   1100000   8485.2814      100            100            0.024642406    0.0030917935   0              0.070835424    0              0              0              1.1971759e-13  0              2.995493     
   1200000   8485.2814      100            100            0.02460313     0.0030944246   0              0.070714964    0              0              0              1.1971759e-13  0              2.9954968    
   1300000   8485.2814      100            100            0.024587004    0.0030949681   0              0.070666044    0              0              0              1.1971759e-13  0              2.9954984    
   1400000   8485.2814      100            100            0.02458105     0.0030950839   0              0.070648067    0              0              0              1.1971759e-13  0              2.9954989    
   1500000   8485.2814      100            100            0.02457907     0.0030951236   0              0.070642088    0              0              0              1.1971759e-13  0              2.9954991    
   1600000   8485.2814      100            100            0.024578488    0.0030951355   0              0.070640328    0              0              0              1.1971759e-13  0              2.9954992    
   1700000   8485.2814      100            100            0.024578347    0.0030951384   0              0.070639903    0              0              0              1.1971759e-13  0              2.9954992    
   1800000   8485.2814      100            100            0.024578327    0.0030951389   0              0.070639843    0              0              0              1.1971759e-13  0              2.9954992    
   1900000   8485.2814      100            100            0.024578332    0.0030951388   0              0.070639857    0              0              0              1.1971759e-13  0              2.9954992    
   2000000   8485.2814      100            100            0.024578338    0.0030951387   0              0.070639876    0              0              0              1.1971759e-13  0              2.9954992    
   2100000   8485.2814      100            100            0.024578342    0.0030951386   0              0.070639887    0              0              0              1.1971759e-13  0              2.9954992    
   2200000   8485.2814      100            100            0.024578344    0.0030951386   0              0.070639892    0              0              0              1.1971759e-13  0              2.9954992    
   2300000   8485.2814      100            100            0.024578344    0.0030951385   0              0.070639894    0              0              0              1.1971759e-13  0              2.9954992    
   2400000   8485.2814      100            100            0.024578345    0.0030951385   0              0.070639895    0              0              0              1.1971759e-13  0              2.9954992    
   2500000   8485.2814      100            100            0.024578345    0.0030951385   0              0.070639895    0              0              0              1.1971759e-13  0              2.9954992    
   2600000   8485.2814      100            100            0.024578345    0.0030951385   0              0.070639895    0              0              0              1.1971759e-13  0              2.9954992    
   2700000   8485.2814      100            100            0.024578345    0.0030951385   0              0.070639895    0              0              0              1.1971759e-13  0              2.9954992    
   2800000   8485.2814      100            100            0.024578345    0.0030951385   0              0.070639895    0              0              0              1.1971759e-13  0              2.9954992    
   2900000   8485.2814      100            100            0.024578345    0.0030951385   0              0.070639895    0              0              0              1.1971759e-13  0              2.9954992    
   3000000   8485.2814      100            100            0.024578345    0.0030951385   0              0.070639895    0              0              0              1.1971759e-13  0              2.9954992    
Loop time of 595.983 on 2 procs for 3000000 steps with 4001 atoms

Performance: 4349118.517 ns/day, 0.000 hours/ns, 5033.702 timesteps/s
100.0% CPU use with 2 MPI tasks x 1 OpenMP threads

MPI task timing breakdown:
Section |  min time  |  avg time  |  max time  |%varavg| %total
---------------------------------------------------------------
Pair    | 153.18     | 153.32     | 153.46     |   1.1 | 25.73
Neigh   | 2.5722     | 2.5723     | 2.5723     |   0.0 |  0.43
Comm    | 15.071     | 15.164     | 15.256     |   2.4 |  2.54
Output  | 0.51367    | 0.51371    | 0.51375    |   0.0 |  0.09
Modify  | 384.63     | 384.67     | 384.7      |   0.2 | 64.54
Other   |            | 39.75      |            |       |  6.67

Nlocal:         2000.5 ave        2001 max        2000 min
Histogram: 1 0 0 0 0 0 0 0 0 1
Nghost:            2.5 ave           3 max           2 min
Histogram: 1 0 0 0 0 0 0 0 0 1
Neighs:         1371.5 ave        1372 max        1371 min
Histogram: 1 0 0 0 0 0 0 0 0 1

Total # of neighbors = 2743
Ave neighs/atom = 0.68557861
Neighbor list builds = 164
Dangerous builds = 0
  using 1 OpenMP thread(s) per MPI task
Total wall time: 5:59:48
